 Gaussian 16, Revision C.01,

 ----------------------------------------------------------------------
 #t hf aug-cc-pvdz symm=none int=(grid=ultrafine) guess=(read,tcheck) s
 table=(opt,rrhf)
 ----------------------------------------------------------------------
 -----
 title
 -----
 Symbolic Z-matrix:
 Charge = -1 Multiplicity = 1

 SCF Done:  E(RHF) =  -836.232054863     A.U. after   16 cycles
 Normal termination of Gaussian 16 at Wed Apr  9 02:33:01 2025.
 Gaussian 16:  ES64L-G16RevC.01  3-Jul-2019

 ----------------------------------------------------------------------
 #t hf aug-cc-pvdz iop(5/13=1,5/36=2,99/5=2) pseudo=read geom=check gue
 ss=(read,tcheck) scf=(maxcycle=1)
 ----------------------------------------------------------------------
 -----
 title
 -----
 Structure from the checkpoint file:  "E2SN2_102_mol1.chk"
 Charge = -1 Multiplicity = 1

                         Standard orientation:
 ---------------------------------------------------------------------
 Center     Atomic      Atomic             Coordinates (Angstroms)
 Number     Number       Type             X           Y           Z
 ---------------------------------------------------------------------
      1          6           0        0.044551    0.227905    0.430275
      2          6           0       -1.358669   -0.256855    0.780562
      3         17           0       -0.052259    1.606095   -0.755050
      4          1           0       -0.171012   -2.048632    2.921064
      5          1           0       -1.178866   -1.105094    1.474619
      6          1           0       -1.787364    0.548676    1.386367
      7          6           0        0.816981    0.631178    1.680846
      8          1           0        1.146551    1.669016    1.619064
      9          1           0        0.187010    0.457317    2.552273
     10          1           0        1.678359   -0.017106    1.817477
     11          7           0        0.847534   -0.823836   -0.339624
     12          8           0        2.047468   -0.611267   -0.478373
     13          8           0        0.249739   -1.789312   -0.804623
     14          7           0       -2.291456   -0.594554   -0.277233
     15          1           0       -1.960312   -1.432657   -0.733263
     16          1           0       -2.313348    0.144852   -0.969883
 ---------------------------------------------------------------------

 SCF Done:  E(RHF) =  -836.691343709     A.U. after    2 cycles

 The electronic state is 1-A.
 Alpha  occ. eigenvalues -- -105.47177 -20.48328 -20.47871 -15.67544 -15.37036
 Alpha  occ. eigenvalues --  -11.26201 -11.14340 -11.12484 -10.52054  -7.68986
 Alpha  occ. eigenvalues --   -7.68622  -7.68616  -1.55375  -1.39252  -1.09563
 Alpha  occ. eigenvalues --   -1.04026  -0.92540  -0.87204  -0.81048  -0.71972
 Alpha  occ. eigenvalues --   -0.63798  -0.63178  -0.61639  -0.58165  -0.53672
 Alpha  occ. eigenvalues --   -0.50333  -0.46988  -0.44032  -0.43652  -0.41906
 Alpha  occ. eigenvalues --   -0.38087  -0.37519  -0.36808  -0.35730  -0.33610
 Alpha  occ. eigenvalues --   -0.31882  -0.07724
 Alpha virt. eigenvalues --    0.12607   0.12980   0.14253   0.15260   0.16301
 Alpha virt. eigenvalues --    0.16459   0.17957   0.18454   0.20683   0.22768
 Alpha virt. eigenvalues --    0.23482   0.23816   0.24331   0.25164   0.25552

 Mulliken charges:
               1
     1  C   -1.125940
     2  C   -0.690705
     3  Cl  -0.127367
     4  H   -0.861142
     5  H    0.296335
     6  H    0.234995
     7  C   -0.289371
     8  H    0.234350
     9  H    0.108564
    10  H    0.366526
    11  N    3.100869
    12  O   -1.528707
    13  O   -1.501410
    14  N    0.411951
    15  H    0.214915
    16  H    0.156137
 Sum of Mulliken charges =  -1.00000

 Dipole moment (field-independent basis, Debye):
    X=              0.3273    Y=              9.4409    Z=             -9.2999  Tot=             13.2561

 Test job not archived.
 1\1\GINC-SE227\SP\RHF\Aug-CC-pVDZ\C3H8Cl1N2O2(1-)\OHZDE\09-Apr-2025\0\
 \#t hf aug-cc-pvdz iop(5/13=1,5/36=2,99/5=2) pseudo=read geom=check gu
 ess=(read,tcheck) scf=(maxcycle=1)\\title\\-1,1\C,0,-0.16395848,0.0241
 1944,-0.19495012\C,0,-0.34359236,0.03758207,1.31973396\Cl,0,1.58036888
 ,0.32998872,-0.61631078\H,0,-3.19924947,-0.91999318,0.95777569\H,0,-1.
 43352878,-0.12569408,1.4573321\H,0,0.1490166,-0.8774482,1.66573271\C,0
 ,-0.65330448,-1.28796468,-0.79676465\H,0,0.14418682,-1.7859778,-1.3495
 1502\H,0,-1.04465153,-1.91519094,0.00317895\H,0,-1.4972453,-1.10828754

 Normal termination of Gaussian 16 at Wed Apr  9 02:33:09 2025.
