 Gaussian 16, Revision C.01,

 ----------------------------------------------------------------------
 #t hf aug-cc-pvdz symm=none int=(grid=ultrafine) guess=(read,tcheck) s
 table=(opt,rrhf)
 ----------------------------------------------------------------------
 -----
 title
 -----
 Symbolic Z-matrix:
 Charge = -1 Multiplicity = 1

 SCF Done:  E(RHF) =  -682.913654614     A.U. after   16 cycles
 Normal termination of Gaussian 16 at Wed Apr  9 02:53:54 2025.
 Gaussian 16:  ES64L-G16RevC.01  3-Jul-2019

 ----------------------------------------------------------------------
 #t hf aug-cc-pvdz iop(5/13=1,5/36=2,99/5=2) pseudo=read geom=check gue
 ss=(read,tcheck) scf=(maxcycle=1)
 ----------------------------------------------------------------------
 -----
 title
 -----
 Structure from the checkpoint file:  "E2SN2_320_mol2.chk"
 Charge = -1 Multiplicity = 1

                         Standard orientation:
 ---------------------------------------------------------------------
 Center     Atomic      Atomic             Coordinates (Angstroms)
 Number     Number       Type             X           Y           Z
 ---------------------------------------------------------------------
      1          6           0       -0.735184   -0.477723   -0.306918
      2          6           0        0.290848   -0.230322    0.809916
      3          9           0       -0.678415   -1.842623   -0.657330
      4          1           0        0.223125   -1.066940    1.511783
      5          6           0       -2.101144   -0.340475    0.286921
      6          7           0       -3.209898   -0.275725    0.671758
      7          7           0       -0.479531    0.312564   -1.432145
      8          1           0       -1.275891    0.290868   -2.057292
      9          1           0       -0.259158    1.332517   -1.173665
     10          7           0        0.103622    1.020834    1.406103
     11          1           0        0.101882    1.802880    0.697810
     12          1           0        0.784749    1.184270    2.133957
     13          7           0        1.693306   -0.466447    0.178314
     14          8           0        2.369141    0.516493   -0.101368
     15          8           0        2.046408   -1.638277    0.045163
     16          9           0       -0.030331    2.685203   -0.583857
 ---------------------------------------------------------------------

 SCF Done:  E(RHF) =  -683.568809143     A.U. after    2 cycles

 The electronic state is 1-A.
 Alpha  occ. eigenvalues --  -26.34717 -26.13833 -20.46783 -20.46335 -15.65203
 Alpha  occ. eigenvalues --  -15.41549 -15.36502 -15.35970 -11.29104 -11.22829
 Alpha  occ. eigenvalues --  -11.18171  -1.53360  -1.47304  -1.37453  -1.21515
 Alpha  occ. eigenvalues --   -1.13153  -1.10829  -1.06943  -0.93639  -0.85854
 Alpha  occ. eigenvalues --   -0.74205  -0.68046  -0.66343  -0.63818  -0.61998
 Alpha  occ. eigenvalues --   -0.59885  -0.58103  -0.56333  -0.53114  -0.51196
 Alpha  occ. eigenvalues --   -0.49254  -0.47743  -0.44179  -0.40746  -0.39794
 Alpha  occ. eigenvalues --   -0.38102  -0.36098  -0.34322  -0.32973  -0.32180
 Alpha  occ. eigenvalues --   -0.30335  -0.29576  -0.29374
 Alpha virt. eigenvalues --    0.12966   0.14093   0.14453   0.17249   0.18176
 Alpha virt. eigenvalues --    0.18528   0.19160   0.20763   0.21315   0.22188
 Alpha virt. eigenvalues --    0.23159   0.23639   0.24385   0.25060   0.25874

 Mulliken charges:
               1
     1  C    0.770642
     2  C   -1.548148
     3  F   -0.987176
     4  H    0.002766
     5  C   -1.575781
     6  N    0.861205
     7  N    0.576798
     8  H    0.229824
     9  H    0.323481
    10  N    0.927702
    11  H    0.283777
    12  H    0.252593
    13  N    2.870480
    14  O   -1.375133
    15  O   -1.494798
    16  F   -1.118234
 Sum of Mulliken charges =  -1.00000

 Dipole moment (field-independent basis, Debye):
    X=              1.2364    Y=             -4.6186    Z=              1.9822  Tot=              5.1759

 Test job not archived.
 1\1\GINC-SE149\SP\RHF\Aug-CC-pVDZ\C3H5F2N4O2(1-)\OHZDE\09-Apr-2025\0\\
 #t hf aug-cc-pvdz iop(5/13=1,5/36=2,99/5=2) pseudo=read geom=check gue
 ss=(read,tcheck) scf=(maxcycle=1)\\title\\-1,1\C,0,0.021791,-0.00312,-
 0.001046\C,0,-0.314347,0.23487,-1.481465\F,0,1.372837,-0.3991,0.081637
 \H,0,0.529526,0.767462,-1.930195\C,0,0.018482,1.324051,0.688833\N,0,0.
 0616,2.322919,1.306919\N,0,-0.796551,-0.98507,0.566528\H,0,-0.703621,-
 0.971287,1.574815\H,0,-1.831071,-0.856793,0.303861\N,0,-1.538186,0.896
 002,-1.626395\H,0,-2.321195,0.398501,-1.123733\H,0,-1.760623,1.043429,

 Normal termination of Gaussian 16 at Wed Apr  9 02:54:03 2025.
