 Gaussian 16, Revision C.01,

 ----------------------------------------------------------------------
 #t hf aug-cc-pvdz symm=none int=(grid=ultrafine) guess=(read,tcheck) s
 table=(opt,rrhf)
 ----------------------------------------------------------------------
 -----
 title
 -----
 Symbolic Z-matrix:
 Charge = -1 Multiplicity = 1

 SCF Done:  E(RHF) =  -1236.20445009     A.U. after   17 cycles
 Normal termination of Gaussian 16 at Wed Apr  9 03:00:54 2025.
 Gaussian 16:  ES64L-G16RevC.01  3-Jul-2019

 ----------------------------------------------------------------------
 #t hf aug-cc-pvdz iop(5/13=1,5/36=2,99/5=2) pseudo=read geom=check gue
 ss=(read,tcheck) scf=(maxcycle=1)
 ----------------------------------------------------------------------
 -----
 title
 -----
 Structure from the checkpoint file:  "E2SN2_51_mol1.chk"
 Charge = -1 Multiplicity = 1

                         Standard orientation:
 ---------------------------------------------------------------------
 Center     Atomic      Atomic             Coordinates (Angstroms)
 Number     Number       Type             X           Y           Z
 ---------------------------------------------------------------------
      1          6           0        0.674141   -0.222808   -0.529835
      2          6           0       -0.152057    0.577130    0.288908
      3         17           0        2.784128    0.076046   -0.162184
      4         17           0       -2.958965   -0.543459   -0.261595
      5          1           0       -1.667743   -0.017498   -0.164454
      6          1           0        0.705284    0.027175   -1.587538
      7          6           0        0.621657   -1.642042   -0.260624
      8          7           0        0.524761   -2.792868   -0.034869
      9          7           0       -0.231088    0.336669    1.705710
     10          1           0        0.710536    0.220397    2.071861
     11          1           0       -0.750236   -0.514497    1.888818
     12          6           0       -0.296154    1.947746   -0.102499
     13          7           0       -0.452407    3.066241   -0.439433
 ---------------------------------------------------------------------

 SCF Done:  E(RHF) =  -1236.66962237     A.U. after    2 cycles

 The electronic state is 1-A.
 Alpha  occ. eigenvalues -- -105.41683-105.39074 -15.42422 -15.38978 -15.38226
 Alpha  occ. eigenvalues --  -11.24781 -11.19646 -11.16135 -11.16081 -10.46496
 Alpha  occ. eigenvalues --  -10.43785  -7.63421  -7.63144  -7.63139  -7.60633
 Alpha  occ. eigenvalues --   -7.60407  -7.60401  -1.12973  -1.10567  -1.07669
 Alpha  occ. eigenvalues --   -0.97393  -0.90364  -0.84878  -0.80573  -0.62968
 Alpha  occ. eigenvalues --   -0.61163  -0.59829  -0.54349  -0.50841  -0.48998
 Alpha  occ. eigenvalues --   -0.47160  -0.43748  -0.39982  -0.39434  -0.36700
 Alpha  occ. eigenvalues --   -0.35626  -0.35180  -0.33158  -0.32997  -0.30506
 Alpha  occ. eigenvalues --   -0.30156  -0.20722
 Alpha virt. eigenvalues --    0.13318   0.14002   0.15806   0.16233   0.16770
 Alpha virt. eigenvalues --    0.17178   0.18866   0.20559   0.21596   0.22591
 Alpha virt. eigenvalues --    0.23494   0.23776   0.24100   0.25080   0.25436

 Mulliken charges:
               1
     1  C    1.063345
     2  C   -1.182932
     3  Cl  -0.436318
     4  Cl  -0.407324
     5  H    0.742404
     6  H    0.002078
     7  C   -1.713831
     8  N    0.893091
     9  N    0.735501
    10  H    0.170937
    11  H    0.193949
    12  C   -1.922376
    13  N    0.861475
 Sum of Mulliken charges =  -1.00000

 Dipole moment (field-independent basis, Debye):
    X=              0.1810    Y=             -2.0530    Z=              0.1552  Tot=              2.0668

 Test job not archived.
 1\1\GINC-SE094\SP\RHF\Aug-CC-pVDZ\C4H4Cl2N3(1-)\OHZDE\09-Apr-2025\0\\#
 t hf aug-cc-pvdz iop(5/13=1,5/36=2,99/5=2) pseudo=read geom=check gues
 s=(read,tcheck) scf=(maxcycle=1)\\title\\-1,1\C,0,-0.05116142,-0.06191
 367,-0.36633815\C,0,0.10133086,0.05752186,1.03199116\Cl,0,1.79932345,-
 0.51402185,-1.38997239\Cl,0,-2.79993377,0.21027916,2.03040826\H,0,-1.5
 1564579,0.25768628,1.48115194\H,0,-0.26610193,0.85148604,-0.91560915\C
 ,0,-0.8116438,-1.20883764,-0.80870294\N,0,-1.4654012,-2.13395832,-1.12
 730746\N,0,0.41640963,-1.09474153,1.8347429\H,0,1.1711076,-1.60955165,

 Normal termination of Gaussian 16 at Wed Apr  9 03:01:00 2025.
