 Gaussian 16, Revision C.01,

 ----------------------------------------------------------------------
 #t hf aug-cc-pvdz symm=none int=(grid=ultrafine) guess=(read,tcheck) s
 table=(opt,rrhf)
 ----------------------------------------------------------------------
 -----
 title
 -----
 Symbolic Z-matrix:
 Charge = -1 Multiplicity = 1

 SCF Done:  E(RHF) =  -419.429108566     A.U. after   17 cycles
 Normal termination of Gaussian 16 at Wed Apr  9 02:37:08 2025.
 Gaussian 16:  ES64L-G16RevC.01  3-Jul-2019

 ----------------------------------------------------------------------
 #t hf aug-cc-pvdz iop(5/13=1,5/36=2,99/5=2) pseudo=read geom=check gue
 ss=(read,tcheck) scf=(maxcycle=1)
 ----------------------------------------------------------------------
 -----
 title
 -----
 Structure from the checkpoint file:  "E2SN2_147_mol1.chk"
 Charge = -1 Multiplicity = 1

                         Standard orientation:
 ---------------------------------------------------------------------
 Center     Atomic      Atomic             Coordinates (Angstroms)
 Number     Number       Type             X           Y           Z
 ---------------------------------------------------------------------
      1          6           0        0.276318   -0.417274    0.044588
      2          6           0       -0.852446    0.460291   -0.263826
      3          9           0        0.350336   -0.814777    1.469375
      4          1           0       -1.340542   -0.123803   -2.555203
      5          1           0       -0.975662    0.294178   -1.687505
      6          7           0        0.264314   -1.691538   -0.657085
      7          1           0       -0.289014   -1.548292   -1.504526
      8          1           0       -0.241100   -2.340381   -0.067340
      9          6           0        1.578865    0.248161   -0.187597
     10          7           0        2.612099    0.774137   -0.379885
     11          6           0       -0.773383    1.894309    0.201954
     12          1           0        0.165315    2.374853   -0.093327
     13          1           0       -1.595598    2.454318   -0.256190
     14          1           0       -0.879874    1.999232    1.293450
     15          7           0       -2.138677   -0.145525    0.027592
     16          1           0       -2.066192   -0.837836    0.765121
     17          1           0       -2.470633   -0.611708   -0.823931
 ---------------------------------------------------------------------

 SCF Done:  E(RHF) =  -419.857545530     A.U. after    2 cycles

 The electronic state is 1-A.
 Alpha  occ. eigenvalues --  -26.30210 -15.38882 -15.36573 -15.33653 -11.24395
 Alpha  occ. eigenvalues --  -11.15787 -11.07993 -11.07041  -1.41081  -1.09854
 Alpha  occ. eigenvalues --   -1.07482  -1.02032  -0.88037  -0.80456  -0.68234
 Alpha  occ. eigenvalues --   -0.61440  -0.57224  -0.55996  -0.52627  -0.51298
 Alpha  occ. eigenvalues --   -0.48514  -0.45266  -0.44052  -0.42115  -0.40872
 Alpha  occ. eigenvalues --   -0.39117  -0.37347  -0.36865  -0.34406  -0.32963
 Alpha  occ. eigenvalues --   -0.28497  -0.10953
 Alpha virt. eigenvalues --    0.13202   0.13844   0.14610   0.15061   0.16230
 Alpha virt. eigenvalues --    0.16646   0.18123   0.18726   0.18966   0.22314
 Alpha virt. eigenvalues --    0.22540   0.24006   0.24401   0.24837   0.25431

 Mulliken charges:
               1
     1  C    0.915882
     2  C   -2.260244
     3  F   -1.009516
     4  H   -0.623924
     5  H    0.587824
     6  N    0.477661
     7  H    0.238424
     8  H    0.290230
     9  C   -1.955527
    10  N    0.974576
    11  C   -0.327192
    12  H    0.231797
    13  H    0.127537
    14  H    0.167045
    15  N    0.753310
    16  H    0.203702
    17  H    0.208414
 Sum of Mulliken charges =  -1.00000

 Dipole moment (field-independent basis, Debye):
    X=             -0.8363    Y=             -1.8245    Z=              4.5393  Tot=              4.9632

 Test job not archived.
 1\1\GINC-SE080\SP\RHF\Aug-CC-pVDZ\C4H9F1N3(1-)\OHZDE\09-Apr-2025\0\\#t
  hf aug-cc-pvdz iop(5/13=1,5/36=2,99/5=2) pseudo=read geom=check guess
 =(read,tcheck) scf=(maxcycle=1)\\title\\-1,1\C,0,-0.18444526,0.0036373
 2,-0.32353606\C,0,-0.1515735,0.1128995,1.13465737\F,0,1.13337614,-0.29
 775435,-0.92852883\H,0,-2.36619785,-0.62570467,1.75086961\H,0,-1.53514
 041,-0.08248113,1.47701112\N,0,-1.03672128,-1.05910753,-0.83386708\H,0
 ,-1.73647702,-1.23914585,-0.11083486\H,0,-0.45496386,-1.88380609,-0.90
 917118\C,0,-0.56751877,1.28021191,-0.96925706\N,0,-0.87952736,2.291344

 Normal termination of Gaussian 16 at Wed Apr  9 02:37:15 2025.
