 Gaussian 16, Revision C.01,

 ----------------------------------------------------------------------
 #t hf aug-cc-pvdz symm=none int=(grid=ultrafine) guess=(read,tcheck) s
 table=(opt,rrhf)
 ----------------------------------------------------------------------
 -----
 title
 -----
 Symbolic Z-matrix:
 Charge = -1 Multiplicity = 1

 SCF Done:  E(RHF) =  -876.124993648     A.U. after   16 cycles
 Normal termination of Gaussian 16 at Wed Apr  9 02:47:10 2025.
 Gaussian 16:  ES64L-G16RevC.01  3-Jul-2019

 ----------------------------------------------------------------------
 #t hf aug-cc-pvdz iop(5/13=1,5/36=2,99/5=2) pseudo=read geom=check gue
 ss=(read,tcheck) scf=(maxcycle=1)
 ----------------------------------------------------------------------
 -----
 title
 -----
 Structure from the checkpoint file:  "E2SN2_253_mol1.chk"
 Charge = -1 Multiplicity = 1

                         Standard orientation:
 ---------------------------------------------------------------------
 Center     Atomic      Atomic             Coordinates (Angstroms)
 Number     Number       Type             X           Y           Z
 ---------------------------------------------------------------------
      1          6           0        0.453873   -0.198627   -0.450328
      2          1           0       -0.448015   -1.674825    0.680409
      3         17           0        0.092837    1.903699   -0.493368
      4          9           0        0.797057   -2.123476   -0.774198
      5          6           0       -0.633704   -0.611368    0.531957
      6          1           0        0.284280   -0.291116   -1.505233
      7          6           0        1.812788   -0.182411    0.029030
      8          7           0        2.918786   -0.105344    0.419396
      9          6           0       -1.961708   -0.482318   -0.104032
     10          7           0       -3.059582   -0.414062   -0.517532
     11          7           0       -0.527893    0.069075    1.811463
     12          1           0       -1.194463   -0.336738    2.456207
     13          1           0       -0.740220    1.051742    1.690603
 ---------------------------------------------------------------------

 SCF Done:  E(RHF) =  -876.603556072     A.U. after    2 cycles

 The electronic state is 1-A.
 Alpha  occ. eigenvalues -- -105.38802 -26.15225 -15.40895 -15.39851 -15.38761
 Alpha  occ. eigenvalues --  -11.25842 -11.20836 -11.17880 -11.16991 -10.43611
 Alpha  occ. eigenvalues --   -7.60463  -7.60252  -7.60229  -1.22856  -1.12761
 Alpha  occ. eigenvalues --   -1.09875  -1.08712  -0.95959  -0.85857  -0.80702
 Alpha  occ. eigenvalues --   -0.64864  -0.62767  -0.59909  -0.54080  -0.50254
 Alpha  occ. eigenvalues --   -0.49384  -0.47823  -0.42705  -0.39919  -0.38452
 Alpha  occ. eigenvalues --   -0.36516  -0.35691  -0.34774  -0.31168  -0.30763
 Alpha  occ. eigenvalues --   -0.30404  -0.29910  -0.27190
 Alpha virt. eigenvalues --    0.12237   0.14610   0.15241   0.16009   0.17260
 Alpha virt. eigenvalues --    0.19288   0.19374   0.21520   0.22583   0.23336
 Alpha virt. eigenvalues --    0.23548   0.23968   0.24957   0.25943   0.26719

 Mulliken charges:
               1
     1  C    1.387507
     2  H    0.246544
     3  Cl  -0.496019
     4  F   -0.870944
     5  C   -0.727516
     6  H   -0.064082
     7  C   -1.884784
     8  N    0.963481
     9  C   -1.387197
    10  N    0.930182
    11  N    0.529392
    12  H    0.155629
    13  H    0.217807
 Sum of Mulliken charges =  -1.00000

 Dipole moment (field-independent basis, Debye):
    X=             -3.2686    Y=              1.5948    Z=              2.7338  Tot=              4.5499

 Test job not archived.
 1\1\GINC-SE228\SP\RHF\Aug-CC-pVDZ\C4H4Cl1F1N3(1-)\OHZDE\09-Apr-2025\0\
 \#t hf aug-cc-pvdz iop(5/13=1,5/36=2,99/5=2) pseudo=read geom=check gu
 ess=(read,tcheck) scf=(maxcycle=1)\\title\\-1,1\C,0,0.50530118,-0.0504
 2203,-0.04787331\H,0,1.68943372,1.63939851,-0.1639101\Cl,0,-1.62030849
 ,-0.23403453,-0.05454415\F,0,2.46627334,-0.12388599,0.229437\C,0,0.617
 60084,1.4678151,-0.06802966\H,0,0.58945949,-0.58020154,0.88077641\C,0,
 0.79454728,-0.75576857,-1.2707884\N,0,0.96792215,-1.34257626,-2.274358
 51\C,0,0.19966054,2.02080357,1.23744315\N,0,-0.11218613,2.55748409,2.2

 Normal termination of Gaussian 16 at Wed Apr  9 02:47:16 2025.
