 Gaussian 16, Revision C.01,

 ----------------------------------------------------------------------
 #t hf aug-cc-pvdz symm=none int=(grid=ultrafine) guess=(read,tcheck) s
 table=(opt,rrhf)
 ----------------------------------------------------------------------
 -----
 title
 -----
 Symbolic Z-matrix:
 Charge = -1 Multiplicity = 1

 SCF Done:  E(RHF) =  -627.871674611     A.U. after   16 cycles
 Normal termination of Gaussian 16 at Wed Apr  9 02:51:15 2025.
 Gaussian 16:  ES64L-G16RevC.01  3-Jul-2019

 ----------------------------------------------------------------------
 #t hf aug-cc-pvdz iop(5/13=1,5/36=2,99/5=2) pseudo=read geom=check gue
 ss=(read,tcheck) scf=(maxcycle=1)
 ----------------------------------------------------------------------
 -----
 title
 -----
 Structure from the checkpoint file:  "E2SN2_291_mol2.chk"
 Charge = -1 Multiplicity = 1

                         Standard orientation:
 ---------------------------------------------------------------------
 Center     Atomic      Atomic             Coordinates (Angstroms)
 Number     Number       Type             X           Y           Z
 ---------------------------------------------------------------------
      1          6           0       -0.620944    0.288720    0.527571
      2          6           0        0.310588   -0.816261    0.060920
      3          9           0       -0.009503    0.904739    1.655188
      4          1           0        0.386840   -1.537484    0.870353
      5          1           0       -0.151489   -1.312791   -0.805826
      6          6           0       -0.765112    1.413051   -0.437917
      7          7           0       -1.019577    2.314605   -1.147346
      8          7           0       -1.842024   -0.311513    0.866798
      9          1           0       -2.000429   -1.129145    0.171504
     10          1           0       -2.595059    0.362844    0.826654
     11          7           0        1.679423   -0.329144   -0.213123
     12          8           0        1.817257    0.552080   -1.061439
     13          8           0        2.610111   -0.857758    0.398196
     14          9           0       -1.805024   -2.123484   -0.900130
 ---------------------------------------------------------------------

 SCF Done:  E(RHF) =  -628.470258098     A.U. after    2 cycles

 The electronic state is 1-A.
 Alpha  occ. eigenvalues --  -26.34400 -26.13348 -20.48154 -20.47995 -15.67462
 Alpha  occ. eigenvalues --  -15.41070 -15.36040 -11.28833 -11.18013 -11.17795
 Alpha  occ. eigenvalues --   -1.55020  -1.46617  -1.38817  -1.20530  -1.11946
 Alpha  occ. eigenvalues --   -1.08946  -1.01153  -0.84738  -0.76934  -0.69288
 Alpha  occ. eigenvalues --   -0.64887  -0.64356  -0.63024  -0.57805  -0.56605
 Alpha  occ. eigenvalues --   -0.52721  -0.51163  -0.48792  -0.46491  -0.44092
 Alpha  occ. eigenvalues --   -0.40395  -0.39156  -0.37665  -0.36915  -0.34325
 Alpha  occ. eigenvalues --   -0.33804  -0.29782  -0.29384  -0.28761
 Alpha virt. eigenvalues --    0.14099   0.15232   0.16229   0.17370   0.18439
 Alpha virt. eigenvalues --    0.18623   0.19494   0.22029   0.22335   0.22611
 Alpha virt. eigenvalues --    0.24958   0.25135   0.25503   0.25981   0.27017

 Mulliken charges:
               1
     1  C    0.672545
     2  C   -0.159648
     3  F   -0.986402
     4  H    0.154115
     5  H    0.268341
     6  C   -1.723309
     7  N    0.910635
     8  N    0.277138
     9  H    0.428630
    10  H    0.227934
    11  N    2.766632
    12  O   -1.399614
    13  O   -1.400785
    14  F   -1.036212
 Sum of Mulliken charges =  -1.00000

 Dipole moment (field-independent basis, Debye):
    X=              2.6529    Y=              1.8108    Z=              3.1114  Tot=              4.4718

 Test job not archived.
 1\1\GINC-SE120\SP\RHF\Aug-CC-pVDZ\C3H4F2N3O2(1-)\OHZDE\09-Apr-2025\0\\
 #t hf aug-cc-pvdz iop(5/13=1,5/36=2,99/5=2) pseudo=read geom=check gue
 ss=(read,tcheck) scf=(maxcycle=1)\\title\\-1,1\C,0,0.025685,0.021704,0
 .028767\C,0,-0.592812,0.332758,-1.322974\F,0,1.41766,-0.183376,-0.1838
 53\H,0,-0.447731,-0.540805,-1.953053\H,0,-1.673608,0.483895,-1.180346\
 C,0,-0.007888,1.157778,0.990682\N,0,-0.046225,1.9498,1.857904\N,0,-0.5
 97767,-1.136215,0.515515\H,0,-1.634995,-1.097679,0.199731\H,0,-0.51664
 6,-1.189372,1.522503\N,0,0.065624,1.468871,-2.002534\O,0,0.077292,2.55

 Normal termination of Gaussian 16 at Wed Apr  9 02:51:23 2025.
