 Gaussian 16, Revision C.01,

 ----------------------------------------------------------------------
 #t hf aug-cc-pvdz symm=none int=(grid=ultrafine) guess=(read,tcheck) s
 table=(opt,rrhf)
 ----------------------------------------------------------------------
 -----
 title
 -----
 Symbolic Z-matrix:
 Charge = -1 Multiplicity = 1

 SCF Done:  E(RHF) =  -1222.60071855     A.U. after   15 cycles
 Normal termination of Gaussian 16 at Wed Apr  9 02:55:00 2025.
 Gaussian 16:  ES64L-G16RevC.01  3-Jul-2019

 ----------------------------------------------------------------------
 #t hf aug-cc-pvdz iop(5/13=1,5/36=2,99/5=2) pseudo=read geom=check gue
 ss=(read,tcheck) scf=(maxcycle=1)
 ----------------------------------------------------------------------
 -----
 title
 -----
 Structure from the checkpoint file:  "E2SN2_341_mol2.chk"
 Charge = -1 Multiplicity = 1

                         Standard orientation:
 ---------------------------------------------------------------------
 Center     Atomic      Atomic             Coordinates (Angstroms)
 Number     Number       Type             X           Y           Z
 ---------------------------------------------------------------------
      1          6           0        0.910199    0.103903   -0.199699
      2          6           0        0.244534   -0.494874    1.081634
      3         17           0        2.459582   -0.802130   -0.528769
      4          1           0        1.058428   -0.575515    1.814832
      5          6           0        0.037445    0.055345   -1.441372
      6          1           0       -0.089716   -0.980637   -1.755696
      7          1           0       -0.956844    0.455562   -1.222651
      8          1           0        0.500268    0.616725   -2.255361
      9          6           0        1.322898    1.478298    0.094931
     10          7           0        1.643682    2.578832    0.354857
     11          6           0       -0.338038   -1.874688    0.807985
     12          1           0       -0.628260   -2.319152    1.761813
     13          1           0       -1.240040   -1.778006    0.199502
     14          1           0        0.379106   -2.532841    0.313200
     15          7           0       -0.796346    0.337592    1.636832
     16          1           0       -1.629954    0.343347    1.044954
     17          1           0       -0.485610    1.288731    1.790467
     18         17           0       -3.394932    0.182066   -0.512040
 ---------------------------------------------------------------------

 SCF Done:  E(RHF) =  -1223.07105760     A.U. after    2 cycles

 The electronic state is 1-A.
 Alpha  occ. eigenvalues -- -105.47117-105.28318 -15.42713 -15.35943 -11.24509
 Alpha  occ. eigenvalues --  -11.19697 -11.17492 -11.13076 -11.11519 -10.51962
 Alpha  occ. eigenvalues --  -10.32907  -7.68895  -7.68538  -7.68533  -7.49674
 Alpha  occ. eigenvalues --   -7.49644  -7.49637  -1.13642  -1.09132  -1.02839
 Alpha  occ. eigenvalues --   -0.90344  -0.88451  -0.81277  -0.73658  -0.71531
 Alpha  occ. eigenvalues --   -0.60855  -0.58857  -0.54722  -0.52759  -0.51431
 Alpha  occ. eigenvalues --   -0.49085  -0.45227  -0.43872  -0.43485  -0.42440
 Alpha  occ. eigenvalues --   -0.40438  -0.39037  -0.38928  -0.37138  -0.36102
 Alpha  occ. eigenvalues --   -0.30786  -0.21015  -0.20632  -0.20602
 Alpha virt. eigenvalues --    0.12101   0.12575   0.12939   0.14120   0.15398
 Alpha virt. eigenvalues --    0.15552   0.17031   0.17345   0.19008   0.19096
 Alpha virt. eigenvalues --    0.20322   0.21437   0.22726   0.23183   0.23646

 Mulliken charges:
               1
     1  C   -0.655374
     2  C   -1.497619
     3  Cl  -0.036470
     4  H   -0.030857
     5  C    0.407475
     6  H    0.193486
     7  H    0.295791
     8  H    0.140466
     9  C   -1.817313
    10  N    1.104669
    11  C    0.105288
    12  H    0.086446
    13  H    0.215781
    14  H    0.181924
    15  N    0.962779
    16  H    0.057053
    17  H    0.266438
    18  Cl  -0.979965
 Sum of Mulliken charges =  -1.00000

 Dipole moment (field-independent basis, Debye):
    X=              9.8051    Y=             -3.7511    Z=              0.2178  Tot=             10.5004

 Test job not archived.
 1\1\GINC-SE460\SP\RHF\Aug-CC-pVDZ\C5H9Cl2N2(1-)\OHZDE\09-Apr-2025\0\\#
 t hf aug-cc-pvdz iop(5/13=1,5/36=2,99/5=2) pseudo=read geom=check gues
 s=(read,tcheck) scf=(maxcycle=1)\\title\\-1,1\C,0,0.047553,-0.048987,-
 0.015368\C,0,-0.413564,-0.133237,-1.506586\Cl,0,1.81982,0.383897,0.022
 73\H,0,0.359362,-0.728756,-2.011015\C,0,-0.723221,0.95451,0.824102\H,0
 ,-0.486053,1.964971,0.491012\H,0,-1.799856,0.811102,0.694047\H,0,-0.45
 3503,0.857883,1.877594\C,0,-0.033973,-1.390066,0.568541\N,0,-0.109037,
 -2.474897,1.014798\C,0,-0.490725,1.249243,-2.139798\H,0,-0.64113,1.125

 Normal termination of Gaussian 16 at Wed Apr  9 02:55:10 2025.
