 Gaussian 16, Revision C.01,

 ----------------------------------------------------------------------
 #t hf aug-cc-pvdz symm=none int=(grid=ultrafine) guess=(read,tcheck) s
 table=(opt,rrhf)
 ----------------------------------------------------------------------
 -----
 title
 -----
 Symbolic Z-matrix:
 Charge = -1 Multiplicity = 1

 SCF Done:  E(RHF) =  -1347.94694551     A.U. after   17 cycles
 Normal termination of Gaussian 16 at Wed Apr  9 02:48:26 2025.
 Gaussian 16:  ES64L-G16RevC.01  3-Jul-2019

 ----------------------------------------------------------------------
 #t hf aug-cc-pvdz iop(5/13=1,5/36=2,99/5=2) pseudo=read geom=check gue
 ss=(read,tcheck) scf=(maxcycle=1)
 ----------------------------------------------------------------------
 -----
 title
 -----
 Structure from the checkpoint file:  "E2SN2_266_mol1.chk"
 Charge = -1 Multiplicity = 1

                         Standard orientation:
 ---------------------------------------------------------------------
 Center     Atomic      Atomic             Coordinates (Angstroms)
 Number     Number       Type             X           Y           Z
 ---------------------------------------------------------------------
      1          6           0       -0.000516   -0.103973   -0.042261
      2          1           0        0.631206   -1.202084   -1.764302
      3         17           0       -2.221249    0.512862    0.169040
      4         17           0        2.332571   -0.534689   -0.070318
      5          6           0       -0.302935   -0.938401   -1.276434
      6          1           0       -0.880086   -0.302453   -1.951724
      7          6           0       -0.000628   -0.624654    1.291796
      8          7           0       -0.044133   -1.059597    2.385040
      9          7           0        0.356994    1.335215   -0.216535
     10          8           0        0.417796    1.731465   -1.374099
     11          8           0        0.544546    1.999589    0.790627
     12          7           0       -0.974957   -2.160171   -0.863419
     13          1           0       -0.942036   -2.830535   -1.619287
     14          1           0       -1.941155   -1.948247   -0.649387
 ---------------------------------------------------------------------

 SCF Done:  E(RHF) =  -1348.51852522     A.U. after    2 cycles

 The electronic state is 1-A.
 Alpha  occ. eigenvalues -- -105.37963-105.36044 -20.48033 -20.47924 -15.69307
 Alpha  occ. eigenvalues --  -15.40598 -15.39059 -11.32954 -11.18686 -11.18011
 Alpha  occ. eigenvalues --  -10.42726 -10.40808  -7.59566  -7.59363  -7.59351
 Alpha  occ. eigenvalues --   -7.57640  -7.57447  -7.57443  -1.55898  -1.39839
 Alpha  occ. eigenvalues --   -1.12055  -1.09438  -1.03546  -0.86420  -0.84515
 Alpha  occ. eigenvalues --   -0.81595  -0.79082  -0.70630  -0.64214  -0.63201
 Alpha  occ. eigenvalues --   -0.61528  -0.54694  -0.54437  -0.49496  -0.48249
 Alpha  occ. eigenvalues --   -0.42876  -0.40602  -0.38372  -0.36840  -0.35034
 Alpha  occ. eigenvalues --   -0.33756  -0.31641  -0.29911  -0.29361  -0.27839
 Alpha  occ. eigenvalues --   -0.27255  -0.25965
 Alpha virt. eigenvalues --    0.11627   0.12201   0.14172   0.14549   0.16300
 Alpha virt. eigenvalues --    0.18919   0.19500   0.20209   0.21675   0.22504
 Alpha virt. eigenvalues --    0.22756   0.23623   0.25098   0.25484   0.26075

 Mulliken charges:
               1
     1  C   -0.892547
     2  H    0.149109
     3  Cl  -0.466896
     4  Cl  -0.531942
     5  C   -0.030408
     6  H    0.245814
     7  C   -1.565313
     8  N    1.091491
     9  N    3.279479
    10  O   -1.517924
    11  O   -1.481361
    12  N    0.393259
    13  H    0.123483
    14  H    0.203757
 Sum of Mulliken charges =  -1.00000

 Dipole moment (field-independent basis, Debye):
    X=             -2.1336    Y=             -1.2827    Z=             -5.1526  Tot=              5.7225

 Test job not archived.
 1\1\GINC-SE362\SP\RHF\Aug-CC-pVDZ\C3H4Cl2N3O2(1-)\OHZDE\09-Apr-2025\0\
 \#t hf aug-cc-pvdz iop(5/13=1,5/36=2,99/5=2) pseudo=read geom=check gu
 ess=(read,tcheck) scf=(maxcycle=1)\\title\\-1,1\C,0,0.6425833,-0.00388
 902,-0.01158691\H,0,1.52305571,1.92396849,0.26855282\Cl,0,-1.66069119,
 -0.22649712,0.03488656\Cl,0,3.01475622,-0.05274713,-0.0090582\C,0,0.54
 240564,1.51180035,0.04808651\H,0,-0.12870086,1.74973683,0.87667092\C,0
 ,0.7071436,-0.75119745,-1.23149715\N,0,0.71908988,-1.35262159,-2.24362
 143\N,0,0.71778656,-0.77100544,1.26720979\O,0,0.7320995,-0.09807069,2.

 Normal termination of Gaussian 16 at Wed Apr  9 02:48:33 2025.
