 Gaussian 16, Revision C.01,

 ----------------------------------------------------------------------
 #t hf aug-cc-pvdz symm=none int=(grid=ultrafine) guess=(read,tcheck) s
 table=(opt,rrhf)
 ----------------------------------------------------------------------
 -----
 title
 -----
 Symbolic Z-matrix:
 Charge = -1 Multiplicity = 1

 SCF Done:  E(RHF) =  -531.186587347     A.U. after   17 cycles
 Normal termination of Gaussian 16 at Wed Apr  9 02:56:18 2025.
 Gaussian 16:  ES64L-G16RevC.01  3-Jul-2019

 ----------------------------------------------------------------------
 #t hf aug-cc-pvdz iop(5/13=1,5/36=2,99/5=2) pseudo=read geom=check gue
 ss=(read,tcheck) scf=(maxcycle=1)
 ----------------------------------------------------------------------
 -----
 title
 -----
 Structure from the checkpoint file:  "E2SN2_360_mol1.chk"
 Charge = -1 Multiplicity = 1

                         Standard orientation:
 ---------------------------------------------------------------------
 Center     Atomic      Atomic             Coordinates (Angstroms)
 Number     Number       Type             X           Y           Z
 ---------------------------------------------------------------------
      1          6           0       -0.981030   -0.357354   -0.152078
      2          1           0        0.325181    0.277603   -1.757832
      3          9           0       -0.995321    0.403813    1.339224
      4          1           0       -1.011265   -1.330801   -1.832010
      5          6           0        0.210958    0.459036   -0.696328
      6          6           0       -2.356724    0.116958   -0.607039
      7          1           0       -2.742880    0.855971    0.104474
      8          1           0       -2.304762    0.556787   -1.600174
      9          1           0       -3.030335   -0.737588   -0.661215
     10          7           0       -0.703464   -1.641134    0.454027
     11          1           0       -1.023557   -2.349780   -0.184601
     12          1           0       -1.187542   -1.662495    1.343731
     13          7           0        1.491912   -0.131355   -0.097856
     14          8           0        2.075609   -0.991467   -0.751874
     15          8           0        1.885005    0.312376    0.980567
     16          7           0        0.085344    1.854136   -0.414536
     17          1           0        0.904720    2.350544   -0.740495
     18          1           0       -0.012361    1.954803    0.586801
 ---------------------------------------------------------------------

 SCF Done:  E(RHF) =  -531.718373813     A.U. after    2 cycles

 The electronic state is 1-A.
 Alpha  occ. eigenvalues --  -26.21519 -20.44064 -20.43931 -15.62787 -15.37047
 Alpha  occ. eigenvalues --  -15.34035 -11.22935 -11.18696 -11.08827  -1.50860
 Alpha  occ. eigenvalues --   -1.34774  -1.31235  -1.09254  -1.04051  -0.91789
 Alpha  occ. eigenvalues --   -0.86115  -0.74629  -0.67166  -0.63262  -0.60633
 Alpha  occ. eigenvalues --   -0.59310  -0.57236  -0.56384  -0.49799  -0.48923
 Alpha  occ. eigenvalues --   -0.46328  -0.44335  -0.40586  -0.37715  -0.36955
 Alpha  occ. eigenvalues --   -0.36600  -0.35238  -0.33149  -0.32197  -0.29847
 Alpha  occ. eigenvalues --   -0.29598  -0.10452
 Alpha virt. eigenvalues --    0.12953   0.13757   0.14194   0.15073   0.15511
 Alpha virt. eigenvalues --    0.16448   0.17495   0.17897   0.20652   0.21245
 Alpha virt. eigenvalues --    0.22438   0.23891   0.25009   0.25265   0.26163

 Mulliken charges:
               1
     1  C   -1.619759
     2  H    0.064037
     3  F   -0.968385
     4  H   -0.550215
     5  C   -1.282747
     6  C    0.011096
     7  H    0.298290
     8  H    0.246154
     9  H    0.104432
    10  N    0.643402
    11  H    0.334281
    12  H    0.282469
    13  N    3.191895
    14  O   -1.499585
    15  O   -1.515698
    16  N    0.697398
    17  H    0.211230
    18  H    0.351705
 Sum of Mulliken charges =  -1.00000

 Dipole moment (field-independent basis, Debye):
    X=              0.1357    Y=              4.0336    Z=              2.2865  Tot=              4.6386

 Test job not archived.
 1\1\GINC-SE195\SP\RHF\Aug-CC-pVDZ\C3H9F1N3O2(1-)\OHZDE\09-Apr-2025\0\\
 #t hf aug-cc-pvdz iop(5/13=1,5/36=2,99/5=2) pseudo=read geom=check gue
 ss=(read,tcheck) scf=(maxcycle=1)\\title\\-1,1\C,0,0.5666075,-0.058972
 01,-0.04223833\H,0,1.53790217,1.85329865,-0.33822383\F,0,-1.09954796,-
 0.22415946,-0.05639449\H,0,2.50477426,0.03473964,0.03130731\C,0,0.5391
 9717,1.48114551,-0.14627347\C,0,0.82945522,-0.79524386,-1.35117323\H,0
 ,-0.12331407,-1.00453798,-1.85110683\H,0,1.46481456,-0.20386499,-2.006
 1974\H,0,1.35311377,-1.72678599,-1.13916746\N,0,0.66019067,-0.64816149

 Normal termination of Gaussian 16 at Wed Apr  9 02:56:27 2025.
