 Gaussian 16, Revision C.01,

 ----------------------------------------------------------------------
 #t hf aug-cc-pvdz symm=none int=(grid=ultrafine) guess=(read,tcheck) s
 table=(opt,rrhf)
 ----------------------------------------------------------------------
 -----
 title
 -----
 Symbolic Z-matrix:
 Charge = -1 Multiplicity = 1

 SCF Done:  E(RHF) =  -860.107945592     A.U. after   16 cycles
 Normal termination of Gaussian 16 at Wed Apr  9 02:49:11 2025.
 Gaussian 16:  ES64L-G16RevC.01  3-Jul-2019

 ----------------------------------------------------------------------
 #t hf aug-cc-pvdz iop(5/13=1,5/36=2,99/5=2) pseudo=read geom=check gue
 ss=(read,tcheck) scf=(maxcycle=1)
 ----------------------------------------------------------------------
 -----
 title
 -----
 Structure from the checkpoint file:  "E2SN2_270_mol1.chk"
 Charge = -1 Multiplicity = 1

                         Standard orientation:
 ---------------------------------------------------------------------
 Center     Atomic      Atomic             Coordinates (Angstroms)
 Number     Number       Type             X           Y           Z
 ---------------------------------------------------------------------
      1          6           0        0.106385   -0.192673   -0.074238
      2          1           0       -0.266242    0.688732   -1.990998
      3          9           0       -0.504617   -2.060155    0.041155
      4         17           0        0.818242    1.853329    0.065792
      5          6           0       -0.748302   -0.032123   -1.328877
      6          1           0       -0.761896   -1.011643   -1.801590
      7          6           0        1.409177   -0.798220   -0.226033
      8          7           0        2.484061   -1.237586   -0.411767
      9          6           0       -0.488495   -0.190742    1.244113
     10          7           0       -0.981334   -0.090511    2.307336
     11          6           0       -2.163414    0.403037   -0.988874
     12          1           0       -2.639569   -0.363679   -0.376364
     13          1           0       -2.163722    1.347902   -0.441390
     14          1           0       -2.748306    0.534488   -1.904045
 ---------------------------------------------------------------------

 SCF Done:  E(RHF) =  -860.571933621     A.U. after    2 cycles

 The electronic state is 1-A.
 Alpha  occ. eigenvalues -- -105.38745 -26.16725 -15.39697 -15.38851 -11.29270
 Alpha  occ. eigenvalues --  -11.18015 -11.17643 -11.13854 -11.11908 -10.43508
 Alpha  occ. eigenvalues --   -7.60366  -7.60125  -7.60123  -1.24598  -1.10316
 Alpha  occ. eigenvalues --   -1.09104  -1.00499  -0.89824  -0.83085  -0.75517
 Alpha  occ. eigenvalues --   -0.69389  -0.54796  -0.53191  -0.49199  -0.48198
 Alpha  occ. eigenvalues --   -0.45377  -0.44009  -0.41565  -0.41129  -0.39515
 Alpha  occ. eigenvalues --   -0.37216  -0.36746  -0.32648  -0.32090  -0.31621
 Alpha  occ. eigenvalues --   -0.29837  -0.29311  -0.27981
 Alpha virt. eigenvalues --    0.11645   0.13728   0.14397   0.15728   0.16774
 Alpha virt. eigenvalues --    0.18395   0.18651   0.19785   0.21742   0.22187
 Alpha virt. eigenvalues --    0.22579   0.23628   0.24637   0.24863   0.25577

 Mulliken charges:
               1
     1  C   -0.031347
     2  H    0.175298
     3  F   -0.805306
     4  Cl  -0.359551
     5  C    0.363068
     6  H    0.269328
     7  C   -1.520577
     8  N    0.936601
     9  C   -1.243675
    10  N    0.894314
    11  C   -0.288844
    12  H    0.287025
    13  H    0.284547
    14  H    0.039119
 Sum of Mulliken charges =  -1.00000

 Dipole moment (field-independent basis, Debye):
    X=             -2.9672    Y=              2.8985    Z=             -4.2292  Tot=              5.9238

 Test job not archived.
 1\1\GINC-SE102\SP\RHF\Aug-CC-pVDZ\C5H5Cl1F1N2(1-)\OHZDE\09-Apr-2025\0\
 \#t hf aug-cc-pvdz iop(5/13=1,5/36=2,99/5=2) pseudo=read geom=check gu
 ess=(read,tcheck) scf=(maxcycle=1)\\title\\-1,1\C,0,0.69480171,-0.0388
 7087,0.00431462\H,0,1.40443792,1.92020865,-0.49380052\F,0,-1.24506069,
 -0.24053382,-0.26100204\Cl,0,2.82522958,-0.05657722,0.42077271\C,0,0.5
 0663732,1.47456101,-0.06279024\H,0,-0.33816301,1.6356461,-0.72872353\C
 ,0,0.77698156,-0.75821499,-1.24580001\N,0,0.90129582,-1.28862842,-2.28
 79723\C,0,0.34606866,-0.78630954,1.19244608\N,0,0.14580402,-1.35898905

 Normal termination of Gaussian 16 at Wed Apr  9 02:49:18 2025.
