 Gaussian 16, Revision C.01,

 ----------------------------------------------------------------------
 #t hf aug-cc-pvdz symm=none int=(grid=ultrafine) guess=(read,tcheck) s
 table=(opt,rrhf)
 ----------------------------------------------------------------------
 -----
 title
 -----
 Symbolic Z-matrix:
 Charge = -1 Multiplicity = 1

 SCF Done:  E(RHF) =  -943.992177585     A.U. after   18 cycles
 Normal termination of Gaussian 16 at Wed Apr  9 02:36:29 2025.
 Gaussian 16:  ES64L-G16RevC.01  3-Jul-2019

 ----------------------------------------------------------------------
 #t hf aug-cc-pvdz iop(5/13=1,5/36=2,99/5=2) pseudo=read geom=check gue
 ss=(read,tcheck) scf=(maxcycle=1)
 ----------------------------------------------------------------------
 -----
 title
 -----
 Structure from the checkpoint file:  "E2SN2_130_mol2.chk"
 Charge = -1 Multiplicity = 1

                         Standard orientation:
 ---------------------------------------------------------------------
 Center     Atomic      Atomic             Coordinates (Angstroms)
 Number     Number       Type             X           Y           Z
 ---------------------------------------------------------------------
      1          6           0        0.251182   -0.536488   -0.156454
      2          6           0       -1.099638    0.090234   -0.565645
      3         17           0        0.269111   -0.885505    1.586361
      4          1           0       -0.993084    0.297465   -1.634735
      5          7           0        0.569719   -1.645696   -0.957415
      6          1           0       -0.143845   -1.768050   -1.729717
      7          1           0        0.614029   -2.492067   -0.409519
      8          7           0        1.353628    0.547973   -0.408959
      9          8           0        2.245613    0.733180    0.407927
     10          8           0        1.264893    1.102503   -1.501227
     11          6           0       -1.330230    1.353190    0.135027
     12          7           0       -1.545190    2.363710    0.694499
     13          7           0       -2.152604   -0.879303   -0.306359
     14          1           0       -3.040748   -0.390572   -0.263154
     15          1           0       -2.150216   -1.465598   -1.169421
     16          1           0       -1.451812   -1.961453   -2.645139
 ---------------------------------------------------------------------

 SCF Done:  E(RHF) =  -944.548136828     A.U. after    2 cycles

 The electronic state is 1-A.
 Alpha  occ. eigenvalues -- -105.46702 -20.48570 -20.48101 -15.67207 -15.42036
 Alpha  occ. eigenvalues --  -15.38130 -15.37441 -11.29756 -11.20821 -11.18821
 Alpha  occ. eigenvalues --  -10.51631  -7.68583  -7.68180  -7.68161  -1.55448
 Alpha  occ. eigenvalues --   -1.39492  -1.15854  -1.12198  -1.07387  -0.99134
 Alpha  occ. eigenvalues --   -0.92354  -0.86850  -0.73562  -0.68253  -0.64618
 Alpha  occ. eigenvalues --   -0.63927  -0.62692  -0.57626  -0.57554  -0.54153
 Alpha  occ. eigenvalues --   -0.52479  -0.48528  -0.47235  -0.42112  -0.40225
 Alpha  occ. eigenvalues --   -0.39859  -0.38833  -0.36977  -0.35062  -0.34669
 Alpha  occ. eigenvalues --   -0.33896  -0.32076  -0.13772
 Alpha virt. eigenvalues --    0.13612   0.14125   0.15339   0.16937   0.17233
 Alpha virt. eigenvalues --    0.17642   0.19022   0.19525   0.20153   0.21242
 Alpha virt. eigenvalues --    0.22655   0.23463   0.24220   0.25154   0.25311

 Mulliken charges:
               1
     1  C   -2.319343
     2  C    0.111018
     3  Cl   0.241936
     4  H    0.321383
     5  N    0.783895
     6  H    0.175218
     7  H    0.266087
     8  N    3.071087
     9  O   -1.443040
    10  O   -1.499357
    11  C   -1.994382
    12  N    0.997239
    13  N    0.644274
    14  H    0.211972
    15  H    0.122650
    16  H   -0.690637
 Sum of Mulliken charges =  -1.00000

 Dipole moment (field-independent basis, Debye):
    X=              1.9557    Y=              1.0539    Z=              5.4986  Tot=              5.9304

 Test job not archived.
 1\1\GINC-SE334\SP\RHF\Aug-CC-pVDZ\C3H6Cl1N4O2(1-)\OHZDE\09-Apr-2025\0\
 \#t hf aug-cc-pvdz iop(5/13=1,5/36=2,99/5=2) pseudo=read geom=check gu
 ess=(read,tcheck) scf=(maxcycle=1)\\title\\-1,1\C,0,-0.308677,0.016171
 ,-1.408546\C,0,0.033218,-0.175752,0.085177\Cl,0,-2.015739,0.473502,-1.
 599137\H,0,1.082099,-0.487345,0.08852\N,0,0.58573,0.900844,-2.033635\H
 ,0,1.358593,1.185167,-1.368475\H,0,0.111356,1.728066,-2.364044\N,0,-0.
 13747,-1.379529,-2.099858\O,0,-0.9583,-1.776783,-2.915742\O,0,0.903417
 ,-1.958573,-1.800377\C,0,-0.773323,-1.241406,0.679351\N,0,-1.417804,-2

 Normal termination of Gaussian 16 at Wed Apr  9 02:36:37 2025.
