 Gaussian 16, Revision C.01,

 ----------------------------------------------------------------------
 #t hf aug-cc-pvdz symm=none int=(grid=ultrafine) guess=(read,tcheck) s
 table=(opt,rrhf)
 ----------------------------------------------------------------------
 -----
 title
 -----
 Symbolic Z-matrix:
 Charge = -1 Multiplicity = 1

 SCF Done:  E(RHF) =  -419.416144305     A.U. after   17 cycles
 Normal termination of Gaussian 16 at Wed Apr  9 02:58:24 2025.
 Gaussian 16:  ES64L-G16RevC.01  3-Jul-2019

 ----------------------------------------------------------------------
 #t hf aug-cc-pvdz iop(5/13=1,5/36=2,99/5=2) pseudo=read geom=check gue
 ss=(read,tcheck) scf=(maxcycle=1)
 ----------------------------------------------------------------------
 -----
 title
 -----
 Structure from the checkpoint file:  "E2SN2_393_mol1.chk"
 Charge = -1 Multiplicity = 1

                         Standard orientation:
 ---------------------------------------------------------------------
 Center     Atomic      Atomic             Coordinates (Angstroms)
 Number     Number       Type             X           Y           Z
 ---------------------------------------------------------------------
      1          6           0        0.330166   -0.389002   -0.272096
      2          1           0       -1.217095    0.233379   -1.607607
      3          9           0        0.121472   -0.719564    1.345783
      4          1           0        0.872766    0.191143   -1.968715
      5          6           0       -1.034218    0.284496   -0.537712
      6          7           0        0.492864   -1.768567   -0.675438
      7          1           0        0.993098   -2.226318    0.077544
      8          1           0        1.040563   -1.775480   -1.522128
      9          6           0        1.503679    0.444624   -0.121488
     10          7           0        2.448612    1.058266    0.243494
     11          6           0       -0.969347    1.747322   -0.105168
     12          1           0       -0.730474    1.803200    0.959813
     13          1           0       -0.207371    2.292006   -0.667549
     14          1           0       -1.938250    2.230607   -0.277102
     15          7           0       -2.113252   -0.469629    0.123642
     16          1           0       -2.907899    0.154642    0.217493
     17          1           0       -1.777835   -0.692230    1.053099
 ---------------------------------------------------------------------

 SCF Done:  E(RHF) =  -419.842113525     A.U. after    2 cycles

 The electronic state is 1-A.
 Alpha  occ. eigenvalues --  -26.22547 -15.35406 -15.34070 -15.33534 -11.24059
 Alpha  occ. eigenvalues --  -11.13199 -11.12900 -11.09171  -1.31872  -1.07014
 Alpha  occ. eigenvalues --   -1.04133  -1.03153  -0.88510  -0.79804  -0.70194
 Alpha  occ. eigenvalues --   -0.59765  -0.57462  -0.55690  -0.49360  -0.48627
 Alpha  occ. eigenvalues --   -0.44563  -0.43826  -0.42405  -0.40465  -0.38996
 Alpha  occ. eigenvalues --   -0.37718  -0.36555  -0.33516  -0.31968  -0.31162
 Alpha  occ. eigenvalues --   -0.28939  -0.12525
 Alpha virt. eigenvalues --    0.12450   0.13763   0.14231   0.14550   0.16365
 Alpha virt. eigenvalues --    0.16461   0.17277   0.17850   0.19354   0.21093
 Alpha virt. eigenvalues --    0.23488   0.24427   0.24899   0.25764   0.26535

 Mulliken charges:
               1
     1  C   -0.145191
     2  H    0.058356
     3  F   -0.965611
     4  H   -0.292900
     5  C   -1.427941
     6  N    0.662140
     7  H    0.306184
     8  H    0.302974
     9  C   -2.290516
    10  N    1.076459
    11  C    0.113323
    12  H    0.309573
    13  H    0.309699
    14  H    0.016676
    15  N    0.534197
    16  H    0.137799
    17  H    0.294778
 Sum of Mulliken charges =  -1.00000

 Dipole moment (field-independent basis, Debye):
    X=             -4.9052    Y=             -0.4832    Z=              1.5685  Tot=              5.1724

 Test job not archived.
 1\1\GINC-SE188\SP\RHF\Aug-CC-pVDZ\C4H9F1N3(1-)\OHZDE\09-Apr-2025\0\\#t
  hf aug-cc-pvdz iop(5/13=1,5/36=2,99/5=2) pseudo=read geom=check guess
 =(read,tcheck) scf=(maxcycle=1)\\title\\-1,1\C,0,0.43626876,-0.0305153
 6,-0.09036533\H,0,1.6409621,1.71390299,-0.35622306\F,0,-1.21286066,-0.
 0959394,-0.30587912\H,0,2.21494134,-0.14636749,0.48617892\C,0,0.601777
 89,1.50492708,-0.11714774\N,0,0.76228366,-0.76654338,-1.29216918\H,0,0
 .03709616,-1.46582177,-1.40109629\H,0,1.6592617,-1.20394672,-1.1472069
 4\C,0,0.46460636,-0.71449986,1.18482537\N,0,0.24177653,-1.30665248,2.1

 Normal termination of Gaussian 16 at Wed Apr  9 02:58:31 2025.
