 Gaussian 16, Revision C.01,

 ----------------------------------------------------------------------
 #t hf aug-cc-pvdz symm=none int=(grid=ultrafine) guess=(read,tcheck) s
 table=(opt,rrhf)
 ----------------------------------------------------------------------
 -----
 title
 -----
 Symbolic Z-matrix:
 Charge = -1 Multiplicity = 1

 SCF Done:  E(RHF) =  -1175.36269175     A.U. after   18 cycles
 Normal termination of Gaussian 16 at Wed Apr  9 02:51:09 2025.
 Gaussian 16:  ES64L-G16RevC.01  3-Jul-2019

 ----------------------------------------------------------------------
 #t hf aug-cc-pvdz iop(5/13=1,5/36=2,99/5=2) pseudo=read geom=check gue
 ss=(read,tcheck) scf=(maxcycle=1)
 ----------------------------------------------------------------------
 -----
 title
 -----
 Structure from the checkpoint file:  "E2SN2_280_mol1.chk"
 Charge = -1 Multiplicity = 1

                         Standard orientation:
 ---------------------------------------------------------------------
 Center     Atomic      Atomic             Coordinates (Angstroms)
 Number     Number       Type             X           Y           Z
 ---------------------------------------------------------------------
      1          6           0       -0.907319    0.014854    0.461623
      2          1           0        0.846937   -0.439865    1.550155
      3         17           0       -0.947290    1.782640   -0.941610
      4          9           0       -0.872966   -1.628058    1.401716
      5          6           0        0.596190   -0.207441    0.522545
      6          6           0       -1.792185   -0.689073   -0.436191
      7          7           0       -2.615107   -1.221449   -1.086844
      8          6           0       -1.525722    0.789826    1.607234
      9          1           0       -1.686590    0.098374    2.431955
     10          1           0       -0.858497    1.598583    1.903256
     11          1           0       -2.467763    1.227955    1.284158
     12          7           0        1.493072    0.960949    0.167402
     13          8           0        2.146947    0.919709   -0.865246
     14          8           0        1.539946    1.835807    1.025114
     15          7           0        1.079068   -1.358568   -0.291100
     16          8           0        2.025571   -1.976399    0.192025
     17          8           0        0.562728   -1.560733   -1.381278
 ---------------------------------------------------------------------

 SCF Done:  E(RHF) =  -1176.11738639     A.U. after    2 cycles

 The electronic state is 1-A.
 Alpha  occ. eigenvalues -- -105.37136 -26.21297 -20.50596 -20.50101 -20.49992
 Alpha  occ. eigenvalues --  -20.49403 -15.70521 -15.69830 -15.39391 -11.30945
 Alpha  occ. eigenvalues --  -11.29044 -11.18070 -11.14728 -10.41985  -7.58826
 Alpha  occ. eigenvalues --   -7.58636  -7.58616  -1.58155  -1.56600  -1.41888
 Alpha  occ. eigenvalues --   -1.41017  -1.29816  -1.11051  -1.09246  -0.98309
 Alpha  occ. eigenvalues --   -0.91404  -0.84298  -0.81734  -0.77425  -0.71733
 Alpha  occ. eigenvalues --   -0.71176  -0.68029  -0.64960  -0.64144  -0.62285
 Alpha  occ. eigenvalues --   -0.55520  -0.52842  -0.51238  -0.48816  -0.46809
 Alpha  occ. eigenvalues --   -0.44394  -0.42486  -0.41198  -0.39536  -0.39340
 Alpha  occ. eigenvalues --   -0.37147  -0.36774  -0.36453  -0.35816  -0.34587
 Alpha  occ. eigenvalues --   -0.34109  -0.29480  -0.28777  -0.28204
 Alpha virt. eigenvalues --    0.12741   0.13399   0.14491   0.14816   0.15241
 Alpha virt. eigenvalues --    0.16004   0.18609   0.18992   0.20573   0.21497
 Alpha virt. eigenvalues --    0.21663   0.22690   0.23821   0.24173   0.24929

 Mulliken charges:
               1
     1  C    0.006118
     2  H    0.254397
     3  Cl  -0.565933
     4  F   -0.854472
     5  C   -0.419203
     6  C   -2.022505
     7  N    1.087902
     8  C    0.287939
     9  H    0.364679
    10  H    0.304362
    11  H    0.202277
    12  N    2.896888
    13  O   -1.437265
    14  O   -1.475773
    15  N    3.489681
    16  O   -1.574422
    17  O   -1.544673
 Sum of Mulliken charges =  -1.00000

 Dipole moment (field-independent basis, Debye):
    X=              2.7673    Y=              2.1286    Z=              4.0572  Tot=              5.3525

 Test job not archived.
 1\1\GINC-SE365\SP\RHF\Aug-CC-pVDZ\C4H4Cl1F1N3O4(1-)\OHZDE\09-Apr-2025\
 0\\#t hf aug-cc-pvdz iop(5/13=1,5/36=2,99/5=2) pseudo=read geom=check
 guess=(read,tcheck) scf=(maxcycle=1)\\title\\-1,1\C,0,0.45982502,-0.10
 11158,0.04763407\H,0,1.56107534,1.59392476,0.66664365\Cl,0,-1.73120298
 ,-0.28149957,0.56006365\F,0,2.20862192,0.09740681,-0.64979901\C,0,0.61
 227974,1.40656618,0.17924103\C,0,0.20092967,-0.78097979,-1.19949409\N,
 0,0.03078975,-1.44900327,-2.15278994\C,0,0.90280858,-0.93405601,1.2331
 312\H,0,1.98144311,-1.06264339,1.16861155\H,0,0.62674471,-0.42877872,2

 Normal termination of Gaussian 16 at Wed Apr  9 02:51:20 2025.
