 Gaussian 16, Revision C.01,

 ----------------------------------------------------------------------
 #t hf aug-cc-pvdz symm=none int=(grid=ultrafine) guess=(read,tcheck) s
 table=(opt,rrhf)
 ----------------------------------------------------------------------
 -----
 title
 -----
 Symbolic Z-matrix:
 Charge = -1 Multiplicity = 1

 SCF Done:  E(RHF) =  -726.830962549     A.U. after   14 cycles
 Normal termination of Gaussian 16 at Wed Apr  9 02:56:21 2025.
 Gaussian 16:  ES64L-G16RevC.01  3-Jul-2019

 ----------------------------------------------------------------------
 #t hf aug-cc-pvdz iop(5/13=1,5/36=2,99/5=2) pseudo=read geom=check gue
 ss=(read,tcheck) scf=(maxcycle=1)
 ----------------------------------------------------------------------
 -----
 title
 -----
 Structure from the checkpoint file:  "E2SN2_365_mol2.chk"
 Charge = -1 Multiplicity = 1

                         Standard orientation:
 ---------------------------------------------------------------------
 Center     Atomic      Atomic             Coordinates (Angstroms)
 Number     Number       Type             X           Y           Z
 ---------------------------------------------------------------------
      1          6           0        0.259319    0.388599    0.124181
      2          6           0       -0.855390   -0.473001   -0.526884
      3         17           0        1.857848   -0.547873   -0.219474
      4          1           0       -0.516391   -0.726517   -1.539566
      5          6           0        0.404162    1.732696   -0.562135
      6          1           0        1.315011    2.216642   -0.208734
      7          1           0        0.449962    1.621240   -1.649242
      8          1           0       -0.451405    2.349604   -0.273845
      9          7           0        0.157299    0.608688    1.522724
     10          1           0       -0.030807   -0.264693    2.002334
     11          1           0       -0.670254    1.241820    1.688295
     12          7           0       -2.118324    0.253607   -0.633559
     13          1           0       -2.289631    0.780129    0.239830
     14          1           0       -2.028486    0.963319   -1.352324
     15          6           0       -1.119879   -1.763486    0.239005
     16          1           0       -1.799726   -2.385861   -0.346769
     17          1           0       -1.622597   -1.534556    1.181788
     18          1           0       -0.202972   -2.321368    0.442431
     19          1           0       -2.138216    2.029169    1.677706
 ---------------------------------------------------------------------

 SCF Done:  E(RHF) =  -727.207376015     A.U. after    2 cycles

 The electronic state is 1-A.
 Alpha  occ. eigenvalues -- -105.40857 -15.33771 -15.33583 -11.19783 -11.13713
 Alpha  occ. eigenvalues --  -11.10128 -11.10074 -10.45748  -7.62649  -7.62354
 Alpha  occ. eigenvalues --   -7.62347  -1.09100  -1.02988  -0.92135  -0.87111
 Alpha  occ. eigenvalues --   -0.84638  -0.73347  -0.64008  -0.56394  -0.55861
 Alpha  occ. eigenvalues --   -0.53984  -0.48668  -0.48311  -0.44183  -0.42174
 Alpha  occ. eigenvalues --   -0.41350  -0.38726  -0.37531  -0.36982  -0.33784
 Alpha  occ. eigenvalues --   -0.31274  -0.30840  -0.26754  -0.10352
 Alpha virt. eigenvalues --    0.12546   0.12796   0.13633   0.14310   0.14725
 Alpha virt. eigenvalues --    0.16030   0.16211   0.17868   0.18458   0.19731
 Alpha virt. eigenvalues --    0.20995   0.22226   0.22521   0.23138   0.24420

 Mulliken charges:
               1
     1  C   -2.442232
     2  C   -1.432057
     3  Cl  -0.205097
     4  H    0.004024
     5  C    0.181305
     6  H    0.121921
     7  H    0.220911
     8  H    0.175742
     9  N    1.113222
    10  H    0.246236
    11  H    0.064201
    12  N    0.827099
    13  H    0.112560
    14  H    0.257373
    15  C    0.018319
    16  H    0.083083
    17  H    0.239988
    18  H    0.196079
    19  H   -0.782677
 Sum of Mulliken charges =  -1.00000

 Dipole moment (field-independent basis, Debye):
    X=              5.3790    Y=             -5.6539    Z=             -5.8378  Tot=              9.7458

 Test job not archived.
 1\1\GINC-SE453\SP\RHF\Aug-CC-pVDZ\C4H12Cl1N2(1-)\OHZDE\09-Apr-2025\0\\
 #t hf aug-cc-pvdz iop(5/13=1,5/36=2,99/5=2) pseudo=read geom=check gue
 ss=(read,tcheck) scf=(maxcycle=1)\\title\\-1,1\C,0,-0.066983,0.00409,-
 0.028054\C,0,-0.323659,-0.344649,-1.518462\Cl,0,1.793919,-0.18448,0.19
 967\H,0,0.411374,0.214767,-2.111333\C,0,-0.381734,1.456538,0.271837\H,
 0,-0.00434,1.70514,1.264063\H,0,0.072408,2.122675,-0.467309\H,0,-1.469
 355,1.569455,0.275395\N,0,-0.723584,-0.804622,0.936119\H,0,-0.605915,-
 1.785923,0.709392\H,0,-1.755705,-0.5923,0.883583\N,0,-1.661248,0.05187

 Normal termination of Gaussian 16 at Wed Apr  9 02:56:29 2025.
