 Gaussian 16, Revision C.01,

 ----------------------------------------------------------------------
 #t hf aug-cc-pvdz symm=none int=(grid=ultrafine) guess=(read,tcheck) s
 table=(opt,rrhf)
 ----------------------------------------------------------------------
 -----
 title
 -----
 Symbolic Z-matrix:
 Charge = -1 Multiplicity = 1

 SCF Done:  E(RHF) =  -987.978599953     A.U. after   16 cycles
 Normal termination of Gaussian 16 at Wed Apr  9 02:51:29 2025.
 Gaussian 16:  ES64L-G16RevC.01  3-Jul-2019

 ----------------------------------------------------------------------
 #t hf aug-cc-pvdz iop(5/13=1,5/36=2,99/5=2) pseudo=read geom=check gue
 ss=(read,tcheck) scf=(maxcycle=1)
 ----------------------------------------------------------------------
 -----
 title
 -----
 Structure from the checkpoint file:  "E2SN2_292_mol2.chk"
 Charge = -1 Multiplicity = 1

                         Standard orientation:
 ---------------------------------------------------------------------
 Center     Atomic      Atomic             Coordinates (Angstroms)
 Number     Number       Type             X           Y           Z
 ---------------------------------------------------------------------
      1          6           0        0.222950    0.747622    0.512350
      2          6           0        0.072406   -0.687317    0.027923
      3          9           0        1.234071    0.736466    1.500945
      4          1           0       -0.396854   -1.273486    0.813124
      5          1           0       -0.532605   -0.740703   -0.876114
      6          6           0        0.750731    1.665581   -0.529809
      7          7           0        1.093496    2.475622   -1.308282
      8          7           0       -0.997287    1.177745    1.054751
      9          1           0       -1.147305    2.170326    0.952371
     10          1           0       -1.804377    0.645919    0.697080
     11          7           0        1.407103   -1.282408   -0.241162
     12          8           0        1.769873   -2.220708    0.465651
     13          8           0        2.058566   -0.798852   -1.165960
     14         17           0       -3.214866   -0.601517   -0.358378
 ---------------------------------------------------------------------

 SCF Done:  E(RHF) =  -988.564580075     A.U. after    2 cycles

 The electronic state is 1-A.
 Alpha  occ. eigenvalues -- -105.30452 -26.36832 -20.50023 -20.49696 -15.69266
 Alpha  occ. eigenvalues --  -15.43529 -15.40111 -11.31869 -11.21340 -11.20009
 Alpha  occ. eigenvalues --  -10.35080  -7.51856  -7.51812  -7.51798  -1.56883
 Alpha  occ. eigenvalues --   -1.49371  -1.40790  -1.14842  -1.12052  -1.03690
 Alpha  occ. eigenvalues --   -0.87855  -0.79455  -0.75971  -0.71543  -0.67426
 Alpha  occ. eigenvalues --   -0.67064  -0.65474  -0.60886  -0.59641  -0.55880
 Alpha  occ. eigenvalues --   -0.53546  -0.51792  -0.49042  -0.46447  -0.42419
 Alpha  occ. eigenvalues --   -0.41335  -0.39665  -0.38919  -0.36891  -0.35450
 Alpha  occ. eigenvalues --   -0.23548  -0.22966  -0.22787
 Alpha virt. eigenvalues --    0.13479   0.14868   0.15508   0.16276   0.17718
 Alpha virt. eigenvalues --    0.18387   0.18619   0.21087   0.21417   0.21643
 Alpha virt. eigenvalues --    0.23550   0.23707   0.24286   0.24831   0.26022

 Mulliken charges:
               1
     1  C    0.799101
     2  C   -0.228814
     3  F   -0.972889
     4  H    0.109306
     5  H    0.211002
     6  C   -1.751410
     7  N    0.934875
     8  N    0.398839
     9  H    0.233105
    10  H    0.172762
    11  N    2.859490
    12  O   -1.410893
    13  O   -1.414155
    14  Cl  -0.940318
 Sum of Mulliken charges =  -1.00000

 Dipole moment (field-independent basis, Debye):
    X=              5.8717    Y=              0.8957    Z=              2.4042  Tot=              6.4077

 Test job not archived.
 1\1\GINC-SE149\SP\RHF\Aug-CC-pVDZ\C3H4Cl1F1N3O2(1-)\OHZDE\09-Apr-2025\
 0\\#t hf aug-cc-pvdz iop(5/13=1,5/36=2,99/5=2) pseudo=read geom=check
 guess=(read,tcheck) scf=(maxcycle=1)\\title\\-1,1\C,0,0.043526,0.05571
 1,0.031129\C,0,-0.58487,-0.045784,-1.351333\F,0,1.405541,-0.29456,-0.1
 17318\H,0,-0.658088,-1.09452,-1.625436\H,0,-1.576045,0.405122,-1.37197
 8\C,0,0.085853,1.445353,0.554962\N,0,0.096091,2.496797,1.078446\N,0,-0
 .607378,-0.836622,0.896142\H,0,-0.615856,-0.522324,1.854969\H,0,-1.558
 336,-1.078437,0.580919\N,0,0.277801,0.623482,-2.359221\O,0,0.793027,-0

 Normal termination of Gaussian 16 at Wed Apr  9 02:51:36 2025.
