 Gaussian 16, Revision C.01,

 ----------------------------------------------------------------------
 #t hf aug-cc-pvdz symm=none int=(grid=ultrafine) guess=(read,tcheck) s
 table=(opt,rrhf)
 ----------------------------------------------------------------------
 -----
 title
 -----
 Symbolic Z-matrix:
 Charge = -1 Multiplicity = 1

 SCF Done:  E(RHF) =  -740.497872843     A.U. after   16 cycles
 Normal termination of Gaussian 16 at Wed Apr  9 02:56:28 2025.
 Gaussian 16:  ES64L-G16RevC.01  3-Jul-2019

 ----------------------------------------------------------------------
 #t hf aug-cc-pvdz iop(5/13=1,5/36=2,99/5=2) pseudo=read geom=check gue
 ss=(read,tcheck) scf=(maxcycle=1)
 ----------------------------------------------------------------------
 -----
 title
 -----
 Structure from the checkpoint file:  "E2SN2_369_mol2.chk"
 Charge = -1 Multiplicity = 1

                         Standard orientation:
 ---------------------------------------------------------------------
 Center     Atomic      Atomic             Coordinates (Angstroms)
 Number     Number       Type             X           Y           Z
 ---------------------------------------------------------------------
      1          6           0        0.476231   -0.730538   -0.000215
      2          6           0       -0.720784   -0.034813   -0.686402
      3         17           0        1.963726    0.332473   -0.321638
      4          1           0       -0.419139    0.285194   -1.689669
      5          1           0        0.668188   -1.649629   -0.558188
      6          7           0        0.334967   -1.048426    1.357811
      7          1           0       -0.082630   -0.279715    1.871538
      8          1           0       -0.299732   -1.893490    1.418660
      9          6           0       -1.073376    1.188668    0.056768
     10          7           0       -1.346253    2.156912    0.662271
     11          7           0       -1.881162   -0.909975   -0.783100
     12          1           0       -1.886270   -1.576388    0.013995
     13          1           0       -1.751113   -1.498520   -1.598938
     14          1           0       -1.457938   -2.968982    1.130668
 ---------------------------------------------------------------------

 SCF Done:  E(RHF) =  -740.867510272     A.U. after    2 cycles

 The electronic state is 1-A.
 Alpha  occ. eigenvalues -- -105.43197 -15.40394 -15.36962 -15.35042 -11.21949
 Alpha  occ. eigenvalues --  -11.19939 -11.17366 -10.48069  -7.64983  -7.64656
 Alpha  occ. eigenvalues --   -7.64651  -1.12542  -1.09674  -1.05540  -0.93950
 Alpha  occ. eigenvalues --   -0.86291  -0.74241  -0.62027  -0.58449  -0.57230
 Alpha  occ. eigenvalues --   -0.54931  -0.50061  -0.49060  -0.46479  -0.41699
 Alpha  occ. eigenvalues --   -0.38556  -0.37855  -0.36240  -0.33411  -0.32798
 Alpha  occ. eigenvalues --   -0.29844  -0.11827
 Alpha virt. eigenvalues --    0.12541   0.14445   0.14920   0.16248   0.17443
 Alpha virt. eigenvalues --    0.18364   0.19515   0.20344   0.21439   0.22019
 Alpha virt. eigenvalues --    0.23498   0.24247   0.25018   0.25128   0.25906

 Mulliken charges:
               1
     1  C   -1.361139
     2  C   -0.291087
     3  Cl  -0.096646
     4  H    0.101158
     5  H    0.133917
     6  N    0.653058
     7  H    0.238946
     8  H    0.150603
     9  C   -1.625053
    10  N    0.894958
    11  N    0.605857
    12  H    0.099647
    13  H    0.249572
    14  H   -0.753791
 Sum of Mulliken charges =  -1.00000

 Dipole moment (field-independent basis, Debye):
    X=              4.4824    Y=              5.0196    Z=             -6.1304  Tot=              9.1033

 Test job not archived.
 1\1\GINC-SE060\SP\RHF\Aug-CC-pVDZ\C3H7Cl1N3(1-)\OHZDE\09-Apr-2025\0\\#
 t hf aug-cc-pvdz iop(5/13=1,5/36=2,99/5=2) pseudo=read geom=check gues
 s=(read,tcheck) scf=(maxcycle=1)\\title\\-1,1\C,0,-0.034249,-0.007681,
 -0.057381\C,0,-0.27786,-0.064833,-1.582215\Cl,0,1.803887,0.08837,0.183
 402\H,0,0.422481,-0.779487,-2.028007\H,0,-0.314249,-0.984552,0.342909\
 N,0,-0.715694,0.98576,0.659521\H,0,-0.681724,1.875549,0.173372\H,0,-1.
 723879,0.674955,0.746947\C,0,0.024122,1.248433,-2.180269\N,0,0.262733,
 2.301545,-2.641366\N,0,-1.643427,-0.456101,-1.904508\H,0,-2.287301,-0.

 Normal termination of Gaussian 16 at Wed Apr  9 02:56:34 2025.
