 Gaussian 16, Revision C.01,

 ----------------------------------------------------------------------
 #t hf aug-cc-pvdz symm=none int=(grid=ultrafine) guess=(read,tcheck) s
 table=(opt,rrhf)
 ----------------------------------------------------------------------
 -----
 title
 -----
 Symbolic Z-matrix:
 Charge = -1 Multiplicity = 1

 SCF Done:  E(RHF) =  -1055.74532392     A.U. after   17 cycles
 Normal termination of Gaussian 16 at Wed Apr  9 03:01:18 2025.
 Gaussian 16:  ES64L-G16RevC.01  3-Jul-2019

 ----------------------------------------------------------------------
 #t hf aug-cc-pvdz iop(5/13=1,5/36=2,99/5=2) pseudo=read geom=check gue
 ss=(read,tcheck) scf=(maxcycle=1)
 ----------------------------------------------------------------------
 -----
 title
 -----
 Structure from the checkpoint file:  "E2SN2_48_mol1.chk"
 Charge = -1 Multiplicity = 1

                         Standard orientation:
 ---------------------------------------------------------------------
 Center     Atomic      Atomic             Coordinates (Angstroms)
 Number     Number       Type             X           Y           Z
 ---------------------------------------------------------------------
      1          6           0       -0.563993    0.431757    0.251101
      2          6           0        0.924336    0.345072    0.491320
      3         17           0       -0.951542    1.138551   -1.362489
      4          1           0        1.033440    0.613042    2.893854
      5          1           0        1.011820    0.094620    1.690282
      6          7           0       -1.245427   -0.945204    0.354398
      7          8           0       -2.082864   -1.284115   -0.465091
      8          8           0       -0.931679   -1.561041    1.365254
      9          7           0       -1.208978    1.206696    1.274949
     10          1           0       -1.140910    2.186255    1.033434
     11          1           0       -0.650690    1.061443    2.130938
     12          7           0        1.604324    1.584495    0.468828
     13          1           0        1.672951    1.904154    1.438478
     14          1           0        1.173370    2.273814   -0.131126
     15          7           0        1.599772   -0.672637   -0.325691
     16          8           0        0.892592   -1.487767   -0.939583
     17          8           0        2.830245   -0.712467   -0.305013
 ---------------------------------------------------------------------

 SCF Done:  E(RHF) =  -1056.40849147     A.U. after    2 cycles

 The electronic state is 1-A.
 Alpha  occ. eigenvalues -- -105.46835 -20.47391 -20.46949 -20.45434 -20.45271
 Alpha  occ. eigenvalues --  -15.67039 -15.64967 -15.40147 -15.38141 -11.29542
 Alpha  occ. eigenvalues --  -11.18708 -10.51723  -7.68664  -7.68280  -7.68273
 Alpha  occ. eigenvalues --   -1.54872  -1.52192  -1.38902  -1.36011  -1.16283
 Alpha  occ. eigenvalues --   -1.09055  -0.99425  -0.94890  -0.91309  -0.77530
 Alpha  occ. eigenvalues --   -0.71496  -0.67631  -0.65863  -0.64213  -0.62947
 Alpha  occ. eigenvalues --   -0.61352  -0.61234  -0.59060  -0.56834  -0.53960
 Alpha  occ. eigenvalues --   -0.49418  -0.41630  -0.41057  -0.39511  -0.37502
 Alpha  occ. eigenvalues --   -0.36858  -0.36568  -0.35085  -0.34319  -0.33579
 Alpha  occ. eigenvalues --   -0.32940  -0.31200  -0.14667
 Alpha virt. eigenvalues --    0.12529   0.13949   0.15420   0.16590   0.17378
 Alpha virt. eigenvalues --    0.18462   0.19184   0.19335   0.19940   0.22409
 Alpha virt. eigenvalues --    0.23079   0.24164   0.24386   0.25324   0.26395

 Mulliken charges:
               1
     1  C   -1.904914
     2  C   -2.120120
     3  Cl   0.095099
     4  H   -0.431171
     5  H    0.229161
     6  N    3.461463
     7  O   -1.547980
     8  O   -1.565974
     9  N    0.594438
    10  H    0.270187
    11  H    0.319585
    12  N    0.965998
    13  H    0.331614
    14  H    0.199938
    15  N    3.147966
    16  O   -1.487514
    17  O   -1.557777
 Sum of Mulliken charges =  -1.00000

 Dipole moment (field-independent basis, Debye):
    X=             -3.0111    Y=              3.7308    Z=             -4.7194  Tot=              6.7274

 Test job not archived.
 1\1\GINC-SE435\SP\RHF\Aug-CC-pVDZ\C2H6Cl1N4O4(1-)\OHZDE\09-Apr-2025\0\
 \#t hf aug-cc-pvdz iop(5/13=1,5/36=2,99/5=2) pseudo=read geom=check gu
 ess=(read,tcheck) scf=(maxcycle=1)\\title\\-1,1\C,0,-0.2210128,0.00037
 448,-0.3556582\C,0,-0.00993811,-0.06051706,1.13835706\Cl,0,1.31976048,
 0.28836807,-1.24812821\H,0,-2.12062166,0.79995326,1.95106276\H,0,-1.14
 804546,-0.00365674,1.59592696\N,0,-0.86362656,-1.28883179,-0.89975186\
 O,0,-0.44860345,-1.80170184,-1.92563839\O,0,-1.84997302,-1.63847539,-0
 .26383363\N,0,-1.16802303,1.0237552,-0.70302595\H,0,-0.68325792,1.9091

 Normal termination of Gaussian 16 at Wed Apr  9 03:01:28 2025.
