 Gaussian 16, Revision C.01,

 ----------------------------------------------------------------------
 #t hf aug-cc-pvdz symm=none int=(grid=ultrafine) guess=(read,tcheck) s
 table=(opt,rrhf)
 ----------------------------------------------------------------------
 -----
 title
 -----
 Symbolic Z-matrix:
 Charge = -1 Multiplicity = 1

 SCF Done:  E(RHF) =  -935.178189479     A.U. after   16 cycles
 Normal termination of Gaussian 16 at Wed Apr  9 03:01:30 2025.
 Gaussian 16:  ES64L-G16RevC.01  3-Jul-2019

 ----------------------------------------------------------------------
 #t hf aug-cc-pvdz iop(5/13=1,5/36=2,99/5=2) pseudo=read geom=check gue
 ss=(read,tcheck) scf=(maxcycle=1)
 ----------------------------------------------------------------------
 -----
 title
 -----
 Structure from the checkpoint file:  "E2SN2_55_mol1.chk"
 Charge = -1 Multiplicity = 1

                         Standard orientation:
 ---------------------------------------------------------------------
 Center     Atomic      Atomic             Coordinates (Angstroms)
 Number     Number       Type             X           Y           Z
 ---------------------------------------------------------------------
      1          6           0       -0.394053   -0.057896   -0.528625
      2          6           0        0.699428   -0.901919   -0.070929
      3         17           0       -2.139340   -0.552542    0.057324
      4          9           0        2.735315    0.551037   -0.113159
      5          1           0        1.765978   -0.177546   -0.313234
      6          1           0       -0.504186   -0.025536   -1.608880
      7          6           0        0.699499   -2.243983   -0.777347
      8          1           0        0.613532   -2.136768   -1.865278
      9          1           0        1.639503   -2.754931   -0.556701
     10          1           0       -0.121105   -2.887274   -0.428147
     11          7           0        0.838313   -1.062170    1.372134
     12          1           0       -0.050196   -0.910715    1.838371
     13          1           0        1.478304   -0.337742    1.677216
     14          7           0       -0.260754    1.376779   -0.102521
     15          8           0       -0.103382    2.194169   -1.009279
     16          8           0       -0.289499    1.641446    1.093617
 ---------------------------------------------------------------------

 SCF Done:  E(RHF) =  -935.726345849     A.U. after    2 cycles

 The electronic state is 1-A.
 Alpha  occ. eigenvalues -- -105.43675 -26.14270 -20.46529 -20.46364 -15.65949
 Alpha  occ. eigenvalues --  -15.33292 -11.23691 -11.09502 -11.08721 -10.48460
 Alpha  occ. eigenvalues --   -7.65370  -7.65049  -7.65041  -1.53504  -1.37476
 Alpha  occ. eigenvalues --   -1.22371  -1.06235  -0.99757  -0.89354  -0.86544
 Alpha  occ. eigenvalues --   -0.75503  -0.68615  -0.63626  -0.61361  -0.59813
 Alpha  occ. eigenvalues --   -0.56059  -0.50320  -0.47317  -0.43723  -0.41556
 Alpha  occ. eigenvalues --   -0.40322  -0.39621  -0.37163  -0.35963  -0.34147
 Alpha  occ. eigenvalues --   -0.33918  -0.32061  -0.30955  -0.30813  -0.28890
 Alpha  occ. eigenvalues --   -0.19249
 Alpha virt. eigenvalues --    0.13166   0.13710   0.14487   0.15180   0.16432
 Alpha virt. eigenvalues --    0.17455   0.17839   0.19094   0.19482   0.22269
 Alpha virt. eigenvalues --    0.24694   0.25140   0.25566   0.26421   0.26800

 Mulliken charges:
               1
     1  C   -0.477638
     2  C   -1.497500
     3  Cl  -0.228522
     4  F   -1.089365
     5  H    0.972801
     6  H    0.043738
     7  C   -0.144012
     8  H    0.179226
     9  H    0.093467
    10  H    0.194253
    11  N    0.457576
    12  H    0.192866
    13  H    0.249031
    14  N    3.009377
    15  O   -1.474075
    16  O   -1.481225
 Sum of Mulliken charges =  -1.00000

 Dipole moment (field-independent basis, Debye):
    X=             -5.6298    Y=             -2.0287    Z=             -1.1465  Tot=              6.0930

 Test job not archived.
 1\1\GINC-SE112\SP\RHF\Aug-CC-pVDZ\C3H7Cl1F1N2O2(1-)\OHZDE\09-Apr-2025\
 0\\#t hf aug-cc-pvdz iop(5/13=1,5/36=2,99/5=2) pseudo=read geom=check
 guess=(read,tcheck) scf=(maxcycle=1)\\title\\-1,1\C,0,-0.0981399,-0.00
 029918,-0.30045778\C,0,-0.11965971,0.11096541,1.15030742\Cl,0,1.604098
 12,-0.32996105,-1.09276148\F,0,-2.44316543,-0.50899596,1.83927124\H,0,
 -1.392134,-0.00743246,1.44653198\H,0,-0.43342074,0.89479159,-0.8167203
 1\C,0,0.49711266,1.41541528,1.61738563\H,0,0.09430126,2.27901348,1.074
 77984\H,0,0.27728995,1.54527479,2.67954103\H,0,1.5904078,1.41331885,1.

 Normal termination of Gaussian 16 at Wed Apr  9 03:01:37 2025.
