 Gaussian 16, Revision C.01,

 ----------------------------------------------------------------------
 #t hf aug-cc-pvdz symm=none int=(grid=ultrafine) guess=(read,tcheck) s
 table=(opt,rrhf)
 ----------------------------------------------------------------------
 -----
 title
 -----
 Symbolic Z-matrix:
 Charge = -1 Multiplicity = 1

 SCF Done:  E(RHF) =  -479.339659261     A.U. after   15 cycles
 Normal termination of Gaussian 16 at Wed Apr  9 02:51:02 2025.
 Gaussian 16:  ES64L-G16RevC.01  3-Jul-2019

 ----------------------------------------------------------------------
 #t hf aug-cc-pvdz iop(5/13=1,5/36=2,99/5=2) pseudo=read geom=check gue
 ss=(read,tcheck) scf=(maxcycle=1)
 ----------------------------------------------------------------------
 -----
 title
 -----
 Structure from the checkpoint file:  "E2SN2_301_mol1.chk"
 Charge = -1 Multiplicity = 1

                         Standard orientation:
 ---------------------------------------------------------------------
 Center     Atomic      Atomic             Coordinates (Angstroms)
 Number     Number       Type             X           Y           Z
 ---------------------------------------------------------------------
      1          6           0       -0.189586   -0.300544    0.181061
      2          1           0        0.903312   -1.375060   -1.291228
      3          9           0        0.663704    0.475003    1.542015
      4          9           0       -1.193535   -0.942520   -1.239316
      5          6           0        1.121702   -0.783423   -0.405748
      6          1           0        1.548022   -1.426936    0.374615
      7          6           0       -0.731075    1.004685   -0.196671
      8          7           0       -1.210793    2.053447   -0.422159
      9          7           0       -0.912142   -1.168910    1.068957
     10          1           0       -1.798032   -1.346027    0.618296
     11          1           0       -1.024451   -0.668973    1.939624
     12          7           0        1.971733    0.351116   -0.765415
     13          1           0        2.858472    0.001407   -1.108795
     14          1           0        2.133322    0.849364    0.101662
 ---------------------------------------------------------------------

 SCF Done:  E(RHF) =  -479.810054787     A.U. after    2 cycles

 The electronic state is 1-A.
 Alpha  occ. eigenvalues --  -26.18743 -26.15627 -15.35532 -15.35202 -15.34643
 Alpha  occ. eigenvalues --  -11.25698 -11.13634 -11.11972  -1.27837  -1.24075
 Alpha  occ. eigenvalues --   -1.06530  -1.04817  -1.03887  -0.84626  -0.73939
 Alpha  occ. eigenvalues --   -0.59418  -0.57248  -0.57100  -0.48889  -0.47451
 Alpha  occ. eigenvalues --   -0.45186  -0.44385  -0.41170  -0.35583  -0.34689
 Alpha  occ. eigenvalues --   -0.33988  -0.33040  -0.32464  -0.31955  -0.30364
 Alpha  occ. eigenvalues --   -0.29075  -0.27835
 Alpha virt. eigenvalues --    0.12895   0.14228   0.15315   0.15764   0.17144
 Alpha virt. eigenvalues --    0.17493   0.19992   0.22289   0.23541   0.24407
 Alpha virt. eigenvalues --    0.25882   0.26680   0.27749   0.27900   0.28194

 Mulliken charges:
               1
     1  C    0.399107
     2  H    0.169312
     3  F   -0.899495
     4  F   -0.896295
     5  C   -0.309635
     6  H    0.173084
     7  C   -2.559544
     8  N    1.119412
     9  N    0.605636
    10  H    0.328781
    11  H    0.339445
    12  N    0.193995
    13  H    0.110279
    14  H    0.225917
 Sum of Mulliken charges =  -1.00000

 Dipole moment (field-independent basis, Debye):
    X=              3.1729    Y=             -3.1137    Z=              1.7223  Tot=              4.7675

 Test job not archived.
 1\1\GINC-SE070\SP\RHF\Aug-CC-pVDZ\C3H6F2N3(1-)\OHZDE\09-Apr-2025\0\\#t
  hf aug-cc-pvdz iop(5/13=1,5/36=2,99/5=2) pseudo=read geom=check guess
 =(read,tcheck) scf=(maxcycle=1)\\title\\-1,1\C,0,0.67326184,-0.0115432
 9,0.01038046\H,0,1.73470807,1.82859564,0.07255516\F,0,-1.11029248,-0.0
 1683016,-0.01569704\F,0,2.51853463,-0.15732835,-0.09559824\C,0,0.69917
 878,1.50381808,0.00930354\H,0,0.16533724,1.78537832,0.92612497\C,0,0.6
 7364239,-0.75066021,-1.25184841\N,0,0.63532018,-1.41268397,-2.22196791
 \N,0,0.70267018,-0.70352046,1.26927218\H,0,1.54916264,-1.25363811,1.25

 Normal termination of Gaussian 16 at Wed Apr  9 02:51:07 2025.
