 Gaussian 16, Revision C.01,

 ----------------------------------------------------------------------
 #t hf aug-cc-pvdz symm=none int=(grid=ultrafine) guess=(read,tcheck) s
 table=(opt,rrhf)
 ----------------------------------------------------------------------
 -----
 title
 -----
 Symbolic Z-matrix:
 Charge = -1 Multiplicity = 1

 SCF Done:  E(RHF) =  -1295.32306122     A.U. after   15 cycles
 Normal termination of Gaussian 16 at Wed Apr  9 03:02:53 2025.
 Gaussian 16:  ES64L-G16RevC.01  3-Jul-2019

 ----------------------------------------------------------------------
 #t hf aug-cc-pvdz iop(5/13=1,5/36=2,99/5=2) pseudo=read geom=check gue
 ss=(read,tcheck) scf=(maxcycle=1)
 ----------------------------------------------------------------------
 -----
 title
 -----
 Structure from the checkpoint file:  "E2SN2_7_mol2.chk"
 Charge = -1 Multiplicity = 1

                         Standard orientation:
 ---------------------------------------------------------------------
 Center     Atomic      Atomic             Coordinates (Angstroms)
 Number     Number       Type             X           Y           Z
 ---------------------------------------------------------------------
      1          6           0       -0.183311    0.302628   -0.161742
      2          6           0       -0.013984   -0.591767    1.077226
      3         17           0       -0.669331    1.953485    0.263503
      4          1           0        0.878917   -0.180332    1.557409
      5          1           0        0.764923    0.352944   -0.701837
      6          7           0       -1.220089   -0.286048   -1.068338
      7          8           0       -0.814958   -0.811930   -2.103261
      8          8           0       -2.393069   -0.288510   -0.689918
      9          6           0        0.311841   -2.006608    0.622422
     10          1           0       -0.548093   -2.477971    0.133762
     11          1           0        0.569379   -2.599881    1.500991
     12          1           0        1.162610   -1.989036   -0.059718
     13          7           0       -1.111248   -0.601740    2.032600
     14          1           0       -1.253528    0.336801    2.387084
     15          1           0       -1.965748   -0.862498    1.552109
     16         17           0        3.121557    0.176662   -0.263599
 ---------------------------------------------------------------------

 SCF Done:  E(RHF) =  -1295.85713801     A.U. after    2 cycles

 The electronic state is 1-A.
 Alpha  occ. eigenvalues -- -105.47027-105.27934 -20.49611 -20.49032 -15.68462
 Alpha  occ. eigenvalues --  -15.38477 -11.24026 -11.16958 -11.11339 -10.51892
 Alpha  occ. eigenvalues --  -10.32508  -7.68848  -7.68461  -7.68439  -7.49274
 Alpha  occ. eigenvalues --   -7.49244  -7.49239  -1.56226  -1.40104  -1.11027
 Alpha  occ. eigenvalues --   -1.04490  -0.93539  -0.89495  -0.77860  -0.73153
 Alpha  occ. eigenvalues --   -0.72654  -0.65920  -0.64833  -0.63160  -0.59258
 Alpha  occ. eigenvalues --   -0.53725  -0.52713  -0.48466  -0.43062  -0.42813
 Alpha  occ. eigenvalues --   -0.41462  -0.38845  -0.38471  -0.36724  -0.36534
 Alpha  occ. eigenvalues --   -0.34645  -0.32838  -0.20577  -0.20226  -0.20170
 Alpha virt. eigenvalues --    0.12399   0.13394   0.14119   0.14773   0.15786
 Alpha virt. eigenvalues --    0.16705   0.16816   0.18293   0.19172   0.21937
 Alpha virt. eigenvalues --    0.22939   0.23669   0.25103   0.25738   0.25901

 Mulliken charges:
               1
     1  C   -0.320397
     2  C   -1.978174
     3  Cl  -0.045179
     4  H    0.174336
     5  H    0.189305
     6  N    3.056275
     7  O   -1.426720
     8  O   -1.575693
     9  C    0.094106
    10  H    0.206193
    11  H    0.143447
    12  H    0.285061
    13  N    0.779472
    14  H    0.179483
    15  H    0.218494
    16  Cl  -0.980009
 Sum of Mulliken charges =  -1.00000

 Dipole moment (field-independent basis, Debye):
    X=             -9.3519    Y=             -0.1634    Z=              1.9689  Tot=              9.5583

 Test job not archived.
 1\1\GINC-SE188\SP\RHF\Aug-CC-pVDZ\C3H7Cl2N2O2(1-)\OHZDE\09-Apr-2025\0\
 \#t hf aug-cc-pvdz iop(5/13=1,5/36=2,99/5=2) pseudo=read geom=check gu
 ess=(read,tcheck) scf=(maxcycle=1)\\title\\-1,1\C,0,-0.172087,0.060078
 ,-1.359917\C,0,-0.023516,0.209141,0.163028\Cl,0,0.159837,1.575189,-2.2
 18196\H,0,1.054558,0.343246,0.293025\H,0,0.52926,-0.6972,-1.717723\N,0
 ,-1.564499,-0.38387,-1.68773\O,0,-1.701935,-1.551339,-2.048114\O,0,-2.
 489926,0.407278,-1.496\C,0,-0.412934,-1.103405,0.826623\H,0,-1.487651,
 -1.295367,0.733926\H,0,-0.17096,-1.037419,1.888356\H,0,0.150383,-1.924

 Normal termination of Gaussian 16 at Wed Apr  9 03:03:01 2025.
