 Gaussian 16, Revision C.01,

 ----------------------------------------------------------------------
 #t hf aug-cc-pvdz symm=none int=(grid=ultrafine) guess=(read,tcheck) s
 table=(opt,rrhf)
 ----------------------------------------------------------------------
 -----
 title
 -----
 Symbolic Z-matrix:
 Charge = -1 Multiplicity = 1

 SCF Done:  E(RHF) =  -777.190975107     A.U. after   16 cycles
 Normal termination of Gaussian 16 at Wed Apr  9 02:47:52 2025.
 Gaussian 16:  ES64L-G16RevC.01  3-Jul-2019

 ----------------------------------------------------------------------
 #t hf aug-cc-pvdz iop(5/13=1,5/36=2,99/5=2) pseudo=read geom=check gue
 ss=(read,tcheck) scf=(maxcycle=1)
 ----------------------------------------------------------------------
 -----
 title
 -----
 Structure from the checkpoint file:  "E2SN2_260_mol2.chk"
 Charge = -1 Multiplicity = 1

                         Standard orientation:
 ---------------------------------------------------------------------
 Center     Atomic      Atomic             Coordinates (Angstroms)
 Number     Number       Type             X           Y           Z
 ---------------------------------------------------------------------
      1          6           0        0.562322   -0.360271    0.483000
      2          6           0       -0.871535    0.156827    0.719113
      3         17           0        0.669007   -1.321005   -1.025710
      4          1           0       -0.807968    0.670756    1.687271
      5          1           0        0.678204   -1.058723    1.382053
      6          6           0        1.554060    0.694683    0.467037
      7          7           0        2.354726    1.556322    0.504688
      8          7           0       -1.847654   -0.903429    0.874502
      9          1           0       -1.457778   -1.465474    1.649270
     10          1           0       -1.821829   -1.482674    0.041259
     11          6           0       -1.288720    1.127885   -0.302016
     12          7           0       -1.618753    1.894692   -1.128073
     13          1           0        0.081246   -1.754645    2.716591
 ---------------------------------------------------------------------

 SCF Done:  E(RHF) =  -777.583370898     A.U. after    2 cycles

 The electronic state is 1-A.
 Alpha  occ. eigenvalues -- -105.46707 -15.41887 -15.41488 -15.37891 -11.21890
 Alpha  occ. eigenvalues --  -11.21398 -11.18956 -11.18337 -10.51528  -7.68475
 Alpha  occ. eigenvalues --   -7.68108  -7.68079  -1.13424  -1.11832  -1.09608
 Alpha  occ. eigenvalues --   -1.01210  -0.89849  -0.80898  -0.65914  -0.61451
 Alpha  occ. eigenvalues --   -0.55645  -0.53662  -0.52164  -0.50976  -0.48833
 Alpha  occ. eigenvalues --   -0.45922  -0.40390  -0.39372  -0.38959  -0.38780
 Alpha  occ. eigenvalues --   -0.36068  -0.35714  -0.33236  -0.12558
 Alpha virt. eigenvalues --    0.13858   0.14636   0.15859   0.17518   0.17891
 Alpha virt. eigenvalues --    0.18193   0.19341   0.20260   0.22368   0.23014
 Alpha virt. eigenvalues --    0.23162   0.23590   0.24601   0.24968   0.25483

 Mulliken charges:
               1
     1  C    0.251981
     2  C   -0.798480
     3  Cl  -0.048120
     4  H    0.182271
     5  H    0.412147
     6  C   -1.467214
     7  N    0.849406
     8  N    0.621791
     9  H    0.236849
    10  H    0.251521
    11  C   -1.746888
    12  N    0.926831
    13  H   -0.672094
 Sum of Mulliken charges =  -1.00000

 Dipole moment (field-independent basis, Debye):
    X=             -0.8463    Y=              0.2171    Z=             -5.5278  Tot=              5.5964

 Test job not archived.
 1\1\GINC-SE097\SP\RHF\Aug-CC-pVDZ\C4H5Cl1N3(1-)\OHZDE\09-Apr-2025\0\\#
 t hf aug-cc-pvdz iop(5/13=1,5/36=2,99/5=2) pseudo=read geom=check gues
 s=(read,tcheck) scf=(maxcycle=1)\\title\\-1,1\C,0,-0.117501,0.130316,0
 .023048\C,0,-0.588304,0.306087,-1.435217\Cl,0,1.572493,-0.460604,0.096
 06\H,0,-1.638133,0.611849,-1.335916\H,0,-0.822137,-0.70358,0.36607\C,0
 ,-0.253599,1.334398,0.815759\N,0,-0.414755,2.305614,1.460486\N,0,-0.58
 4932,-0.928873,-2.194136\H,0,-1.175867,-1.554234,-1.621525\H,0,0.35652
 3,-1.308203,-2.178103\C,0,0.146998,1.369703,-2.133611\N,0,0.74671,2.21

 Normal termination of Gaussian 16 at Wed Apr  9 02:47:57 2025.
