 Gaussian 16, Revision C.01,

 ----------------------------------------------------------------------
 #t hf aug-cc-pvdz symm=none int=(grid=ultrafine) guess=(read,tcheck) s
 table=(opt,rrhf)
 ----------------------------------------------------------------------
 -----
 title
 -----
 Symbolic Z-matrix:
 Charge = -1 Multiplicity = 1

 SCF Done:  E(RHF) =  -1295.25002952     A.U. after   17 cycles
 Normal termination of Gaussian 16 at Wed Apr  9 03:02:48 2025.
 Gaussian 16:  ES64L-G16RevC.01  3-Jul-2019

 ----------------------------------------------------------------------
 #t hf aug-cc-pvdz iop(5/13=1,5/36=2,99/5=2) pseudo=read geom=check gue
 ss=(read,tcheck) scf=(maxcycle=1)
 ----------------------------------------------------------------------
 -----
 title
 -----
 Structure from the checkpoint file:  "E2SN2_7_mol1.chk"
 Charge = -1 Multiplicity = 1

                         Standard orientation:
 ---------------------------------------------------------------------
 Center     Atomic      Atomic             Coordinates (Angstroms)
 Number     Number       Type             X           Y           Z
 ---------------------------------------------------------------------
      1          6           0        0.449983    0.045656   -0.393979
      2          6           0       -0.453504   -0.731814    0.315217
      3         17           0        2.587472   -0.935660   -0.446037
      4         17           0       -3.084207    0.286470   -0.492822
      5          1           0       -1.652193   -0.021359   -0.124127
      6          1           0        0.428405    0.019621   -1.474011
      7          6           0       -0.618473   -0.700857    1.811325
      8          1           0       -0.733555    0.307040    2.205589
      9          1           0       -1.500203   -1.294256    2.062554
     10          1           0        0.259689   -1.162259    2.274749
     11          7           0       -0.658685   -2.038136   -0.255008
     12          1           0        0.090671   -2.254647   -0.902406
     13          1           0       -1.558141   -2.109980   -0.716828
     14          7           0        0.833073    1.376586    0.063325
     15          8           0        1.030133    1.572765    1.262513
     16          8           0        0.922500    2.240363   -0.814826
 ---------------------------------------------------------------------

 SCF Done:  E(RHF) =  -1295.78436732     A.U. after    2 cycles

 The electronic state is 1-A.
 Alpha  occ. eigenvalues -- -105.39292-105.34450 -20.48175 -20.48103 -15.68084
 Alpha  occ. eigenvalues --  -15.38353 -11.24135 -11.15690 -11.11449 -10.44076
 Alpha  occ. eigenvalues --  -10.39127  -7.60957  -7.60737  -7.60734  -7.55942
 Alpha  occ. eigenvalues --   -7.55795  -7.55783  -1.54989  -1.38799  -1.10422
 Alpha  occ. eigenvalues --   -1.01930  -0.89619  -0.86776  -0.81413  -0.78983
 Alpha  occ. eigenvalues --   -0.71368  -0.65067  -0.62884  -0.62068  -0.58943
 Alpha  occ. eigenvalues --   -0.55761  -0.49442  -0.45529  -0.43468  -0.42617
 Alpha  occ. eigenvalues --   -0.39142  -0.37436  -0.34652  -0.33503  -0.32575
 Alpha  occ. eigenvalues --   -0.31073  -0.30984  -0.26594  -0.26292  -0.19095
 Alpha virt. eigenvalues --    0.12934   0.13226   0.13682   0.14573   0.15261
 Alpha virt. eigenvalues --    0.16036   0.16848   0.18017   0.20649   0.21645
 Alpha virt. eigenvalues --    0.23544   0.24201   0.25127   0.25916   0.26328

 Mulliken charges:
               1
     1  C    0.016045
     2  C   -1.963196
     3  Cl  -0.690166
     4  Cl  -0.576162
     5  H    0.937635
     6  H   -0.060919
     7  C   -0.129958
     8  H    0.249171
     9  H    0.123581
    10  H    0.204567
    11  N    0.593195
    12  H    0.181896
    13  H    0.183354
    14  N    2.764841
    15  O   -1.435062
    16  O   -1.398823
 Sum of Mulliken charges =  -1.00000

 Dipole moment (field-independent basis, Debye):
    X=             -2.3973    Y=             -0.3224    Z=              0.4488  Tot=              2.4602

 Test job not archived.
 1\1\GINC-SE149\SP\RHF\Aug-CC-pVDZ\C3H7Cl2N2O2(1-)\OHZDE\09-Apr-2025\0\
 \#t hf aug-cc-pvdz iop(5/13=1,5/36=2,99/5=2) pseudo=read geom=check gu
 ess=(read,tcheck) scf=(maxcycle=1)\\title\\-1,1\C,0,-0.46900105,-0.023
 8752,-0.14097444\C,0,-0.10995985,0.12768249,1.19012535\Cl,0,1.37692846
 ,-0.60670037,-1.47791564\Cl,0,-2.65334268,0.01550896,2.64925068\H,0,-1
 .47168278,0.15501053,1.71888617\H,0,-0.96117851,-0.93482548,-0.4500757
 3\C,0,0.46658569,1.3860097,1.78234265\H,0,-0.11102629,2.27506397,1.536
 39494\H,0,0.49960025,1.26025305,2.86667704\H,0,1.48872105,1.51643113,1

 Normal termination of Gaussian 16 at Wed Apr  9 03:02:56 2025.
