 Gaussian 16, Revision C.01,

 ----------------------------------------------------------------------
 #t hf aug-cc-pvdz symm=none int=(grid=ultrafine) guess=(read,tcheck) s
 table=(opt,rrhf)
 ----------------------------------------------------------------------
 -----
 title
 -----
 Symbolic Z-matrix:
 Charge = -1 Multiplicity = 1

 SCF Done:  E(RHF) =  -935.210989898     A.U. after   16 cycles
 Normal termination of Gaussian 16 at Wed Apr  9 02:56:03 2025.
 Gaussian 16:  ES64L-G16RevC.01  3-Jul-2019

 ----------------------------------------------------------------------
 #t hf aug-cc-pvdz iop(5/13=1,5/36=2,99/5=2) pseudo=read geom=check gue
 ss=(read,tcheck) scf=(maxcycle=1)
 ----------------------------------------------------------------------
 -----
 title
 -----
 Structure from the checkpoint file:  "E2SN2_35_mol2.chk"
 Charge = -1 Multiplicity = 1

                         Standard orientation:
 ---------------------------------------------------------------------
 Center     Atomic      Atomic             Coordinates (Angstroms)
 Number     Number       Type             X           Y           Z
 ---------------------------------------------------------------------
      1          6           0       -0.157790    0.217081    0.079195
      2          6           0        0.772703   -0.241924   -1.027094
      3         17           0       -0.924685    1.775368   -0.413986
      4          1           0        1.493416    0.567839   -1.166461
      5          1           0        0.186683   -0.400940   -1.934523
      6          7           0       -1.340093   -0.753582    0.186707
      7          8           0       -1.812430   -1.191574   -0.857952
      8          8           0       -1.772400   -1.010205    1.307379
      9          6           0        0.544773    0.363604    1.402922
     10          1           0       -0.039292    0.961869    2.102205
     11          1           0        0.690844   -0.635570    1.812046
     12          1           0        1.553415    0.752881    1.201770
     13          7           0        1.442941   -1.448533   -0.556428
     14          1           0        1.705342   -2.002066   -1.363435
     15          1           0        2.310663   -1.037469   -0.138806
     16          9           0        3.202130    0.289853    0.309718
 ---------------------------------------------------------------------

 SCF Done:  E(RHF) =  -935.758230927     A.U. after    2 cycles

 The electronic state is 1-A.
 Alpha  occ. eigenvalues -- -105.45488 -26.09178 -20.47317 -20.47064 -15.66350
 Alpha  occ. eigenvalues --  -15.32656 -11.23973 -11.12791 -11.09137 -10.50355
 Alpha  occ. eigenvalues --   -7.67298  -7.66926  -7.66914  -1.54302  -1.38157
 Alpha  occ. eigenvalues --   -1.15613  -1.07596  -1.00968  -0.90587  -0.84727
 Alpha  occ. eigenvalues --   -0.79362  -0.70080  -0.62723  -0.61907  -0.59235
 Alpha  occ. eigenvalues --   -0.55228  -0.50775  -0.48337  -0.45173  -0.42970
 Alpha  occ. eigenvalues --   -0.40114  -0.39433  -0.37757  -0.35960  -0.34461
 Alpha  occ. eigenvalues --   -0.34226  -0.32693  -0.29819  -0.25514  -0.25123
 Alpha  occ. eigenvalues --   -0.24803
 Alpha virt. eigenvalues --    0.13672   0.13968   0.15120   0.16167   0.16531
 Alpha virt. eigenvalues --    0.17297   0.18004   0.18591   0.20232   0.22186
 Alpha virt. eigenvalues --    0.24226   0.24510   0.25624   0.26383   0.27134

 Mulliken charges:
               1
     1  C   -1.321631
     2  C   -0.261074
     3  Cl  -0.146383
     4  H    0.216924
     5  H    0.087758
     6  N    2.909397
     7  O   -1.559023
     8  O   -1.412251
     9  C   -0.028038
    10  H    0.126811
    11  H    0.366777
    12  H    0.327151
    13  N    0.251964
    14  H    0.143191
    15  H    0.304072
    16  F   -1.005645
 Sum of Mulliken charges =  -1.00000

 Dipole moment (field-independent basis, Debye):
    X=             -6.3144    Y=              0.6706    Z=             -1.6455  Tot=              6.5597

 Test job not archived.
 1\1\GINC-SE129\SP\RHF\Aug-CC-pVDZ\C3H7Cl1F1N2O2(1-)\OHZDE\09-Apr-2025\
 0\\#t hf aug-cc-pvdz iop(5/13=1,5/36=2,99/5=2) pseudo=read geom=check
 guess=(read,tcheck) scf=(maxcycle=1)\\title\\-1,1\C,0,-0.336921,-0.035
 211,-1.502109\C,0,-0.177098,-0.147049,0.001994\Cl,0,-0.202392,-1.68360
 7,-2.226199\H,0,0.799033,-0.610895,0.165034\H,0,-0.977428,-0.778162,0.
 393529\N,0,-1.772161,0.392323,-1.832091\O,0,-2.678151,-0.094139,-1.162
 175\O,0,-1.939215,1.167489,-2.770099\C,0,0.663945,0.903326,-2.122378\H
 ,0,0.738374,0.754509,-3.19958\H,0,0.333929,1.921208,-1.917261\H,0,1.61

 Normal termination of Gaussian 16 at Wed Apr  9 02:56:11 2025.
