 Gaussian 16, Revision C.01,

 ----------------------------------------------------------------------
 #t hf aug-cc-pvdz symm=none int=(grid=ultrafine) guess=(read,tcheck) s
 table=(opt,rrhf)
 ----------------------------------------------------------------------
 -----
 title
 -----
 Symbolic Z-matrix:
 Charge = -1 Multiplicity = 1

 SCF Done:  E(RHF) =  -951.206062350     A.U. after   16 cycles
 Normal termination of Gaussian 16 at Wed Apr  9 03:03:17 2025.
 Gaussian 16:  ES64L-G16RevC.01  3-Jul-2019

 ----------------------------------------------------------------------
 #t hf aug-cc-pvdz iop(5/13=1,5/36=2,99/5=2) pseudo=read geom=check gue
 ss=(read,tcheck) scf=(maxcycle=1)
 ----------------------------------------------------------------------
 -----
 title
 -----
 Structure from the checkpoint file:  "E2SN2_92_mol2.chk"
 Charge = -1 Multiplicity = 1

                         Standard orientation:
 ---------------------------------------------------------------------
 Center     Atomic      Atomic             Coordinates (Angstroms)
 Number     Number       Type             X           Y           Z
 ---------------------------------------------------------------------
      1          6           0       -0.380010   -0.143166    0.327648
      2          6           0        0.773264   -0.972994   -0.239176
      3         17           0       -0.010013    1.638091    0.110141
      4          1           0        1.126280   -0.528947   -1.171128
      5          1           0        0.347609   -1.964349   -0.437128
      6          7           0       -1.663896   -0.312024   -0.476176
      7          8           0       -1.569379   -0.704109   -1.635402
      8          8           0       -2.714882   -0.022438    0.088827
      9          7           0       -0.630160   -0.516330    1.649197
     10          1           0       -1.191453    0.161514    2.144106
     11          1           0        0.306389   -0.634891    2.047031
     12          7           0        1.839110   -0.990187    0.751289
     13          1           0        2.605601   -0.389421    0.249731
     14          1           0        2.197529   -1.936398    0.800461
     15          9           0        3.319717    0.298230   -0.792652
 ---------------------------------------------------------------------

 SCF Done:  E(RHF) =  -951.768532399     A.U. after    2 cycles

 The electronic state is 1-A.
 Alpha  occ. eigenvalues -- -105.44264 -26.09026 -20.48614 -20.48279 -15.67540
 Alpha  occ. eigenvalues --  -15.39389 -15.31590 -11.27277 -11.13326 -10.49141
 Alpha  occ. eigenvalues --   -7.66071  -7.65694  -7.65678  -1.55563  -1.39513
 Alpha  occ. eigenvalues --   -1.16008  -1.14872  -1.01815  -0.98278  -0.90586
 Alpha  occ. eigenvalues --   -0.80579  -0.71764  -0.65848  -0.63973  -0.63232
 Alpha  occ. eigenvalues --   -0.59097  -0.55795  -0.51103  -0.47954  -0.45886
 Alpha  occ. eigenvalues --   -0.40945  -0.40252  -0.38010  -0.35282  -0.34384
 Alpha  occ. eigenvalues --   -0.33508  -0.32914  -0.30307  -0.25423  -0.25328
 Alpha  occ. eigenvalues --   -0.23831
 Alpha virt. eigenvalues --    0.12783   0.13723   0.14751   0.16103   0.16814
 Alpha virt. eigenvalues --    0.18337   0.18844   0.19799   0.21138   0.22871
 Alpha virt. eigenvalues --    0.24305   0.25114   0.25919   0.26496   0.28313

 Mulliken charges:
               1
     1  C   -2.274796
     2  C   -0.196179
     3  Cl   0.053111
     4  H    0.170401
     5  H    0.153436
     6  N    3.079641
     7  O   -1.447591
     8  O   -1.518270
     9  N    0.669647
    10  H    0.263943
    11  H    0.359500
    12  N    0.014167
    13  H    0.441006
    14  H    0.246787
    15  F   -1.014806
 Sum of Mulliken charges =  -1.00000

 Dipole moment (field-independent basis, Debye):
    X=             -7.5623    Y=             -1.5427    Z=              3.2954  Tot=              8.3922

 Test job not archived.
 1\1\GINC-SE015\SP\RHF\Aug-CC-pVDZ\C2H6Cl1F1N3O2(1-)\OHZDE\09-Apr-2025\
 0\\#t hf aug-cc-pvdz iop(5/13=1,5/36=2,99/5=2) pseudo=read geom=check
 guess=(read,tcheck) scf=(maxcycle=1)\\title\\-1,1\C,0,-0.596159,-0.074
 286,-1.462971\C,0,-0.016552,-0.174356,-0.050885\Cl,0,0.579588,0.829775
 ,-2.538785\H,0,1.052884,-0.38388,-0.103236\H,0,-0.538428,-1.017547,0.4
 17972\N,0,-0.689263,-1.432771,-2.147704\O,0,0.03266,-2.335562,-1.73507
 3\O,0,-1.473013,-1.528025,-3.088088\N,0,-1.872799,0.488001,-1.414601\H
 ,0,-2.18876,0.811338,-2.317418\H,0,-1.778522,1.239809,-0.725146\N,0,-0

 Normal termination of Gaussian 16 at Wed Apr  9 03:03:24 2025.
