 Gaussian 16, Revision C.01,

 ----------------------------------------------------------------------
 #t hf aug-cc-pvdz symm=none int=(grid=ultrafine) guess=(read,tcheck) s
 table=(opt,rrhf)
 ----------------------------------------------------------------------
 -----
 title
 -----
 Symbolic Z-matrix:
 Charge = -1 Multiplicity = 1

 SCF Done:  E(RHF) =  -967.848821953     A.U. after   17 cycles
 Normal termination of Gaussian 16 at Wed Apr  9 02:52:54 2025.
 Gaussian 16:  ES64L-G16RevC.01  3-Jul-2019

 ----------------------------------------------------------------------
 #t hf aug-cc-pvdz iop(5/13=1,5/36=2,99/5=2) pseudo=read geom=check gue
 ss=(read,tcheck) scf=(maxcycle=1)
 ----------------------------------------------------------------------
 -----
 title
 -----
 Structure from the checkpoint file:  "E2SN2_309_mol1.chk"
 Charge = -1 Multiplicity = 1

                         Standard orientation:
 ---------------------------------------------------------------------
 Center     Atomic      Atomic             Coordinates (Angstroms)
 Number     Number       Type             X           Y           Z
 ---------------------------------------------------------------------
      1          6           0       -0.421410   -0.304102    0.333702
      2          1           0        0.447798   -0.510668   -1.638885
      3          9           0        0.870587    0.336930    1.634850
      4         17           0       -1.940496   -0.788609   -1.147054
      5          6           0        0.731911   -0.091679   -0.669341
      6          6           0       -1.171797    0.839427    0.824111
      7          7           0       -1.849507    1.710278    1.232102
      8          7           0       -0.444511   -1.567102    0.992511
      9          1           0       -1.398745   -1.874537    1.117894
     10          1           0        0.021344   -1.408681    1.878686
     11          6           0        1.947190   -0.797970   -0.245431
     12          7           0        2.938628   -1.403312   -0.076927
     13          6           0        1.026066    1.328356   -0.871547
     14          7           0        1.271244    2.449232   -1.119168
 ---------------------------------------------------------------------

 SCF Done:  E(RHF) =  -968.408967683     A.U. after    2 cycles

 The electronic state is 1-A.
 Alpha  occ. eigenvalues -- -105.39540 -26.19233 -15.42278 -15.41233 -15.40902
 Alpha  occ. eigenvalues --  -15.40286 -11.32827 -11.24110 -11.19582 -11.19304
 Alpha  occ. eigenvalues --  -11.18413 -10.44383  -7.61228  -7.61018  -7.61001
 Alpha  occ. eigenvalues --   -1.28100  -1.14063  -1.12408  -1.11422  -1.09733
 Alpha  occ. eigenvalues --   -1.00854  -0.88957  -0.82573  -0.70713  -0.65046
 Alpha  occ. eigenvalues --   -0.62440  -0.59935  -0.57973  -0.51059  -0.50242
 Alpha  occ. eigenvalues --   -0.49476  -0.45081  -0.41484  -0.40677  -0.40083
 Alpha  occ. eigenvalues --   -0.39096  -0.38253  -0.37173  -0.35975  -0.34879
 Alpha  occ. eigenvalues --   -0.33619  -0.31482  -0.30787  -0.30199
 Alpha virt. eigenvalues --    0.12878   0.13399   0.15961   0.17212   0.17664
 Alpha virt. eigenvalues --    0.18500   0.18734   0.20851   0.21769   0.22229
 Alpha virt. eigenvalues --    0.22439   0.23058   0.23270   0.24095   0.24255

 Mulliken charges:
               1
     1  C   -0.119556
     2  H    0.331603
     3  F   -0.829171
     4  Cl  -0.421981
     5  C    0.831720
     6  C   -2.229867
     7  N    1.150846
     8  N    0.683581
     9  H    0.238645
    10  H    0.339664
    11  C   -1.618770
    12  N    1.095963
    13  C   -1.512796
    14  N    1.060120
 Sum of Mulliken charges =  -1.00000

 Dipole moment (field-independent basis, Debye):
    X=             -1.5898    Y=             -4.1021    Z=             -1.3842  Tot=              4.6121

 Test job not archived.
 1\1\GINC-SE187\SP\RHF\Aug-CC-pVDZ\C5H3Cl1F1N4(1-)\OHZDE\09-Apr-2025\0\
 \#t hf aug-cc-pvdz iop(5/13=1,5/36=2,99/5=2) pseudo=read geom=check gu
 ess=(read,tcheck) scf=(maxcycle=1)\\title\\-1,1\C,0,0.81187476,-0.0741
 4984,0.0089742\H,0,1.65099778,1.91464968,0.1817213\F,0,-1.12992623,-0.
 05124243,0.05426183\Cl,0,2.9675464,-0.1029335,-0.28641861\C,0,0.665364
 12,1.46170267,0.0415296\C,0,0.5676705,-0.7968403,-1.22768449\N,0,0.427
 40841,-1.44453497,-2.19976807\N,0,0.82468514,-0.72211186,1.27771896\H,
 0,1.46750458,-1.50142434,1.26174784\H,0,-0.13144039,-1.02350434,1.4274

 Normal termination of Gaussian 16 at Wed Apr  9 02:53:02 2025.
