 Gaussian 16, Revision C.01,

 ----------------------------------------------------------------------
 #t hf aug-cc-pvdz symm=none int=(grid=ultrafine) guess=(read,tcheck) s
 table=(opt,rrhf)
 ----------------------------------------------------------------------
 -----
 title
 -----
 Symbolic Z-matrix:
 Charge = -1 Multiplicity = 1

 SCF Done:  E(RHF) =  -852.893582976     A.U. after   17 cycles
 Normal termination of Gaussian 16 at Wed Apr  9 03:01:45 2025.
 Gaussian 16:  ES64L-G16RevC.01  3-Jul-2019

 ----------------------------------------------------------------------
 #t hf aug-cc-pvdz iop(5/13=1,5/36=2,99/5=2) pseudo=read geom=check gue
 ss=(read,tcheck) scf=(maxcycle=1)
 ----------------------------------------------------------------------
 -----
 title
 -----
 Structure from the checkpoint file:  "E2SN2_68_mol2.chk"
 Charge = -1 Multiplicity = 1

                         Standard orientation:
 ---------------------------------------------------------------------
 Center     Atomic      Atomic             Coordinates (Angstroms)
 Number     Number       Type             X           Y           Z
 ---------------------------------------------------------------------
      1          6           0       -0.407728    0.162840    0.027334
      2          6           0        0.749151   -0.613503   -0.621351
      3         17           0       -1.992392   -0.478769   -0.554581
      4          1           0        0.609898   -0.603179   -1.708581
      5          6           0       -0.397920    0.030539    1.489289
      6          7           0       -0.361888   -0.110272    2.656508
      7          6           0       -0.352402    1.587912   -0.318912
      8          7           0       -0.323085    2.737378   -0.562188
      9          6           0        0.772908   -2.089465   -0.247626
     10          1           0       -0.150309   -2.558035   -0.591326
     11          1           0        1.588815   -2.553012   -0.805801
     12          1           0        0.914157   -2.261282    0.823302
     13          6           0        1.993413    0.046843   -0.272071
     14          7           0        3.020837    0.563651   -0.018858
     15          1           0        0.412535   -0.971707   -3.157925
 ---------------------------------------------------------------------

 SCF Done:  E(RHF) =  -853.350721925     A.U. after    2 cycles

 The electronic state is 1-A.
 Alpha  occ. eigenvalues -- -105.50059 -15.45885 -15.45112 -15.41424 -11.31576
 Alpha  occ. eigenvalues --  -11.22786 -11.21904 -11.18381 -11.17634 -11.14257
 Alpha  occ. eigenvalues --  -10.54826  -7.71785  -7.71359  -7.71344  -1.17086
 Alpha  occ. eigenvalues --   -1.14724  -1.11939  -1.08918  -0.97638  -0.90696
 Alpha  occ. eigenvalues --   -0.80257  -0.72777  -0.65419  -0.58128  -0.55399
 Alpha  occ. eigenvalues --   -0.53733  -0.53218  -0.51089  -0.48153  -0.45746
 Alpha  occ. eigenvalues --   -0.44269  -0.43713  -0.43294  -0.41833  -0.40915
 Alpha  occ. eigenvalues --   -0.39765  -0.38524  -0.37618  -0.37237  -0.10490
 Alpha virt. eigenvalues --    0.12507   0.13795   0.14104   0.15335   0.15980
 Alpha virt. eigenvalues --    0.17618   0.18070   0.18741   0.19241   0.20020
 Alpha virt. eigenvalues --    0.20944   0.21555   0.21911   0.22816   0.23593

 Mulliken charges:
               1
     1  C   -0.751115
     2  C    0.490168
     3  Cl   0.188477
     4  H    0.064791
     5  C   -1.131434
     6  N    0.974139
     7  C   -1.148318
     8  N    0.975732
     9  C    0.006436
    10  H    0.228061
    11  H    0.188949
    12  H    0.319827
    13  C   -1.943834
    14  N    1.082529
    15  H   -0.544410
 Sum of Mulliken charges =  -1.00000

 Dipole moment (field-independent basis, Debye):
    X=             -4.7136    Y=             -1.9066    Z=              7.5715  Tot=              9.1203

 Test job not archived.
 1\1\GINC-SE071\SP\RHF\Aug-CC-pVDZ\C6H5Cl1N3(1-)\OHZDE\09-Apr-2025\0\\#
 t hf aug-cc-pvdz iop(5/13=1,5/36=2,99/5=2) pseudo=read geom=check gues
 s=(read,tcheck) scf=(maxcycle=1)\\title\\-1,1\C,0,-0.459719,0.027276,-
 1.492681\C,0,0.002809,0.037842,-0.027135\Cl,0,0.315381,-1.340839,-2.38
 0899\H,0,1.098731,0.026821,-0.007089\C,0,-1.912387,-0.153491,-1.602184
 \N,0,-3.077027,-0.311998,-1.647083\C,0,-0.084795,1.269706,-2.177938\N,
 0,0.184058,2.261691,-2.748025\C,0,-0.411555,-1.205732,0.7478\H,0,0.042
 011,-2.081992,0.282544\H,0,0.01668,-1.122703,1.74873\H,0,-1.496098,-1.

 Normal termination of Gaussian 16 at Wed Apr  9 03:01:53 2025.
