 Gaussian 16, Revision C.01,

 ----------------------------------------------------------------------
 #t hf aug-cc-pvdz symm=none int=(grid=ultrafine) guess=(read,tcheck) s
 table=(opt,rrhf)
 ----------------------------------------------------------------------
 -----
 title
 -----
 Symbolic Z-matrix:
 Charge = -1 Multiplicity = 1

 SCF Done:  E(RHF) =  -591.181211002     A.U. after   16 cycles
 Normal termination of Gaussian 16 at Wed Apr  9 02:57:15 2025.
 Gaussian 16:  ES64L-G16RevC.01  3-Jul-2019

 ----------------------------------------------------------------------
 #t hf aug-cc-pvdz iop(5/13=1,5/36=2,99/5=2) pseudo=read geom=check gue
 ss=(read,tcheck) scf=(maxcycle=1)
 ----------------------------------------------------------------------
 -----
 title
 -----
 Structure from the checkpoint file:  "E2SN2_377_mol2.chk"
 Charge = -1 Multiplicity = 1

                         Standard orientation:
 ---------------------------------------------------------------------
 Center     Atomic      Atomic             Coordinates (Angstroms)
 Number     Number       Type             X           Y           Z
 ---------------------------------------------------------------------
      1          6           0       -0.167541   -0.172398    0.359462
      2          6           0        0.668051   -0.922636   -0.668124
      3          9           0       -0.700968   -1.108573    1.289725
      4          1           0        0.092485   -1.796233   -0.981982
      5          1           0        0.802946   -0.254913   -1.520793
      6          7           0        0.482217    0.852275    0.969676
      7          1           0       -0.141612    1.547870    1.348306
      8          1           0        1.330643    1.206091    0.406474
      9          7           0       -1.523828    0.268097   -0.310447
     10          8           0       -2.059119   -0.512515   -1.095127
     11          8           0       -1.996717    1.356546    0.015505
     12          7           0        1.994769   -1.288266   -0.198286
     13          1           0        2.504987   -0.394802   -0.187926
     14          1           0        1.916157   -1.619500    0.756823
     15          9           0        2.508292    1.364650   -0.462898
 ---------------------------------------------------------------------

 SCF Done:  E(RHF) =  -591.758548223     A.U. after    2 cycles

 The electronic state is 1-A.
 Alpha  occ. eigenvalues --  -26.33326 -26.12271 -20.47292 -20.47115 -15.65348
 Alpha  occ. eigenvalues --  -15.34122 -15.33379 -11.27894 -11.13179  -1.53919
 Alpha  occ. eigenvalues --   -1.45402  -1.37802  -1.19505  -1.09701  -1.02994
 Alpha  occ. eigenvalues --   -0.92191  -0.80841  -0.70942  -0.67058  -0.62888
 Alpha  occ. eigenvalues --   -0.62223  -0.58677  -0.58356  -0.54362  -0.50360
 Alpha  occ. eigenvalues --   -0.49127  -0.47032  -0.43822  -0.40424  -0.38332
 Alpha  occ. eigenvalues --   -0.36868  -0.33136  -0.31978  -0.31022  -0.28803
 Alpha  occ. eigenvalues --   -0.28189  -0.27149
 Alpha virt. eigenvalues --    0.14328   0.15163   0.15498   0.16360   0.18167
 Alpha virt. eigenvalues --    0.18341   0.19628   0.20024   0.22112   0.22983
 Alpha virt. eigenvalues --    0.24996   0.26158   0.26508   0.26832   0.29469

 Mulliken charges:
               1
     1  C   -0.599954
     2  C   -0.650924
     3  F   -1.036731
     4  H    0.082162
     5  H    0.170189
     6  N    0.631365
     7  H    0.373063
     8  H    0.442623
     9  N    3.013758
    10  O   -1.534242
    11  O   -1.475013
    12  N    0.203582
    13  H    0.234813
    14  H    0.198765
    15  F   -1.053455
 Sum of Mulliken charges =  -1.00000

 Dipole moment (field-independent basis, Debye):
    X=             -4.8877    Y=             -2.2660    Z=              1.6907  Tot=              5.6465

 Test job not archived.
 1\1\GINC-SE423\SP\RHF\Aug-CC-pVDZ\C2H6F2N3O2(1-)\OHZDE\09-Apr-2025\0\\
 #t hf aug-cc-pvdz iop(5/13=1,5/36=2,99/5=2) pseudo=read geom=check gue
 ss=(read,tcheck) scf=(maxcycle=1)\\title\\-1,1\C,0,-0.097068,-0.04046,
 0.043669\C,0,-0.67874,-0.275553,-1.343195\F,0,1.241581,0.424176,-0.092
 313\H,0,0.071752,-0.815419,-1.924798\H,0,-1.560203,-0.906841,-1.218325
 \N,0,-0.848095,0.766629,0.836806\H,0,-0.674963,0.628395,1.820317\H,0,-
 1.877346,0.825159,0.521488\N,0,0.220857,-1.43436,0.705708\O,0,0.670711
 ,-2.324503,-0.013242\O,0,0.037211,-1.54825,1.917275\N,0,-1.114729,0.93

 Normal termination of Gaussian 16 at Wed Apr  9 02:57:22 2025.
