 Gaussian 16, Revision C.01,

 ----------------------------------------------------------------------
 #t hf aug-cc-pvdz symm=none int=(grid=ultrafine) guess=(read,tcheck) s
 table=(opt,rrhf)
 ----------------------------------------------------------------------
 -----
 title
 -----
 Symbolic Z-matrix:
 Charge = -1 Multiplicity = 1

 SCF Done:  E(RHF) =  -816.225034759     A.U. after   16 cycles
 Normal termination of Gaussian 16 at Wed Apr  9 02:52:24 2025.
 Gaussian 16:  ES64L-G16RevC.01  3-Jul-2019

 ----------------------------------------------------------------------
 #t hf aug-cc-pvdz iop(5/13=1,5/36=2,99/5=2) pseudo=read geom=check gue
 ss=(read,tcheck) scf=(maxcycle=1)
 ----------------------------------------------------------------------
 -----
 title
 -----
 Structure from the checkpoint file:  "E2SN2_310_mol2.chk"
 Charge = -1 Multiplicity = 1

                         Standard orientation:
 ---------------------------------------------------------------------
 Center     Atomic      Atomic             Coordinates (Angstroms)
 Number     Number       Type             X           Y           Z
 ---------------------------------------------------------------------
      1          6           0        0.438024   -0.214311    0.380814
      2          6           0       -0.615698    0.886946    0.139792
      3         17           0        0.312597   -1.482103   -0.949859
      4          1           0       -0.482294    1.488656    1.082652
      5          6           0        1.779349    0.374181    0.223369
      6          7           0        2.841699    0.843585    0.047319
      7          7           0        0.345378   -0.829112    1.661594
      8          1           0        0.339713    0.013219    2.325560
      9          1           0       -0.579749   -1.248686    1.732914
     10          6           0       -1.947738    0.300916    0.192136
     11          7           0       -3.036350   -0.142001    0.226172
     12          6           0       -0.426915    1.730978   -1.116101
     13          1           0       -1.201700    2.499678   -1.166544
     14          1           0        0.544077    2.228942   -1.083185
     15          1           0       -0.481532    1.119237   -2.019567
     16          1           0        0.130112    1.515132    2.810118
 ---------------------------------------------------------------------

 SCF Done:  E(RHF) =  -816.660708156     A.U. after    2 cycles

 The electronic state is 1-A.
 Alpha  occ. eigenvalues -- -105.45911 -15.41561 -15.40957 -15.37257 -11.27488
 Alpha  occ. eigenvalues --  -11.18503 -11.18157 -11.17331 -11.14483 -10.50772
 Alpha  occ. eigenvalues --   -7.67699  -7.67338  -7.67334  -1.14466  -1.11462
 Alpha  occ. eigenvalues --   -1.09945  -0.99060  -0.94831  -0.83136  -0.80053
 Alpha  occ. eigenvalues --   -0.61746  -0.61087  -0.57681  -0.54477  -0.51465
 Alpha  occ. eigenvalues --   -0.50599  -0.48283  -0.46008  -0.45580  -0.43705
 Alpha  occ. eigenvalues --   -0.40157  -0.39466  -0.37979  -0.37226  -0.35789
 Alpha  occ. eigenvalues --   -0.35263  -0.33444  -0.12089
 Alpha virt. eigenvalues --    0.12039   0.13440   0.14462   0.15007   0.16793
 Alpha virt. eigenvalues --    0.18015   0.18269   0.19428   0.20147   0.20870
 Alpha virt. eigenvalues --    0.22233   0.22771   0.23043   0.23696   0.24450

 Mulliken charges:
               1
     1  C   -1.877465
     2  C    0.262723
     3  Cl   0.015125
     4  H    0.282503
     5  C   -1.404597
     6  N    1.021159
     7  N    0.923636
     8  H    0.160134
     9  H    0.258507
    10  C   -1.690907
    11  N    1.039727
    12  C   -0.099091
    13  H    0.151067
    14  H    0.272950
    15  H    0.287161
    16  H   -0.602635
 Sum of Mulliken charges =  -1.00000

 Dipole moment (field-independent basis, Debye):
    X=             -1.1028    Y=             -2.5954    Z=             -8.4891  Tot=              8.9452

 Test job not archived.
 1\1\GINC-SE112\SP\RHF\Aug-CC-pVDZ\C5H7Cl1N3(1-)\OHZDE\09-Apr-2025\0\\#
 t hf aug-cc-pvdz iop(5/13=1,5/36=2,99/5=2) pseudo=read geom=check gues
 s=(read,tcheck) scf=(maxcycle=1)\\title\\-1,1\C,0,-0.009399,0.022886,0
 .012475\C,0,-0.55527,-0.061043,-1.428417\Cl,0,1.826518,-0.125739,-0.01
 9742\H,0,-1.660831,-0.077438,-1.213235\C,0,-0.274775,1.37286,0.539173\
 N,0,-0.448469,2.466961,0.929933\N,0,-0.569399,-0.94181,0.897192\H,0,-1
 .623664,-0.808258,0.75195\H,0,-0.349298,-1.863182,0.523538\C,0,-0.2123
 57,-1.355553,-2.000391\N,0,0.05077,-2.390844,-2.491662\C,0,-0.16462,1.

 Normal termination of Gaussian 16 at Wed Apr  9 02:52:32 2025.
