 Gaussian 16, Revision C.01,

 ----------------------------------------------------------------------
 #t hf aug-cc-pvdz symm=none int=(grid=ultrafine) guess=(read,tcheck) s
 table=(opt,rrhf)
 ----------------------------------------------------------------------
 -----
 title
 -----
 Symbolic Z-matrix:
 Charge = -1 Multiplicity = 1

 SCF Done:  E(RHF) =  -585.601135526     A.U. after   17 cycles
 Normal termination of Gaussian 16 at Wed Apr  9 02:41:58 2025.
 Gaussian 16:  ES64L-G16RevC.01  3-Jul-2019

 ----------------------------------------------------------------------
 #t hf aug-cc-pvdz iop(5/13=1,5/36=2,99/5=2) pseudo=read geom=check gue
 ss=(read,tcheck) scf=(maxcycle=1)
 ----------------------------------------------------------------------
 -----
 title
 -----
 Structure from the checkpoint file:  "E2SN2_210_mol1.chk"
 Charge = -1 Multiplicity = 1

                         Standard orientation:
 ---------------------------------------------------------------------
 Center     Atomic      Atomic             Coordinates (Angstroms)
 Number     Number       Type             X           Y           Z
 ---------------------------------------------------------------------
      1          6           0        0.549637   -0.629016    0.382070
      2          1           0       -0.946237   -0.412391    1.904618
      3          9           0        0.086194   -0.867138   -1.073412
      4          1           0        1.219231   -0.283403    2.108282
      5          6           0       -0.601921    0.107744    1.018761
      6          1           0        0.778650   -1.633130    0.693087
      7          1           0       -0.339491    1.140029    1.217920
      8          7           0        1.762593    0.149533    0.075718
      9          8           0        1.643752    1.364890   -0.099470
     10          8           0        2.792308   -0.490940   -0.146910
     11          7           0       -1.808495    0.162520    0.090427
     12          8           0       -1.977173    1.176227   -0.583309
     13          8           0       -2.565498   -0.808127    0.100789
 ---------------------------------------------------------------------

 SCF Done:  E(RHF) =  -586.160317397     A.U. after    2 cycles

 The electronic state is 1-A.
 Alpha  occ. eigenvalues --  -26.28059 -20.46399 -20.46165 -20.43977 -20.43910
 Alpha  occ. eigenvalues --  -15.65138 -15.64749 -11.26714 -11.18831  -1.53077
 Alpha  occ. eigenvalues --   -1.51317  -1.38068  -1.37031  -1.34994  -1.02098
 Alpha  occ. eigenvalues --   -0.95023  -0.78693  -0.71379  -0.65558  -0.64027
 Alpha  occ. eigenvalues --   -0.63126  -0.61758  -0.59843  -0.58371  -0.52442
 Alpha  occ. eigenvalues --   -0.48494  -0.45863  -0.43897  -0.41290  -0.36701
 Alpha  occ. eigenvalues --   -0.35594  -0.35086  -0.33645  -0.32105  -0.30506
 Alpha  occ. eigenvalues --   -0.14507
 Alpha virt. eigenvalues --    0.14121   0.14922   0.15730   0.17423   0.18999
 Alpha virt. eigenvalues --    0.21023   0.22017   0.22616   0.23455   0.24106
 Alpha virt. eigenvalues --    0.25357   0.26385   0.27169   0.27674   0.29514

 Mulliken charges:
               1
     1  C    0.363561
     2  H    0.110529
     3  F   -0.901733
     4  H   -0.315578
     5  C   -0.405584
     6  H   -0.045327
     7  H    0.214303
     8  N    2.868244
     9  O   -1.462160
    10  O   -1.468979
    11  N    2.960764
    12  O   -1.436676
    13  O   -1.481364
 Sum of Mulliken charges =  -1.00000

 Dipole moment (field-independent basis, Debye):
    X=             -2.9708    Y=             -0.2490    Z=             -0.4477  Tot=              3.0147

 Test job not archived.
 1\1\GINC-SE071\SP\RHF\Aug-CC-pVDZ\C2H4F1N2O4(1-)\OHZDE\09-Apr-2025\0\\
 #t hf aug-cc-pvdz iop(5/13=1,5/36=2,99/5=2) pseudo=read geom=check gue
 ss=(read,tcheck) scf=(maxcycle=1)\\title\\-1,1\C,0,0.51928765,-0.13593
 49,0.07215553\H,0,1.81833622,1.26869023,1.04283374\F,0,-0.99371532,-0.
 07239567,0.38311648\H,0,2.33266768,-0.26049238,-0.42155404\C,0,1.00611
 544,1.26867807,0.32580212\H,0,0.83064202,-0.93468486,0.72213915\H,0,1.
 27046222,1.76126892,-0.60243308\N,0,0.41185876,-0.57008685,-1.33184735
 \O,0,0.2567199,0.29544549,-2.19711807\O,0,0.32006974,-1.78305419,-1.53

 Normal termination of Gaussian 16 at Wed Apr  9 02:42:03 2025.
