 Gaussian 16, Revision C.01,

 ----------------------------------------------------------------------
 #t hf aug-cc-pvdz symm=none int=(grid=ultrafine) guess=(read,tcheck) s
 table=(opt,rrhf)
 ----------------------------------------------------------------------
 -----
 title
 -----
 Symbolic Z-matrix:
 Charge = -1 Multiplicity = 1

 SCF Done:  E(RHF) =  -823.421418528     A.U. after   16 cycles
 Normal termination of Gaussian 16 at Wed Apr  9 02:51:12 2025.
 Gaussian 16:  ES64L-G16RevC.01  3-Jul-2019

 ----------------------------------------------------------------------
 #t hf aug-cc-pvdz iop(5/13=1,5/36=2,99/5=2) pseudo=read geom=check gue
 ss=(read,tcheck) scf=(maxcycle=1)
 ----------------------------------------------------------------------
 -----
 title
 -----
 Structure from the checkpoint file:  "E2SN2_299_mol1.chk"
 Charge = -1 Multiplicity = 1

                         Standard orientation:
 ---------------------------------------------------------------------
 Center     Atomic      Atomic             Coordinates (Angstroms)
 Number     Number       Type             X           Y           Z
 ---------------------------------------------------------------------
      1          6           0        0.114386   -0.222471   -0.376341
      2          1           0       -0.338297    1.678512   -1.210721
      3          9           0        2.044572   -0.697332   -0.435055
      4         17           0       -2.064876    0.180217    0.023974
      5          6           0        0.501829    1.201434   -0.705566
      6          1           0        1.329528    1.110848   -1.407940
      7          6           0        0.272202   -0.750921    0.970473
      8          7           0        0.351388   -1.197106    2.056568
      9          7           0       -0.114374   -1.105459   -1.477397
     10          1           0       -0.829722   -1.774804   -1.226624
     11          1           0        0.784948   -1.565418   -1.583778
     12          6           0        0.936396    1.991779    0.516115
     13          1           0        0.133032    2.043301    1.254715
     14          1           0        1.803444    1.505264    0.964352
     15          1           0        1.210842    3.013622    0.235655
 ---------------------------------------------------------------------

 SCF Done:  E(RHF) =  -823.864279604     A.U. after    2 cycles

 The electronic state is 1-A.
 Alpha  occ. eigenvalues -- -105.34595 -26.15334 -15.37322 -15.36940 -11.27312
 Alpha  occ. eigenvalues --  -11.15448 -11.10948 -11.09874 -10.39408  -7.56239
 Alpha  occ. eigenvalues --   -7.56059  -7.56049  -1.23410  -1.09538  -1.06582
 Alpha  occ. eigenvalues --   -0.94005  -0.83581  -0.78548  -0.73344  -0.59815
 Alpha  occ. eigenvalues --   -0.57831  -0.51846  -0.50243  -0.46717  -0.41812
 Alpha  occ. eigenvalues --   -0.40504  -0.39121  -0.38842  -0.36014  -0.34304
 Alpha  occ. eigenvalues --   -0.31389  -0.30623  -0.30097  -0.26799  -0.26133
 Alpha  occ. eigenvalues --   -0.25951
 Alpha virt. eigenvalues --    0.12418   0.14056   0.14375   0.15133   0.16808
 Alpha virt. eigenvalues --    0.17299   0.17717   0.19890   0.21056   0.23340
 Alpha virt. eigenvalues --    0.23573   0.24133   0.24992   0.25818   0.26452

 Mulliken charges:
               1
     1  C   -0.892886
     2  H    0.129027
     3  F   -0.887443
     4  Cl  -0.541668
     5  C    0.306510
     6  H    0.317319
     7  C   -1.879984
     8  N    1.036924
     9  N    0.611908
    10  H    0.228928
    11  H    0.331968
    12  C   -0.350741
    13  H    0.285808
    14  H    0.293273
    15  H    0.011058
 Sum of Mulliken charges =  -1.00000

 Dipole moment (field-independent basis, Debye):
    X=             -0.0033    Y=              2.3190    Z=             -2.8348  Tot=              3.6625

 Test job not archived.
 1\1\GINC-SE339\SP\RHF\Aug-CC-pVDZ\C4H7Cl1F1N2(1-)\OHZDE\09-Apr-2025\0\
 \#t hf aug-cc-pvdz iop(5/13=1,5/36=2,99/5=2) pseudo=read geom=check gu
 ess=(read,tcheck) scf=(maxcycle=1)\\title\\-1,1\C,0,0.72413781,-0.0323
 3162,0.02922078\H,0,1.51321932,1.90618131,0.39578425\F,0,-1.24804132,-
 0.16219674,0.24876881\Cl,0,2.90911141,-0.08764005,-0.51338984\C,0,0.57
 968166,1.47268997,0.03635387\H,0,-0.20543779,1.67490233,0.76389545\C,0
 ,0.40180896,-0.81160617,-1.15691127\N,0,0.1862498,-1.46711368,-2.11022
 038\N,0,0.88600936,-0.67622707,1.29552193\H,0,1.47367022,-1.49157364,1

 Normal termination of Gaussian 16 at Wed Apr  9 02:51:19 2025.
