 Gaussian 16, Revision C.01,

 ----------------------------------------------------------------------
 #t hf aug-cc-pvdz symm=none int=(grid=ultrafine) guess=(read,tcheck) s
 table=(opt,rrhf)
 ----------------------------------------------------------------------
 -----
 title
 -----
 Symbolic Z-matrix:
 Charge = -1 Multiplicity = 1

 SCF Done:  E(RHF) =  -927.987578857     A.U. after   16 cycles
 Normal termination of Gaussian 16 at Wed Apr  9 02:49:41 2025.
 Gaussian 16:  ES64L-G16RevC.01  3-Jul-2019

 ----------------------------------------------------------------------
 #t hf aug-cc-pvdz iop(5/13=1,5/36=2,99/5=2) pseudo=read geom=check gue
 ss=(read,tcheck) scf=(maxcycle=1)
 ----------------------------------------------------------------------
 -----
 title
 -----
 Structure from the checkpoint file:  "E2SN2_26_mol2.chk"
 Charge = -1 Multiplicity = 1

                         Standard orientation:
 ---------------------------------------------------------------------
 Center     Atomic      Atomic             Coordinates (Angstroms)
 Number     Number       Type             X           Y           Z
 ---------------------------------------------------------------------
      1          6           0        0.391100    0.038967    0.466130
      2          6           0       -0.614631   -1.060188    0.044955
      3         17           0        2.051251   -0.560198    0.175722
      4          1           0       -0.492654   -1.767293    0.876828
      5          7           0        0.190808    1.255131   -0.471816
      6          8           0        0.546027    1.143775   -1.641866
      7          8           0       -0.398356    2.222766    0.001116
      8          7           0        0.278601    0.433670    1.808813
      9          1           0       -0.598741    0.930698    1.928308
     10          1           0        0.207330   -0.487158    2.348446
     11          6           0       -0.445418   -1.735948   -1.313701
     12          1           0        0.537994   -2.200055   -1.377724
     13          1           0       -1.201934   -2.518565   -1.415548
     14          1           0       -0.555040   -1.029664   -2.138020
     15          6           0       -1.959759   -0.505679    0.169276
     16          7           0       -3.053693   -0.079967    0.239088
     17          1           0       -0.087352   -2.021691    2.683887
 ---------------------------------------------------------------------

 SCF Done:  E(RHF) =  -928.530077073     A.U. after    2 cycles

 The electronic state is 1-A.
 Alpha  occ. eigenvalues -- -105.46245 -20.49458 -20.48984 -15.68146 -15.41030
 Alpha  occ. eigenvalues --  -15.36984 -11.29688 -11.18061 -11.17681 -11.14219
 Alpha  occ. eigenvalues --  -10.51157  -7.68108  -7.67705  -7.67690  -1.56238
 Alpha  occ. eigenvalues --   -1.40261  -1.14844  -1.11085  -0.99897  -0.96049
 Alpha  occ. eigenvalues --   -0.91996  -0.81536  -0.73537  -0.67587  -0.65148
 Alpha  occ. eigenvalues --   -0.64489  -0.60027  -0.55005  -0.54374  -0.51630
 Alpha  occ. eigenvalues --   -0.50316  -0.46922  -0.45042  -0.44429  -0.40419
 Alpha  occ. eigenvalues --   -0.39355  -0.38934  -0.37342  -0.36361  -0.34939
 Alpha  occ. eigenvalues --   -0.34245  -0.33016  -0.11965
 Alpha virt. eigenvalues --    0.12077   0.13726   0.13989   0.15721   0.15827
 Alpha virt. eigenvalues --    0.17494   0.18493   0.19734   0.20228   0.20707
 Alpha virt. eigenvalues --    0.21830   0.22179   0.22838   0.23758   0.24764

 Mulliken charges:
               1
     1  C   -2.652123
     2  C    0.152640
     3  Cl   0.052465
     4  H    0.323072
     5  N    3.218532
     6  O   -1.585427
     7  O   -1.471155
     8  N    1.069151
     9  H    0.451111
    10  H    0.134843
    11  C    0.043917
    12  H    0.194657
    13  H    0.175199
    14  H    0.297142
    15  C   -1.835624
    16  N    1.069998
    17  H   -0.638399
 Sum of Mulliken charges =  -1.00000

 Dipole moment (field-independent basis, Debye):
    X=              2.5930    Y=              2.3058    Z=             -7.9635  Tot=              8.6866

 Test job not archived.
 1\1\GINC-SE054\SP\RHF\Aug-CC-pVDZ\C4H7Cl1N3O2(1-)\OHZDE\09-Apr-2025\0\
 \#t hf aug-cc-pvdz iop(5/13=1,5/36=2,99/5=2) pseudo=read geom=check gu
 ess=(read,tcheck) scf=(maxcycle=1)\\title\\-1,1\C,0,-0.176773,0.021184
 ,-1.485428\C,0,0.010192,-0.029531,0.050637\Cl,0,0.136571,-1.607211,-2.
 155937\H,0,1.10577,-0.080825,0.113618\N,0,-1.664625,0.338846,-1.775772
 \O,0,-2.496214,-0.531941,-1.535383\O,0,-1.921018,1.48182,-2.143156\N,0
 ,0.656059,0.947522,-2.133142\H,0,0.357629,1.884451,-1.87987\H,0,1.6195
 23,0.783906,-1.698199\C,0,-0.664267,-1.148249,0.841085\H,0,-0.328107,-

 Normal termination of Gaussian 16 at Wed Apr  9 02:49:51 2025.
