 Gaussian 16, Revision C.01,

 ----------------------------------------------------------------------
 #t hf aug-cc-pvdz symm=none int=(grid=ultrafine) guess=(read,tcheck) s
 table=(opt,rrhf)
 ----------------------------------------------------------------------
 -----
 title
 -----
 Symbolic Z-matrix:
 Charge = -1 Multiplicity = 1

 SCF Done:  E(RHF) =  -518.377455624     A.U. after   15 cycles
 Normal termination of Gaussian 16 at Wed Apr  9 02:53:29 2025.
 Gaussian 16:  ES64L-G16RevC.01  3-Jul-2019

 ----------------------------------------------------------------------
 #t hf aug-cc-pvdz iop(5/13=1,5/36=2,99/5=2) pseudo=read geom=check gue
 ss=(read,tcheck) scf=(maxcycle=1)
 ----------------------------------------------------------------------
 -----
 title
 -----
 Structure from the checkpoint file:  "E2SN2_318_mol1.chk"
 Charge = -1 Multiplicity = 1

                         Standard orientation:
 ---------------------------------------------------------------------
 Center     Atomic      Atomic             Coordinates (Angstroms)
 Number     Number       Type             X           Y           Z
 ---------------------------------------------------------------------
      1          6           0        0.268572    0.287855    0.139803
      2          1           0       -0.886831    0.338966   -1.628026
      3          9           0       -0.149865   -0.770660    1.518534
      4          9           0        0.886334    1.358588   -1.242678
      5          6           0       -1.000287   -0.087561   -0.633344
      6          6           0        1.480951   -0.501644   -0.078447
      7          7           0        2.489901   -1.096288   -0.177060
      8          7           0        0.296970    1.437794    1.002465
      9          1           0        0.970849    2.070211    0.595780
     10          1           0        0.582246    1.115436    1.916118
     11          6           0       -2.226672    0.521016    0.039680
     12          1           0       -2.306261    0.138560    1.057538
     13          1           0       -2.150052    1.608414    0.081632
     14          1           0       -3.125322    0.247099   -0.526900
     15          7           0       -1.053531   -1.543744   -0.781997
     16          1           0       -1.920430   -1.789648   -1.246797
     17          1           0       -1.061180   -1.922715    0.157936
 ---------------------------------------------------------------------

 SCF Done:  E(RHF) =  -518.890927404     A.U. after    2 cycles

 The electronic state is 1-A.
 Alpha  occ. eigenvalues --  -26.18965 -26.15893 -15.35526 -15.35392 -15.34270
 Alpha  occ. eigenvalues --  -11.25967 -11.13753 -11.12658 -11.08816  -1.28144
 Alpha  occ. eigenvalues --   -1.24403  -1.06727  -1.05063  -1.04151  -0.87312
 Alpha  occ. eigenvalues --   -0.81399  -0.69201  -0.60225  -0.57408  -0.57314
 Alpha  occ. eigenvalues --   -0.49339  -0.46693  -0.45914  -0.44773  -0.42768
 Alpha  occ. eigenvalues --   -0.41037  -0.37917  -0.35598  -0.35285  -0.33839
 Alpha  occ. eigenvalues --   -0.32994  -0.32778  -0.31474  -0.30340  -0.29208
 Alpha  occ. eigenvalues --   -0.27777
 Alpha virt. eigenvalues --    0.12296   0.13471   0.14148   0.14724   0.16012
 Alpha virt. eigenvalues --    0.16346   0.17591   0.17843   0.19665   0.22416
 Alpha virt. eigenvalues --    0.23931   0.24157   0.25901   0.26153   0.26748

 Mulliken charges:
               1
     1  C    0.862387
     2  H    0.108644
     3  F   -0.905031
     4  F   -0.897058
     5  C   -1.570232
     6  C   -2.888853
     7  N    1.225377
     8  N    0.483178
     9  H    0.440719
    10  H    0.415033
    11  C    0.060464
    12  H    0.290931
    13  H    0.250459
    14  H    0.039578
    15  N    0.683480
    16  H    0.161360
    17  H    0.239564
 Sum of Mulliken charges =  -1.00000

 Dipole moment (field-independent basis, Debye):
    X=             -5.5624    Y=              1.2711    Z=              1.2163  Tot=              5.8339

 Test job not archived.
 1\1\GINC-SE132\SP\RHF\Aug-CC-pVDZ\C4H8F2N3(1-)\OHZDE\09-Apr-2025\0\\#t
  hf aug-cc-pvdz iop(5/13=1,5/36=2,99/5=2) pseudo=read geom=check guess
 =(read,tcheck) scf=(maxcycle=1)\\title\\-1,1\C,0,0.65289646,-0.0085158
 ,0.0155158\H,0,1.69133034,1.8266367,-0.1135542\F,0,-1.12799526,-0.1038
 0866,-0.11012834\F,0,2.50549325,-0.08104665,0.05999705\C,0,0.65054886,
 1.52366611,-0.01778515\C,0,0.76560315,-0.73626634,-1.24879519\N,0,0.82
 935244,-1.3973321,-2.21845152\N,0,0.62533676,-0.72201294,1.26351958\H,
 0,1.49812232,-1.22745343,1.31077071\H,0,-0.17118466,-1.34220855,1.2323

 Normal termination of Gaussian 16 at Wed Apr  9 02:53:37 2025.
