 Gaussian 16, Revision C.01,

 ----------------------------------------------------------------------
 #t hf aug-cc-pvdz symm=none int=(grid=ultrafine) guess=(read,tcheck) s
 table=(opt,rrhf)
 ----------------------------------------------------------------------
 -----
 title
 -----
 Symbolic Z-matrix:
 Charge = -1 Multiplicity = 1

 SCF Done:  E(RHF) =  -1042.92172842     A.U. after   17 cycles
 Normal termination of Gaussian 16 at Wed Apr  9 02:54:15 2025.
 Gaussian 16:  ES64L-G16RevC.01  3-Jul-2019

 ----------------------------------------------------------------------
 #t hf aug-cc-pvdz iop(5/13=1,5/36=2,99/5=2) pseudo=read geom=check gue
 ss=(read,tcheck) scf=(maxcycle=1)
 ----------------------------------------------------------------------
 -----
 title
 -----
 Structure from the checkpoint file:  "E2SN2_321_mol1.chk"
 Charge = -1 Multiplicity = 1

                         Standard orientation:
 ---------------------------------------------------------------------
 Center     Atomic      Atomic             Coordinates (Angstroms)
 Number     Number       Type             X           Y           Z
 ---------------------------------------------------------------------
      1          6           0       -0.702450   -0.306350   -0.239462
      2          1           0        0.735436    0.608273   -1.522211
      3          9           0       -0.483167   -2.182403    0.217957
      4         17           0       -1.128056    1.885818   -0.462515
      5          6           0        0.749925   -0.155088   -0.752127
      6          6           0       -1.107026   -0.248657    1.153553
      7          7           0       -1.532056   -0.181240    2.248821
      8          7           0       -1.609927   -0.711546   -1.275715
      9          1           0       -2.408138   -0.092166   -1.284989
     10          1           0       -1.881142   -1.653213   -1.020171
     11          7           0        1.389666   -1.335122   -1.254399
     12          1           0        1.048729   -1.472604   -2.197579
     13          1           0        1.023780   -2.098430   -0.686367
     14          7           0        1.643312    0.400502    0.321299
     15          8           0        2.318898    1.387920    0.039524
     16          8           0        1.696993   -0.220011    1.380554
 ---------------------------------------------------------------------

 SCF Done:  E(RHF) =  -1043.56416858     A.U. after    2 cycles

 The electronic state is 1-A.
 Alpha  occ. eigenvalues -- -105.37005 -26.19680 -20.46840 -20.46801 -15.66022
 Alpha  occ. eigenvalues --  -15.40283 -15.38585 -15.38492 -11.31225 -11.23126
 Alpha  occ. eigenvalues --  -11.17090 -10.41850  -7.58684  -7.58493  -7.58483
 Alpha  occ. eigenvalues --   -1.53803  -1.37778  -1.28374  -1.13485  -1.10197
 Alpha  occ. eigenvalues --   -1.08141  -0.96626  -0.87914  -0.81586  -0.75448
 Alpha  occ. eigenvalues --   -0.68691  -0.64429  -0.63241  -0.61300  -0.60834
 Alpha  occ. eigenvalues --   -0.58523  -0.53898  -0.49184  -0.48027  -0.43243
 Alpha  occ. eigenvalues --   -0.40819  -0.39679  -0.36794  -0.36474  -0.36190
 Alpha  occ. eigenvalues --   -0.35241  -0.34144  -0.32890  -0.32179  -0.29198
 Alpha  occ. eigenvalues --   -0.28802  -0.28243
 Alpha virt. eigenvalues --    0.12603   0.13439   0.14786   0.15927   0.16524
 Alpha virt. eigenvalues --    0.18133   0.19118   0.19242   0.21590   0.22027
 Alpha virt. eigenvalues --    0.22490   0.24308   0.24701   0.24888   0.25474

 Mulliken charges:
               1
     1  C   -0.030282
     2  H    0.096438
     3  F   -0.903088
     4  Cl  -0.480625
     5  C   -1.368220
     6  C   -2.092246
     7  N    1.116357
     8  N    0.644508
     9  H    0.266828
    10  H    0.317597
    11  N    0.579852
    12  H    0.288414
    13  H    0.337589
    14  N    3.154668
    15  O   -1.481201
    16  O   -1.446591
 Sum of Mulliken charges =  -1.00000

 Dipole moment (field-independent basis, Debye):
    X=             -0.0308    Y=             -1.3848    Z=             -5.3102  Tot=              5.4879

 Test job not archived.
 1\1\GINC-SE227\SP\RHF\Aug-CC-pVDZ\C3H5Cl1F1N4O2(1-)\OHZDE\09-Apr-2025\
 0\\#t hf aug-cc-pvdz iop(5/13=1,5/36=2,99/5=2) pseudo=read geom=check
 guess=(read,tcheck) scf=(maxcycle=1)\\title\\-1,1\C,0,0.76901099,0.027
 32113,0.03953356\H,0,1.60939278,1.96607558,0.33019781\F,0,-1.08214909,
 -0.2718544,0.55001892\Cl,0,2.85685059,0.1111683,-0.77923892\C,0,0.6353
 1391,1.56890525,0.06678892\C,0,0.36532313,-0.8269632,-1.06261691\N,0,0
 .1017022,-1.59279181,-1.91632521\N,0,1.15982058,-0.51138526,1.31176786
 \H,0,1.94983604,-1.12883099,1.18728732\H,0,0.3449902,-1.02060974,1.631

 Normal termination of Gaussian 16 at Wed Apr  9 02:54:25 2025.
