 Gaussian 16, Revision C.01,

 ----------------------------------------------------------------------
 #t hf aug-cc-pvdz symm=none int=(grid=ultrafine) guess=(read,tcheck) s
 table=(opt,rrhf)
 ----------------------------------------------------------------------
 -----
 title
 -----
 Symbolic Z-matrix:
 Charge = -1 Multiplicity = 1

 SCF Done:  E(RHF) =  -1295.27376954     A.U. after   16 cycles
 Normal termination of Gaussian 16 at Wed Apr  9 03:00:40 2025.
 Gaussian 16:  ES64L-G16RevC.01  3-Jul-2019

 ----------------------------------------------------------------------
 #t hf aug-cc-pvdz iop(5/13=1,5/36=2,99/5=2) pseudo=read geom=check gue
 ss=(read,tcheck) scf=(maxcycle=1)
 ----------------------------------------------------------------------
 -----
 title
 -----
 Structure from the checkpoint file:  "E2SN2_41_mol1.chk"
 Charge = -1 Multiplicity = 1

                         Standard orientation:
 ---------------------------------------------------------------------
 Center     Atomic      Atomic             Coordinates (Angstroms)
 Number     Number       Type             X           Y           Z
 ---------------------------------------------------------------------
      1          6           0       -0.254656    0.151300   -0.472891
      2          6           0        0.549086   -0.953148   -0.274963
      3         17           0       -2.755656   -0.855545   -0.251897
      4         17           0        3.317675    0.030707   -0.308832
      5          1           0        1.854577   -0.344008   -0.280139
      6          1           0        0.668052   -1.507902   -1.206786
      7          7           0       -0.523356    1.089822    0.644409
      8          8           0       -1.046446    2.166841    0.357688
      9          8           0       -0.174491    0.757279    1.773474
     10          7           0       -0.494286    0.717320   -1.683106
     11          1           0       -0.799424    0.026517   -2.352991
     12          1           0       -1.157068    1.477023   -1.605729
     13          6           0        0.556944   -1.800081    0.975425
     14          1           0       -0.475009   -1.996661    1.279082
     15          1           0        1.056442   -2.746604    0.756818
     16          1           0        1.080871   -1.317513    1.798305
 ---------------------------------------------------------------------

 SCF Done:  E(RHF) =  -1295.80975044     A.U. after    2 cycles

 The electronic state is 1-A.
 Alpha  occ. eigenvalues -- -105.38831-105.30588 -20.49351 -20.49201 -15.69190
 Alpha  occ. eigenvalues --  -15.43296 -11.28375 -11.13147 -11.11794 -10.43606
 Alpha  occ. eigenvalues --  -10.35243  -7.60488  -7.60268  -7.60263  -7.52019
 Alpha  occ. eigenvalues --   -7.51959  -7.51954  -1.56442  -1.40360  -1.17392
 Alpha  occ. eigenvalues --   -1.00167  -0.93092  -0.86265  -0.80725  -0.76305
 Alpha  occ. eigenvalues --   -0.73860  -0.67971  -0.64195  -0.63900  -0.61656
 Alpha  occ. eigenvalues --   -0.55070  -0.50995  -0.46022  -0.44586  -0.43220
 Alpha  occ. eigenvalues --   -0.41656  -0.39130  -0.37977  -0.34589  -0.30596
 Alpha  occ. eigenvalues --   -0.30546  -0.26145  -0.23130  -0.23074  -0.20848
 Alpha virt. eigenvalues --    0.11894   0.12716   0.12896   0.13847   0.15540
 Alpha virt. eigenvalues --    0.16194   0.17018   0.17776   0.21343   0.21976
 Alpha virt. eigenvalues --    0.23271   0.24194   0.24766   0.25100   0.25538

 Mulliken charges:
               1
     1  C   -1.723194
     2  C   -0.285439
     3  Cl  -0.912667
     4  Cl  -0.572004
     5  H    0.963405
     6  H   -0.066563
     7  N    3.070960
     8  O   -1.471259
     9  O   -1.531234
    10  N    0.863888
    11  H    0.225493
    12  H    0.208666
    13  C   -0.349540
    14  H    0.215889
    15  H    0.118359
    16  H    0.245241
 Sum of Mulliken charges =  -1.00000

 Dipole moment (field-independent basis, Debye):
    X=              2.5671    Y=              0.5781    Z=             -1.5630  Tot=              3.0606

 Test job not archived.
 1\1\GINC-SE090\SP\RHF\Aug-CC-pVDZ\C3H7Cl2N2O2(1-)\OHZDE\09-Apr-2025\0\
 \#t hf aug-cc-pvdz iop(5/13=1,5/36=2,99/5=2) pseudo=read geom=check gu
 ess=(read,tcheck) scf=(maxcycle=1)\\title\\-1,1\C,0,-0.53886534,0.1172
 8673,-0.12624694\C,0,-0.24722202,-0.012365,1.21655537\Cl,0,1.90122934,
 0.10322726,-1.29385751\Cl,0,-2.83146367,-0.19423385,2.60321386\H,0,-1.
 57140632,-0.12241806,1.77316058\H,0,-0.01184577,0.9609357,1.64954918\N
 ,0,-0.93732163,-1.06963722,-0.92237936\O,0,-1.4059644,-0.86164748,-2.0
 4171666\O,0,-0.81522683,-2.17717458,-0.40707952\N,0,-0.91384748,1.2788

 Normal termination of Gaussian 16 at Wed Apr  9 03:00:48 2025.
