 Gaussian 16, Revision C.01,

 ----------------------------------------------------------------------
 #t hf aug-cc-pvdz symm=none int=(grid=ultrafine) guess=(read,tcheck) s
 table=(opt,rrhf)
 ----------------------------------------------------------------------
 -----
 title
 -----
 Symbolic Z-matrix:
 Charge = -1 Multiplicity = 1

 SCF Done:  E(RHF) =  -1334.29608865     A.U. after   16 cycles
 Normal termination of Gaussian 16 at Wed Apr  9 02:46:30 2025.
 Gaussian 16:  ES64L-G16RevC.01  3-Jul-2019

 ----------------------------------------------------------------------
 #t hf aug-cc-pvdz iop(5/13=1,5/36=2,99/5=2) pseudo=read geom=check gue
 ss=(read,tcheck) scf=(maxcycle=1)
 ----------------------------------------------------------------------
 -----
 title
 -----
 Structure from the checkpoint file:  "E2SN2_235_mol1.chk"
 Charge = -1 Multiplicity = 1

                         Standard orientation:
 ---------------------------------------------------------------------
 Center     Atomic      Atomic             Coordinates (Angstroms)
 Number     Number       Type             X           Y           Z
 ---------------------------------------------------------------------
      1          6           0        0.087955   -0.009124    0.288143
      2          1           0        0.805169    1.094786   -1.336553
      3         17           0       -2.371058   -0.285322    0.481444
      4         17           0        2.419308   -0.381554    0.029423
      5          6           0        0.197882    1.320451   -0.456681
      6          7           0       -0.074289   -1.234217   -0.557968
      7          8           0       -0.219763   -1.046569   -1.762699
      8          8           0       -0.028871   -2.325183   -0.009895
      9          6           0        0.125912   -0.123369    1.785189
     10          1           0        1.115440    0.121034    2.161444
     11          1           0       -0.598474    0.565754    2.209795
     12          1           0       -0.133227   -1.141536    2.065244
     13          7           0        0.857555    2.265807    0.450560
     14          1           0        0.864256    3.172767   -0.002041
     15          1           0        1.821141    1.965411    0.555054
     16          6           0       -1.084043    1.964745   -0.966757
     17          1           0       -1.633654    1.279361   -1.605438
     18          1           0       -1.726143    2.269894   -0.143848
     19          1           0       -0.794794    2.846096   -1.555149
 ---------------------------------------------------------------------

 SCF Done:  E(RHF) =  -1334.87440106     A.U. after    2 cycles

 The electronic state is 1-A.
 Alpha  occ. eigenvalues -- -105.35236-105.32745 -20.45655 -20.45550 -15.66823
 Alpha  occ. eigenvalues --  -15.37735 -11.29303 -11.16855 -11.11833 -11.10954
 Alpha  occ. eigenvalues --  -10.40059 -10.37560  -7.56879  -7.56725  -7.56713
 Alpha  occ. eigenvalues --   -7.54373  -7.54235  -7.54234  -1.53490  -1.37300
 Alpha  occ. eigenvalues --   -1.09789  -1.01437  -0.88889  -0.86945  -0.82142
 Alpha  occ. eigenvalues --   -0.78849  -0.76338  -0.69204  -0.61794  -0.60940
 Alpha  occ. eigenvalues --   -0.60441  -0.58057  -0.53400  -0.50402  -0.47364
 Alpha  occ. eigenvalues --   -0.45377  -0.43029  -0.41785  -0.40653  -0.36849
 Alpha  occ. eigenvalues --   -0.35340  -0.33525  -0.31789  -0.28719  -0.27606
 Alpha  occ. eigenvalues --   -0.27173  -0.25108  -0.24732  -0.24492
 Alpha virt. eigenvalues --    0.11542   0.12866   0.14008   0.14243   0.14613
 Alpha virt. eigenvalues --    0.15477   0.16032   0.16651   0.17455   0.17929
 Alpha virt. eigenvalues --    0.21427   0.21802   0.22646   0.23647   0.24364

 Mulliken charges:
               1
     1  C   -1.214978
     2  H    0.241303
     3  Cl  -0.727907
     4  Cl  -0.655849
     5  C   -1.404295
     6  N    3.376655
     7  O   -1.515254
     8  O   -1.555567
     9  C   -0.063860
    10  H    0.234328
    11  H    0.416031
    12  H    0.252325
    13  N    0.608417
    14  H    0.136992
    15  H    0.228798
    16  C    0.007194
    17  H    0.296863
    18  H    0.306027
    19  H    0.032776
 Sum of Mulliken charges =  -1.00000

 Dipole moment (field-independent basis, Debye):
    X=              1.4889    Y=              4.5647    Z=             -0.1006  Tot=              4.8025

 Test job not archived.
 1\1\GINC-SE023\SP\RHF\Aug-CC-pVDZ\C4H9Cl2N2O2(1-)\OHZDE\09-Apr-2025\0\
 \#t hf aug-cc-pvdz iop(5/13=1,5/36=2,99/5=2) pseudo=read geom=check gu
 ess=(read,tcheck) scf=(maxcycle=1)\\title\\-1,1\C,0,0.61214649,-0.0604
 0322,0.00082045\H,0,1.64773117,1.58172477,-0.77611643\Cl,0,-1.67233451
 ,-0.48374034,-0.8722935\Cl,0,2.91430811,-0.22307638,0.56156444\C,0,0.7
 4251348,1.45140695,-0.17820722\N,0,0.97007074,-0.90391909,-1.18385256\
 O,0,1.22350653,-0.30084276,-2.22299726\O,0,1.01000728,-2.11638677,-1.0
 3900722\C,0,0.14505018,-0.7045469,1.2746104\H,0,0.88296238,-0.5735026,

 Normal termination of Gaussian 16 at Wed Apr  9 02:46:42 2025.
