 Gaussian 16, Revision C.01,

 ----------------------------------------------------------------------
 #t hf aug-cc-pvdz symm=none int=(grid=ultrafine) guess=(read,tcheck) s
 table=(opt,rrhf)
 ----------------------------------------------------------------------
 -----
 title
 -----
 Symbolic Z-matrix:
 Charge = -1 Multiplicity = 1

 SCF Done:  E(RHF) =  -876.216700455     A.U. after   15 cycles
 Normal termination of Gaussian 16 at Wed Apr  9 02:41:39 2025.
 Gaussian 16:  ES64L-G16RevC.01  3-Jul-2019

 ----------------------------------------------------------------------
 #t hf aug-cc-pvdz iop(5/13=1,5/36=2,99/5=2) pseudo=read geom=check gue
 ss=(read,tcheck) scf=(maxcycle=1)
 ----------------------------------------------------------------------
 -----
 title
 -----
 Structure from the checkpoint file:  "E2SN2_201_mol2.chk"
 Charge = -1 Multiplicity = 1

                         Standard orientation:
 ---------------------------------------------------------------------
 Center     Atomic      Atomic             Coordinates (Angstroms)
 Number     Number       Type             X           Y           Z
 ---------------------------------------------------------------------
      1          6           0       -0.182946   -0.680720   -0.893419
      2          6           0       -0.446227    0.339687    0.221067
      3          9           0       -1.397517   -1.178285   -1.353055
      4          1           0        0.559638    0.699136    0.518657
      5          1           0        0.268501   -0.145868   -1.738364
      6          7           0        0.586764   -1.755096   -0.359199
      7          1           0        0.816637   -2.392415   -1.113528
      8          1           0        1.464336   -1.343664   -0.030406
      9          6           0       -1.121423   -0.278789    1.363640
     10          7           0       -1.676708   -0.733119    2.292286
     11          6           0       -1.239411    1.462237   -0.281815
     12          7           0       -1.871828    2.354996   -0.707087
     13         17           0        2.831822    0.568553    0.206018
 ---------------------------------------------------------------------

 SCF Done:  E(RHF) =  -876.698297354     A.U. after    2 cycles

 The electronic state is 1-A.
 Alpha  occ. eigenvalues -- -105.30771 -26.35664 -15.42924 -15.42085 -15.38770
 Alpha  occ. eigenvalues --  -11.26773 -11.21580 -11.20230 -11.19551 -10.35398
 Alpha  occ. eigenvalues --   -7.52168  -7.52135  -7.52116  -1.48493  -1.13900
 Alpha  occ. eigenvalues --   -1.12274  -1.10368  -0.99344  -0.79447  -0.76470
 Alpha  occ. eigenvalues --   -0.69659  -0.64830  -0.61392  -0.60418  -0.55633
 Alpha  occ. eigenvalues --   -0.53483  -0.51439  -0.50746  -0.47397  -0.46966
 Alpha  occ. eigenvalues --   -0.41052  -0.40602  -0.39444  -0.38268  -0.35121
 Alpha  occ. eigenvalues --   -0.23620  -0.23252  -0.23116
 Alpha virt. eigenvalues --    0.12644   0.14383   0.15414   0.17605   0.18252
 Alpha virt. eigenvalues --    0.18395   0.20490   0.21760   0.21932   0.22789
 Alpha virt. eigenvalues --    0.23898   0.24353   0.24747   0.24998   0.25551

 Mulliken charges:
               1
     1  C    0.515636
     2  C    0.214103
     3  F   -0.853776
     4  H    0.360228
     5  H    0.050274
     6  N    0.276970
     7  H    0.227101
     8  H    0.158139
     9  C   -1.428715
    10  N    0.946267
    11  C   -1.438278
    12  N    0.904616
    13  Cl  -0.932565
 Sum of Mulliken charges =  -1.00000

 Dipole moment (field-independent basis, Debye):
    X=             -3.2736    Y=             -2.8823    Z=             -3.3473  Tot=              5.4981

 Test job not archived.
 1\1\GINC-SE322\SP\RHF\Aug-CC-pVDZ\C4H4Cl1F1N3(1-)\OHZDE\09-Apr-2025\0\
 \#t hf aug-cc-pvdz iop(5/13=1,5/36=2,99/5=2) pseudo=read geom=check gu
 ess=(read,tcheck) scf=(maxcycle=1)\\title\\-1,1\C,0,-0.023575,0.060853
 ,0.023203\C,0,-0.514437,0.434853,-1.381006\F,0,1.353477,0.243601,0.089
 154\H,0,-1.611999,0.280776,-1.347174\H,0,-0.461592,0.77387,0.732816\N,
 0,-0.321808,-1.312394,0.262745\H,0,-0.058267,-1.537427,1.215601\H,0,-1
 .339561,-1.400259,0.19972\C,0,0.086129,-0.423864,-2.40365\N,0,0.557937
 ,-1.0802,-3.254392\C,0,-0.224994,1.839444,-1.673407\N,0,0.012374,2.969

 Normal termination of Gaussian 16 at Wed Apr  9 02:41:45 2025.
