 Gaussian 16, Revision C.01,

 ----------------------------------------------------------------------
 #t hf aug-cc-pvdz symm=none int=(grid=ultrafine) guess=(read,tcheck) s
 table=(opt,rrhf)
 ----------------------------------------------------------------------
 -----
 title
 -----
 Symbolic Z-matrix:
 Charge = -1 Multiplicity = 1

 SCF Done:  E(RHF) =  -726.785870416     A.U. after   15 cycles
 Normal termination of Gaussian 16 at Wed Apr  9 02:56:22 2025.
 Gaussian 16:  ES64L-G16RevC.01  3-Jul-2019

 ----------------------------------------------------------------------
 #t hf aug-cc-pvdz iop(5/13=1,5/36=2,99/5=2) pseudo=read geom=check gue
 ss=(read,tcheck) scf=(maxcycle=1)
 ----------------------------------------------------------------------
 -----
 title
 -----
 Structure from the checkpoint file:  "E2SN2_365_mol1.chk"
 Charge = -1 Multiplicity = 1

                         Standard orientation:
 ---------------------------------------------------------------------
 Center     Atomic      Atomic             Coordinates (Angstroms)
 Number     Number       Type             X           Y           Z
 ---------------------------------------------------------------------
      1          6           0        0.354381    0.661253    0.195883
      2          1           0       -1.584758    1.317004    0.634421
      3         17           0        0.986557   -1.351575   -0.441138
      4          1           0        0.034529    2.665188    0.882489
      5          6           0       -1.171856    0.391477    0.244242
      6          6           0        0.957741    1.367153   -1.020405
      7          1           0        0.923101    0.727692   -1.906090
      8          1           0        0.443475    2.301637   -1.212257
      9          1           0        2.002804    1.600107   -0.803215
     10          7           0        1.040539    0.543199    1.474801
     11          1           0        1.161552    1.497353    1.781912
     12          1           0        1.932727    0.085614    1.326926
     13          7           0       -1.567162   -0.665965    1.172443
     14          1           0       -1.066371   -0.464146    2.034121
     15          1           0       -1.141637   -1.522729    0.830621
     16          6           0       -1.792045    0.143590   -1.123908
     17          1           0       -1.615599    0.985063   -1.798375
     18          1           0       -1.393545   -0.762248   -1.584605
     19          1           0       -2.870721    0.024762   -0.992188
 ---------------------------------------------------------------------

 SCF Done:  E(RHF) =  -727.161672535     A.U. after    2 cycles

 The electronic state is 1-A.
 Alpha  occ. eigenvalues -- -105.34703 -15.34764 -15.33701 -11.22547 -11.12173
 Alpha  occ. eigenvalues --  -11.09535 -11.09191 -10.39586  -7.56409  -7.56249
 Alpha  occ. eigenvalues --   -7.56236  -1.07674  -1.02969  -0.89847  -0.84372
 Alpha  occ. eigenvalues --   -0.80905  -0.73921  -0.62508  -0.56255  -0.54824
 Alpha  occ. eigenvalues --   -0.52562  -0.49357  -0.47010  -0.43835  -0.41888
 Alpha  occ. eigenvalues --   -0.40564  -0.38614  -0.37334  -0.31729  -0.29349
 Alpha  occ. eigenvalues --   -0.27832  -0.27086  -0.26288  -0.10240
 Alpha virt. eigenvalues --    0.12961   0.13559   0.13922   0.14994   0.15249
 Alpha virt. eigenvalues --    0.15673   0.16535   0.17099   0.17637   0.18648
 Alpha virt. eigenvalues --    0.19269   0.21005   0.23693   0.24633   0.25324

 Mulliken charges:
               1
     1  C   -1.820336
     2  H    0.092931
     3  Cl  -0.607870
     4  H   -0.677991
     5  C   -1.414333
     6  C   -0.194710
     7  H    0.301346
     8  H    0.203919
     9  H    0.109128
    10  N    0.537320
    11  H    0.406285
    12  H    0.251850
    13  N    0.647335
    14  H    0.287203
    15  H    0.270961
    16  C    0.044289
    17  H    0.232257
    18  H    0.229147
    19  H    0.101269
 Sum of Mulliken charges =  -1.00000

 Dipole moment (field-independent basis, Debye):
    X=              0.4585    Y=             -3.6071    Z=             -2.8399  Tot=              4.6138

 Test job not archived.
 1\1\GINC-SE403\SP\RHF\Aug-CC-pVDZ\C4H12Cl1N2(1-)\OHZDE\09-Apr-2025\0\\
 #t hf aug-cc-pvdz iop(5/13=1,5/36=2,99/5=2) pseudo=read geom=check gue
 ss=(read,tcheck) scf=(maxcycle=1)\\title\\-1,1\C,0,0.63395089,0.010397
 87,0.0201921\H,0,1.70065613,1.79949433,-0.18923482\Cl,0,-1.52249623,-0
 .23843205,0.40063602\H,0,2.75732229,-0.03890636,-0.25972344\C,0,0.6475
 3901,1.55771362,-0.08054068\C,0,0.6278095,-0.82906929,-1.25924182\H,0,
 -0.32440226,-0.73714067,-1.78781598\H,0,1.44632146,-0.54016839,-1.9081
 7164\H,0,0.77200675,-1.8772715,-0.9870747\N,0,0.99251294,-0.5239699,1.

 Normal termination of Gaussian 16 at Wed Apr  9 02:56:31 2025.
