 Gaussian 16, Revision C.01,

 ----------------------------------------------------------------------
 #t hf aug-cc-pvdz symm=none int=(grid=ultrafine) guess=(read,tcheck) s
 table=(opt,rrhf)
 ----------------------------------------------------------------------
 -----
 title
 -----
 Symbolic Z-matrix:
 Charge = -1 Multiplicity = 1

 SCF Done:  E(RHF) =  -1348.02738310     A.U. after   16 cycles
 Normal termination of Gaussian 16 at Wed Apr  9 02:51:47 2025.
 Gaussian 16:  ES64L-G16RevC.01  3-Jul-2019

 ----------------------------------------------------------------------
 #t hf aug-cc-pvdz iop(5/13=1,5/36=2,99/5=2) pseudo=read geom=check gue
 ss=(read,tcheck) scf=(maxcycle=1)
 ----------------------------------------------------------------------
 -----
 title
 -----
 Structure from the checkpoint file:  "E2SN2_294_mol2.chk"
 Charge = -1 Multiplicity = 1

                         Standard orientation:
 ---------------------------------------------------------------------
 Center     Atomic      Atomic             Coordinates (Angstroms)
 Number     Number       Type             X           Y           Z
 ---------------------------------------------------------------------
      1          6           0        0.166419   -0.729511   -0.214292
      2          6           0       -0.041175    0.775418   -0.317184
      3         17           0        1.764402   -1.136070   -1.030071
      4          1           0       -0.951875    1.049325    0.226402
      5          1           0       -0.149293    1.033636   -1.367426
      6          6           0        0.326036   -1.215028    1.169050
      7          7           0        0.381419   -1.719187    2.229681
      8          7           0       -0.899268   -1.347031   -0.919213
      9          1           0       -1.784379   -0.846669   -0.732094
     10          1           0       -0.994181   -2.319929   -0.657450
     11          7           0        1.100220    1.556382    0.216399
     12          8           0        1.607918    2.395490   -0.526439
     13          8           0        1.444614    1.335645    1.375590
     14         17           0       -3.371744    0.478313   -0.074409
 ---------------------------------------------------------------------

 SCF Done:  E(RHF) =  -1348.59899748     A.U. after    2 cycles

 The electronic state is 1-A.
 Alpha  occ. eigenvalues -- -105.47594-105.30579 -20.50062 -20.49851 -15.69441
 Alpha  occ. eigenvalues --  -15.42984 -15.40552 -11.30207 -11.21623 -11.19882
 Alpha  occ. eigenvalues --  -10.52468 -10.35210  -7.69395  -7.69027  -7.69014
 Alpha  occ. eigenvalues --   -7.51987  -7.51946  -7.51925  -1.57000  -1.40915
 Alpha  occ. eigenvalues --   -1.16733  -1.11975  -1.04014  -0.97758  -0.85690
 Alpha  occ. eigenvalues --   -0.78819  -0.76148  -0.71018  -0.66576  -0.66060
 Alpha  occ. eigenvalues --   -0.63373  -0.59638  -0.55246  -0.53227  -0.50900
 Alpha  occ. eigenvalues --   -0.47881  -0.42349  -0.40784  -0.39709  -0.38821
 Alpha  occ. eigenvalues --   -0.38056  -0.36940  -0.36101  -0.35486  -0.23562
 Alpha  occ. eigenvalues --   -0.23087  -0.22879
 Alpha virt. eigenvalues --    0.13237   0.14668   0.14917   0.15940   0.16963
 Alpha virt. eigenvalues --    0.17929   0.18579   0.20396   0.21422   0.21691
 Alpha virt. eigenvalues --    0.22623   0.23146   0.24524   0.24909   0.25537

 Mulliken charges:
               1
     1  C   -1.762636
     2  C    0.243329
     3  Cl  -0.002904
     4  H    0.251332
     5  H    0.165987
     6  C   -1.015490
     7  N    0.927740
     8  N    0.791654
     9  H    0.129190
    10  H    0.192198
    11  N    2.822361
    12  O   -1.409271
    13  O   -1.399856
    14  Cl  -0.933633
 Sum of Mulliken charges =  -1.00000

 Dipole moment (field-independent basis, Debye):
    X=              7.4179    Y=             -1.5409    Z=             -2.8297  Tot=              8.0874

 Test job not archived.
 1\1\GINC-SE162\SP\RHF\Aug-CC-pVDZ\C3H4Cl2N3O2(1-)\OHZDE\09-Apr-2025\0\
 \#t hf aug-cc-pvdz iop(5/13=1,5/36=2,99/5=2) pseudo=read geom=check gu
 ess=(read,tcheck) scf=(maxcycle=1)\\title\\-1,1\C,0,0.028584,0.036674,
 0.021463\C,0,-0.589062,-0.032382,-1.368586\Cl,0,1.838328,-0.245614,-0.
 150221\H,0,-1.656027,0.20548,-1.298629\H,0,-0.462759,-1.043081,-1.7479
 41\C,0,-0.07782,1.364295,0.654662\N,0,-0.17998,2.35233,1.283575\N,0,-0
 .546786,-1.011069,0.786393\H,0,-1.556685,-1.08746,0.578872\H,0,-0.4117
 93,-0.855674,1.777195\N,0,0.054633,0.888156,-2.335884\O,0,0.473941,0.4

 Normal termination of Gaussian 16 at Wed Apr  9 02:51:54 2025.
