 Gaussian 16, Revision C.01,

 ----------------------------------------------------------------------
 #t hf aug-cc-pvdz symm=none int=(grid=ultrafine) guess=(read,tcheck) s
 table=(opt,rrhf)
 ----------------------------------------------------------------------
 -----
 title
 -----
 Symbolic Z-matrix:
 Charge = -1 Multiplicity = 1

 SCF Done:  E(RHF) =  -951.202982580     A.U. after   16 cycles
 Normal termination of Gaussian 16 at Wed Apr  9 02:42:25 2025.
 Gaussian 16:  ES64L-G16RevC.01  3-Jul-2019

 ----------------------------------------------------------------------
 #t hf aug-cc-pvdz iop(5/13=1,5/36=2,99/5=2) pseudo=read geom=check gue
 ss=(read,tcheck) scf=(maxcycle=1)
 ----------------------------------------------------------------------
 -----
 title
 -----
 Structure from the checkpoint file:  "E2SN2_205_mol1.chk"
 Charge = -1 Multiplicity = 1

                         Standard orientation:
 ---------------------------------------------------------------------
 Center     Atomic      Atomic             Coordinates (Angstroms)
 Number     Number       Type             X           Y           Z
 ---------------------------------------------------------------------
      1          6           0       -0.944876   -0.095259   -0.308595
      2          1           0       -0.040169   -1.688753    0.681545
      3         17           0       -0.170777    1.950535   -0.539036
      4          9           0       -1.678098   -1.934819   -0.433113
      5          6           0        0.173035   -0.624719    0.591418
      6          1           0       -0.875082   -0.242757   -1.371491
      7          7           0       -2.151036    0.259869    0.377724
      8          1           0       -2.745087   -0.541365    0.188621
      9          1           0       -2.530302    1.102994   -0.028944
     10          7           0        0.301931   -0.021767    1.885121
     11          1           0       -0.637205   -0.048351    2.270989
     12          1           0        0.513084    0.960625    1.738384
     13          7           0        1.480257   -0.553329   -0.146237
     14          8           0        2.443332   -0.016968    0.391644
     15          8           0        1.498398   -1.078240   -1.257977
 ---------------------------------------------------------------------

 SCF Done:  E(RHF) =  -951.768239943     A.U. after    2 cycles

 The electronic state is 1-A.
 Alpha  occ. eigenvalues -- -105.35366 -26.14750 -20.45889 -20.45338 -15.65022
 Alpha  occ. eigenvalues --  -15.37101 -15.37063 -11.24308 -11.19953 -10.40230
 Alpha  occ. eigenvalues --   -7.57058  -7.56896  -7.56878  -1.52852  -1.36707
 Alpha  occ. eigenvalues --   -1.22755  -1.11257  -1.06473  -0.94718  -0.84198
 Alpha  occ. eigenvalues --   -0.78532  -0.70176  -0.65634  -0.61864  -0.60561
 Alpha  occ. eigenvalues --   -0.58225  -0.56453  -0.54480  -0.52567  -0.47263
 Alpha  occ. eigenvalues --   -0.36912  -0.36108  -0.35329  -0.33418  -0.33139
 Alpha  occ. eigenvalues --   -0.31474  -0.30821  -0.30694  -0.27923  -0.27685
 Alpha  occ. eigenvalues --   -0.26230
 Alpha virt. eigenvalues --    0.13437   0.14782   0.15525   0.16135   0.16544
 Alpha virt. eigenvalues --    0.17127   0.19608   0.21175   0.22666   0.22996
 Alpha virt. eigenvalues --    0.24514   0.25846   0.26205   0.27168   0.27526

 Mulliken charges:
               1
     1  C   -0.525369
     2  H    0.345688
     3  Cl  -0.647671
     4  F   -0.936028
     5  C   -1.657468
     6  H    0.060511
     7  N    0.292642
     8  H    0.374889
     9  H    0.270775
    10  N    0.680920
    11  H    0.290771
    12  H    0.350849
    13  N    3.054143
    14  O   -1.425966
    15  O   -1.528687
 Sum of Mulliken charges =  -1.00000

 Dipole moment (field-independent basis, Debye):
    X=             -0.9934    Y=              1.2226    Z=              1.7070  Tot=              2.3228

 Test job not archived.
 1\1\GINC-SE159\SP\RHF\Aug-CC-pVDZ\C2H6Cl1F1N3O2(1-)\OHZDE\09-Apr-2025\
 0\\#t hf aug-cc-pvdz iop(5/13=1,5/36=2,99/5=2) pseudo=read geom=check
 guess=(read,tcheck) scf=(maxcycle=1)\\title\\-1,1\C,0,0.58663392,0.005
 51496,0.0867335\H,0,1.79011872,1.67679427,-0.22398564\Cl,0,-1.60672397
 ,-0.05482853,0.23887486\F,0,2.52753601,-0.17754857,-0.28270552\C,0,0.7
 3125466,1.5246123,-0.02052665\H,0,0.54158022,-0.58072806,-0.81363516\N
 ,0,0.85813609,-0.53337369,1.38590872\H,0,1.79731251,-0.90092737,1.2697
 8594\H,0,0.19702595,-1.27019374,1.58618783\N,0,0.31681292,2.29537976,1

 Normal termination of Gaussian 16 at Wed Apr  9 02:42:35 2025.
