 Gaussian 16, Revision C.01,

 ----------------------------------------------------------------------
 #t hf aug-cc-pvdz symm=none int=(grid=ultrafine) guess=(read,tcheck) s
 table=(opt,rrhf)
 ----------------------------------------------------------------------
 -----
 title
 -----
 Symbolic Z-matrix:
 Charge = -1 Multiplicity = 1

 SCF Done:  E(RHF) =  -1295.32950065     A.U. after   16 cycles
 Normal termination of Gaussian 16 at Wed Apr  9 02:33:39 2025.
 Gaussian 16:  ES64L-G16RevC.01  3-Jul-2019

 ----------------------------------------------------------------------
 #t hf aug-cc-pvdz iop(5/13=1,5/36=2,99/5=2) pseudo=read geom=check gue
 ss=(read,tcheck) scf=(maxcycle=1)
 ----------------------------------------------------------------------
 -----
 title
 -----
 Structure from the checkpoint file:  "E2SN2_106_mol2.chk"
 Charge = -1 Multiplicity = 1

                         Standard orientation:
 ---------------------------------------------------------------------
 Center     Atomic      Atomic             Coordinates (Angstroms)
 Number     Number       Type             X           Y           Z
 ---------------------------------------------------------------------
      1          6           0        0.586551    0.251390    0.085545
      2          6           0       -0.314034   -0.242888   -1.033539
      3         17           0        1.356224    1.797819   -0.409976
      4          1           0       -1.100545    0.507783   -1.170794
      5          1           0        0.282719   -0.317516   -1.943713
      6          6           0       -0.129653    0.425441    1.396612
      7          1           0        0.533243    0.838963    2.155520
      8          1           0       -0.501343   -0.545733    1.720215
      9          1           0       -0.994234    1.070155    1.236191
     10          7           0        1.746311   -0.735407    0.231509
     11          8           0        2.091957   -1.053604    1.365357
     12          8           0        2.275163   -1.132477   -0.801339
     13          7           0       -0.849820   -1.535013   -0.629318
     14          1           0       -0.895718   -2.147909   -1.431969
     15          1           0       -1.805652   -1.364264   -0.310383
     16         17           0       -3.567286    0.127855    0.135019
 ---------------------------------------------------------------------

 SCF Done:  E(RHF) =  -1295.86385722     A.U. after    2 cycles

 The electronic state is 1-A.
 Alpha  occ. eigenvalues -- -105.47392-105.28346 -20.49069 -20.48665 -15.68136
 Alpha  occ. eigenvalues --  -15.36161 -11.26060 -11.15546 -11.12443 -10.52260
 Alpha  occ. eigenvalues --  -10.32927  -7.69206  -7.68827  -7.68815  -7.49689
 Alpha  occ. eigenvalues --   -7.49661  -7.49655  -1.56057  -1.39980  -1.10316
 Alpha  occ. eigenvalues --   -1.04029  -0.92633  -0.87305  -0.82235  -0.73623
 Alpha  occ. eigenvalues --   -0.71984  -0.64455  -0.63809  -0.61826  -0.58153
 Alpha  occ. eigenvalues --   -0.53771  -0.51176  -0.47836  -0.46163  -0.42482
 Alpha  occ. eigenvalues --   -0.41645  -0.39722  -0.37792  -0.36532  -0.36320
 Alpha  occ. eigenvalues --   -0.34336  -0.32191  -0.21117  -0.20670  -0.20606
 Alpha virt. eigenvalues --    0.12973   0.13271   0.14421   0.15340   0.15974
 Alpha virt. eigenvalues --    0.17109   0.17269   0.17536   0.19821   0.21056
 Alpha virt. eigenvalues --    0.23264   0.23663   0.24807   0.25569   0.25844

 Mulliken charges:
               1
     1  C   -1.389401
     2  C   -0.367902
     3  Cl  -0.121549
     4  H    0.180763
     5  H    0.124155
     6  C    0.027602
     7  H    0.187229
     8  H    0.365870
     9  H    0.323735
    10  N    2.923687
    11  O   -1.405860
    12  O   -1.560762
    13  N    0.307148
    14  H    0.182796
    15  H    0.200754
    16  Cl  -0.978265
 Sum of Mulliken charges =  -1.00000

 Dipole moment (field-independent basis, Debye):
    X=              9.1516    Y=              0.7767    Z=             -1.2880  Tot=              9.2744

 Test job not archived.
 1\1\GINC-SE338\SP\RHF\Aug-CC-pVDZ\C3H7Cl2N2O2(1-)\OHZDE\09-Apr-2025\0\
 \#t hf aug-cc-pvdz iop(5/13=1,5/36=2,99/5=2) pseudo=read geom=check gu
 ess=(read,tcheck) scf=(maxcycle=1)\\title\\-1,1\C,0,-0.498589,0.009553
 ,-1.482875\C,0,-0.119218,0.196407,-0.023808\Cl,0,-0.442776,1.598836,-2
 .319801\H,0,0.913119,0.563538,-0.002808\H,0,-0.782864,0.947088,0.40764
 6\C,0,0.368182,-0.98646,-2.203157\H,0,0.105661,-1.046238,-3.258563\H,0
 ,0.239211,-1.96107,-1.734592\H,0,1.411091,-0.696027,-2.073233\N,0,-1.9
 67659,-0.413123,-1.540279\O,0,-2.278848,-1.308493,-2.319898\O,0,-2.750

 Normal termination of Gaussian 16 at Wed Apr  9 02:33:47 2025.
