 Gaussian 16, Revision C.01,

 ----------------------------------------------------------------------
 #t hf aug-cc-pvdz symm=none int=(grid=ultrafine) guess=(read,tcheck) s
 table=(opt,rrhf)
 ----------------------------------------------------------------------
 -----
 title
 -----
 Symbolic Z-matrix:
 Charge = -1 Multiplicity = 1

 SCF Done:  E(RHF) =  -456.124142596     A.U. after   17 cycles
 Normal termination of Gaussian 16 at Wed Apr  9 03:02:06 2025.
 Gaussian 16:  ES64L-G16RevC.01  3-Jul-2019

 ----------------------------------------------------------------------
 #t hf aug-cc-pvdz iop(5/13=1,5/36=2,99/5=2) pseudo=read geom=check gue
 ss=(read,tcheck) scf=(maxcycle=1)
 ----------------------------------------------------------------------
 -----
 title
 -----
 Structure from the checkpoint file:  "E2SN2_72_mol1.chk"
 Charge = -1 Multiplicity = 1

                         Standard orientation:
 ---------------------------------------------------------------------
 Center     Atomic      Atomic             Coordinates (Angstroms)
 Number     Number       Type             X           Y           Z
 ---------------------------------------------------------------------
      1          6           0        0.313949    0.047202    0.208644
      2          6           0       -1.050545   -0.093254   -0.345068
      3          9           0        0.362080    0.057745    1.654016
      4          1           0       -1.139223   -0.996578   -2.642657
      5          1           0       -0.951262   -0.310930   -1.564183
      6          6           0        1.162934   -1.097011   -0.177366
      7          7           0        1.850863   -2.004061   -0.468110
      8          6           0       -1.945801    1.108562   -0.119404
      9          1           0       -1.484191    2.043075   -0.455268
     10          1           0       -2.852154    0.948533   -0.710297
     11          1           0       -2.240719    1.214207    0.931263
     12          7           0       -1.686823   -1.337583    0.049430
     13          1           0       -1.235955   -1.775224    0.843017
     14          1           0       -1.627936   -1.952915   -0.769730
     15          6           0        0.968005    1.300953   -0.205579
     16          7           0        1.490455    2.300418   -0.536414
 ---------------------------------------------------------------------

 SCF Done:  E(RHF) =  -456.573705678     A.U. after    2 cycles

 The electronic state is 1-A.
 Alpha  occ. eigenvalues --  -26.36587 -15.43723 -15.42864 -15.35484 -11.30094
 Alpha  occ. eigenvalues --  -11.20431 -11.19485 -11.12243 -11.10531  -1.47779
 Alpha  occ. eigenvalues --   -1.13894  -1.12504  -1.07076  -0.96949  -0.86670
 Alpha  occ. eigenvalues --   -0.72454  -0.70840  -0.63649  -0.59369  -0.54735
 Alpha  occ. eigenvalues --   -0.53253  -0.52610  -0.50554  -0.49642  -0.45965
 Alpha  occ. eigenvalues --   -0.43199  -0.42113  -0.41486  -0.41304  -0.39840
 Alpha  occ. eigenvalues --   -0.38997  -0.36515  -0.30400  -0.10522
 Alpha virt. eigenvalues --    0.12841   0.13860   0.14691   0.15114   0.17181
 Alpha virt. eigenvalues --    0.17315   0.18461   0.19125   0.19848   0.20756
 Alpha virt. eigenvalues --    0.22409   0.22781   0.23436   0.23671   0.24437

 Mulliken charges:
               1
     1  C    2.149637
     2  C   -1.738904
     3  F   -0.942094
     4  H   -0.484084
     5  H    0.147163
     6  C   -1.538357
     7  N    0.974802
     8  C   -0.562204
     9  H    0.234346
    10  H    0.165364
    11  H    0.157722
    12  N    0.652707
    13  H    0.194939
    14  H    0.303119
    15  C   -1.662645
    16  N    0.948489
 Sum of Mulliken charges =  -1.00000

 Dipole moment (field-independent basis, Debye):
    X=              0.6480    Y=              2.6351    Z=              8.3047  Tot=              8.7368

 Test job not archived.
 1\1\GINC-SE220\SP\RHF\Aug-CC-pVDZ\C5H7F1N3(1-)\OHZDE\09-Apr-2025\0\\#t
  hf aug-cc-pvdz iop(5/13=1,5/36=2,99/5=2) pseudo=read geom=check guess
 =(read,tcheck) scf=(maxcycle=1)\\title\\-1,1\C,0,-0.14337922,0.0292293
 6,-0.37067467\C,0,-0.14368206,0.0545376,1.10835511\F,0,1.17753362,-0.0
 3675369,-0.95579188\H,0,-2.24595894,-0.7203088,2.14893948\H,0,-1.31216
 377,-0.11136109,1.49643901\C,0,-0.82981111,-1.17414332,-0.88029067\N,0
 ,-1.36544716,-2.13034927,-1.30370829\C,0,0.41209507,1.32775492,1.71399
 591\H,0,-0.06535235,2.22650474,1.3096492\H,0,0.20468971,1.2893081,2.78

 Normal termination of Gaussian 16 at Wed Apr  9 03:02:14 2025.
