 Gaussian 16, Revision C.01,

 ----------------------------------------------------------------------
 #t hf aug-cc-pvdz symm=none int=(grid=ultrafine) guess=(read,tcheck) s
 table=(opt,rrhf)
 ----------------------------------------------------------------------
 -----
 title
 -----
 Symbolic Z-matrix:
 Charge = -1 Multiplicity = 1

 SCF Done:  E(RHF) =  -1292.94449723     A.U. after   16 cycles
 Normal termination of Gaussian 16 at Wed Apr  9 02:38:47 2025.
 Gaussian 16:  ES64L-G16RevC.01  3-Jul-2019

 ----------------------------------------------------------------------
 #t hf aug-cc-pvdz iop(5/13=1,5/36=2,99/5=2) pseudo=read geom=check gue
 ss=(read,tcheck) scf=(maxcycle=1)
 ----------------------------------------------------------------------
 -----
 title
 -----
 Structure from the checkpoint file:  "E2SN2_170_mol1.chk"
 Charge = -1 Multiplicity = 1

                         Standard orientation:
 ---------------------------------------------------------------------
 Center     Atomic      Atomic             Coordinates (Angstroms)
 Number     Number       Type             X           Y           Z
 ---------------------------------------------------------------------
      1          6           0        0.067649    0.000848   -0.205150
      2          1           0       -0.851639    0.906355    1.505642
      3         17           0        0.032004   -2.281696   -0.436618
      4         17           0        0.124711    2.281989   -0.438210
      5          6           0       -0.976052    0.021088    0.883964
      6          1           0       -0.102236    0.004483   -1.262363
      7          1           0       -0.880975   -0.864585    1.510141
      8          7           0        1.473139   -0.028143    0.235215
      9          8           0        1.668430   -0.028213    1.448994
     10          8           0        2.333207   -0.049061   -0.633865
     11          6           0       -2.313101    0.041578    0.300314
     12          7           0       -3.403623    0.054698   -0.131951
 ---------------------------------------------------------------------

 SCF Done:  E(RHF) =  -1293.46052152     A.U. after    2 cycles

 The electronic state is 1-A.
 Alpha  occ. eigenvalues -- -105.36723-105.36698 -20.48255 -20.48216 -15.69008
 Alpha  occ. eigenvalues --  -15.41519 -11.30461 -11.19714 -11.18998 -10.41505
 Alpha  occ. eigenvalues --  -10.41480  -7.58338  -7.58312  -7.58150  -7.58148
 Alpha  occ. eigenvalues --   -7.58125  -7.58122  -1.55821  -1.39749  -1.12179
 Alpha  occ. eigenvalues --   -1.06040  -0.93850  -0.83838  -0.82693  -0.74762
 Alpha  occ. eigenvalues --   -0.68059  -0.64981  -0.63144  -0.60959  -0.54844
 Alpha  occ. eigenvalues --   -0.53182  -0.49916  -0.40687  -0.39209  -0.38481
 Alpha  occ. eigenvalues --   -0.37811  -0.35086  -0.33623  -0.28966  -0.28872
 Alpha  occ. eigenvalues --   -0.28760  -0.28214  -0.25359
 Alpha virt. eigenvalues --    0.13317   0.13706   0.15347   0.15521   0.17423
 Alpha virt. eigenvalues --    0.20103   0.20174   0.21747   0.23002   0.23638
 Alpha virt. eigenvalues --    0.24984   0.25465   0.25676   0.26005   0.26781

 Mulliken charges:
               1
     1  C   -0.392391
     2  H    0.356668
     3  Cl  -0.597161
     4  Cl  -0.597053
     5  C    0.375561
     6  H   -0.032221
     7  H    0.358468
     8  N    2.939130
     9  O   -1.391550
    10  O   -1.472569
    11  C   -1.391248
    12  N    0.844365
 Sum of Mulliken charges =  -1.00000

 Dipole moment (field-independent basis, Debye):
    X=              0.8936    Y=              0.0060    Z=              2.7149  Tot=              2.8582

 Test job not archived.
 1\1\GINC-SE071\SP\RHF\Aug-CC-pVDZ\C3H3Cl2N2O2(1-)\OHZDE\09-Apr-2025\0\
 \#t hf aug-cc-pvdz iop(5/13=1,5/36=2,99/5=2) pseudo=read geom=check gu
 ess=(read,tcheck) scf=(maxcycle=1)\\title\\-1,1\C,0,0.60150494,-0.0326
 9298,0.012893\H,0,1.36426821,1.90664929,0.51187833\Cl,0,-1.6608017,-0.
 41123778,0.0723121\Cl,0,2.86344563,0.00747771,-0.36550667\C,0,0.467386
 31,1.46858243,0.07672319\H,0,0.57403257,-0.6466765,-0.86394361\H,0,-0.
 39033472,1.74214682,0.68912107\N,0,0.78963279,-0.72854355,1.29763578\O
 ,0,0.8252653,-0.0233719,2.30404599\O,0,0.89610212,-1.94637535,1.265919

 Normal termination of Gaussian 16 at Wed Apr  9 02:38:54 2025.
