 Gaussian 16, Revision C.01,

 ----------------------------------------------------------------------
 #t hf aug-cc-pvdz symm=none int=(grid=ultrafine) guess=(read,tcheck) s
 table=(opt,rrhf)
 ----------------------------------------------------------------------
 -----
 title
 -----
 Symbolic Z-matrix:
 Charge = -1 Multiplicity = 1

 SCF Done:  E(RHF) =  -852.267932824     A.U. after   16 cycles
 Normal termination of Gaussian 16 at Wed Apr  9 02:42:02 2025.
 Gaussian 16:  ES64L-G16RevC.01  3-Jul-2019

 ----------------------------------------------------------------------
 #t hf aug-cc-pvdz iop(5/13=1,5/36=2,99/5=2) pseudo=read geom=check gue
 ss=(read,tcheck) scf=(maxcycle=1)
 ----------------------------------------------------------------------
 -----
 title
 -----
 Structure from the checkpoint file:  "E2SN2_204_mol2.chk"
 Charge = -1 Multiplicity = 1

                         Standard orientation:
 ---------------------------------------------------------------------
 Center     Atomic      Atomic             Coordinates (Angstroms)
 Number     Number       Type             X           Y           Z
 ---------------------------------------------------------------------
      1          6           0       -0.890708   -0.007537    0.631328
      2          6           0        0.267779    0.847539    0.087629
      3         17           0       -1.055357   -1.505636   -0.376578
      4          1           0        0.378445    1.660264    0.817733
      5          1           0       -0.627680   -0.369297    1.626387
      6          7           0       -2.136776    0.709724    0.648217
      7          1           0       -2.524887    0.683268   -0.289473
      8          1           0       -1.904442    1.720480    0.781995
      9          7           0        0.106047    1.445838   -1.179408
     10          1           0       -0.416472    2.313929   -0.978292
     11          1           0       -0.405139    0.848169   -1.816162
     12          7           0        1.530869    0.026544    0.186584
     13          8           0        2.106396   -0.325801   -0.837483
     14          8           0        1.877413   -0.284544    1.330433
     15          1           0       -1.192643    3.307015    0.414531
 ---------------------------------------------------------------------

 SCF Done:  E(RHF) =  -852.744059851     A.U. after    2 cycles

 The electronic state is 1-A.
 Alpha  occ. eigenvalues -- -105.44876 -20.47389 -20.46651 -15.65833 -15.36528
 Alpha  occ. eigenvalues --  -15.36429 -11.22467 -11.20507 -10.49790  -7.66716
 Alpha  occ. eigenvalues --   -7.66368  -7.66364  -1.53855  -1.37763  -1.12822
 Alpha  occ. eigenvalues --   -1.06595  -0.96470  -0.93360  -0.79386  -0.71409
 Alpha  occ. eigenvalues --   -0.66019  -0.62989  -0.62543  -0.58622  -0.56409
 Alpha  occ. eigenvalues --   -0.53847  -0.51131  -0.47982  -0.40745  -0.38063
 Alpha  occ. eigenvalues --   -0.37058  -0.35805  -0.35010  -0.34903  -0.32616
 Alpha  occ. eigenvalues --   -0.30822  -0.12100
 Alpha virt. eigenvalues --    0.14323   0.14570   0.15410   0.16344   0.17142
 Alpha virt. eigenvalues --    0.18214   0.18579   0.20426   0.21388   0.22271
 Alpha virt. eigenvalues --    0.23177   0.25180   0.25739   0.26530   0.26727

 Mulliken charges:
               1
     1  C   -0.853878
     2  C   -1.958152
     3  Cl  -0.092886
     4  H    0.171151
     5  H    0.185737
     6  N    0.439585
     7  H    0.291582
     8  H    0.111737
     9  N    0.831168
    10  H    0.333319
    11  H    0.251953
    12  N    2.956777
    13  O   -1.398234
    14  O   -1.516653
    15  H   -0.753205
 Sum of Mulliken charges =  -1.00000

 Dipole moment (field-independent basis, Debye):
    X=              1.1708    Y=             -8.0683    Z=             -1.6249  Tot=              8.3132

 Test job not archived.
 1\1\GINC-SE059\SP\RHF\Aug-CC-pVDZ\C2H7Cl1N3O2(1-)\OHZDE\09-Apr-2025\0\
 \#t hf aug-cc-pvdz iop(5/13=1,5/36=2,99/5=2) pseudo=read geom=check gu
 ess=(read,tcheck) scf=(maxcycle=1)\\title\\-1,1\C,0,0.05977,0.096436,0
 .014319\C,0,-0.57051,0.209569,-1.385254\Cl,0,1.817813,-0.315091,-0.150
 648\H,0,-1.588548,0.577899,-1.201534\H,0,0.047383,1.078569,0.489142\N,
 0,-0.598103,-0.88741,0.830827\H,0,-0.239935,-1.800475,0.568874\H,0,-1.
 595642,-0.923891,0.519237\N,0,-0.686527,-0.968551,-2.152113\H,0,-1.561
 685,-1.399673,-1.81257\H,0,0.103897,-1.585773,-2.017047\N,0,0.143879,1

 Normal termination of Gaussian 16 at Wed Apr  9 02:42:08 2025.
