 Gaussian 16, Revision C.01,

 ----------------------------------------------------------------------
 #t hf aug-cc-pvdz symm=none int=(grid=ultrafine) guess=(read,tcheck) s
 table=(opt,rrhf)
 ----------------------------------------------------------------------
 -----
 title
 -----
 Symbolic Z-matrix:
 Charge = -1 Multiplicity = 1

 SCF Done:  E(RHF) =  -403.414640210     A.U. after   17 cycles
 Normal termination of Gaussian 16 at Wed Apr  9 02:50:24 2025.
 Gaussian 16:  ES64L-G16RevC.01  3-Jul-2019

 ----------------------------------------------------------------------
 #t hf aug-cc-pvdz iop(5/13=1,5/36=2,99/5=2) pseudo=read geom=check gue
 ss=(read,tcheck) scf=(maxcycle=1)
 ----------------------------------------------------------------------
 -----
 title
 -----
 Structure from the checkpoint file:  "E2SN2_285_mol1.chk"
 Charge = -1 Multiplicity = 1

                         Standard orientation:
 ---------------------------------------------------------------------
 Center     Atomic      Atomic             Coordinates (Angstroms)
 Number     Number       Type             X           Y           Z
 ---------------------------------------------------------------------
      1          6           0        0.373360    0.284533    0.089371
      2          1           0       -0.656808   -0.448567   -1.611357
      3          9           0        0.552852   -0.908569    1.270193
      4          1           0        0.448850    1.484718   -1.337006
      5          6           0       -0.940706   -0.163108   -0.589406
      6          6           0        1.597292   -0.016323   -0.611584
      7          7           0        2.621896   -0.406978   -1.051685
      8          6           0        0.362527    1.407690    1.117772
      9          1           0        0.273913    2.391737    0.669051
     10          1           0       -0.482607    1.234556    1.785270
     11          1           0        1.281503    1.340529    1.703775
     12          7           0       -1.893575    0.956825   -0.587651
     13          1           0       -2.701261    0.674853   -1.136477
     14          1           0       -1.404432    1.690330   -1.102429
     15          6           0       -1.628291   -1.359755    0.063414
     16          1           0       -0.967746   -2.223504    0.084111
     17          1           0       -1.921669   -1.126126    1.086343
     18          1           0       -2.528753   -1.608564   -0.515067
 ---------------------------------------------------------------------

 SCF Done:  E(RHF) =  -403.826426536     A.U. after    2 cycles

 The electronic state is 1-A.
 Alpha  occ. eigenvalues --  -26.20089 -15.34568 -15.33575 -11.21028 -11.13487
 Alpha  occ. eigenvalues --  -11.13046 -11.09094 -11.09011  -1.28926  -1.05828
 Alpha  occ. eigenvalues --   -1.04092  -0.91164  -0.85583  -0.77041  -0.67900
 Alpha  occ. eigenvalues --   -0.57172  -0.54574  -0.50729  -0.47590  -0.45644
 Alpha  occ. eigenvalues --   -0.43577  -0.42219  -0.41572  -0.39444  -0.37957
 Alpha  occ. eigenvalues --   -0.37218  -0.35561  -0.33796  -0.31884  -0.31225
 Alpha  occ. eigenvalues --   -0.29380  -0.12496
 Alpha virt. eigenvalues --    0.12175   0.13504   0.13956   0.14416   0.15584
 Alpha virt. eigenvalues --    0.15822   0.16412   0.17199   0.18557   0.19968
 Alpha virt. eigenvalues --    0.21107   0.23174   0.24407   0.24606   0.25486

 Mulliken charges:
               1
     1  C    0.669790
     2  H    0.023723
     3  F   -0.914652
     4  H   -0.345461
     5  C   -1.300584
     6  C   -2.196054
     7  N    0.996322
     8  C    0.024701
     9  H    0.165788
    10  H    0.318468
    11  H    0.163623
    12  N    0.557858
    13  H    0.152278
    14  H    0.263179
    15  C   -0.101435
    16  H    0.241405
    17  H    0.239666
    18  H    0.041384
 Sum of Mulliken charges =  -1.00000

 Dipole moment (field-independent basis, Debye):
    X=             -6.1492    Y=             -0.3916    Z=              1.7826  Tot=              6.4143

 Test job not archived.
 1\1\GINC-SE092\SP\RHF\Aug-CC-pVDZ\C5H10F1N2(1-)\OHZDE\09-Apr-2025\0\\#
 t hf aug-cc-pvdz iop(5/13=1,5/36=2,99/5=2) pseudo=read geom=check gues
 s=(read,tcheck) scf=(maxcycle=1)\\title\\-1,1\C,0,0.58185491,-0.093360
 89,-0.07940413\H,0,1.55343115,1.61092778,-0.88102478\F,0,-0.89046039,-
 0.39023623,-0.85025031\H,0,2.33665217,0.05722639,0.53598431\C,0,0.6898
 4185,1.44136223,-0.22380967\C,0,1.38253238,-0.88470445,-0.98082175\N,0
 ,1.86819379,-1.56607203,-1.81507883\C,0,0.10743563,-0.70995899,1.22977
 098\H,0,0.87018798,-0.70369361,2.00160164\H,0,-0.75767947,-0.13833259,

 Normal termination of Gaussian 16 at Wed Apr  9 02:50:33 2025.
