 Gaussian 16, Revision C.01,

 ----------------------------------------------------------------------
 #t hf aug-cc-pvdz symm=none int=(grid=ultrafine) guess=(read,tcheck) s
 table=(opt,rrhf)
 ----------------------------------------------------------------------
 -----
 title
 -----
 Symbolic Z-matrix:
 Charge = -1 Multiplicity = 1

 SCF Done:  E(RHF) =  -1259.23630533     A.U. after   16 cycles
 Normal termination of Gaussian 16 at Wed Apr  9 02:50:41 2025.
 Gaussian 16:  ES64L-G16RevC.01  3-Jul-2019

 ----------------------------------------------------------------------
 #t hf aug-cc-pvdz iop(5/13=1,5/36=2,99/5=2) pseudo=read geom=check gue
 ss=(read,tcheck) scf=(maxcycle=1)
 ----------------------------------------------------------------------
 -----
 title
 -----
 Structure from the checkpoint file:  "E2SN2_284_mol1.chk"
 Charge = -1 Multiplicity = 1

                         Standard orientation:
 ---------------------------------------------------------------------
 Center     Atomic      Atomic             Coordinates (Angstroms)
 Number     Number       Type             X           Y           Z
 ---------------------------------------------------------------------
      1          6           0       -0.380911   -0.240957   -0.288729
      2          1           0       -0.558995    1.807226    0.259889
      3         17           0        1.811211   -1.252808   -0.582236
      4         17           0       -2.567512    0.466174    0.201594
      5          6           0        0.249502    1.146066   -0.057441
      6          6           0       -0.489509   -1.141313    0.827432
      7          7           0       -0.608808   -1.871524    1.744770
      8          6           0       -0.806415   -0.677718   -1.682371
      9          1           0       -1.509431    0.036895   -2.104889
     10          1           0        0.056984   -0.782798   -2.333073
     11          1           0       -1.309143   -1.641447   -1.605613
     12          6           0        0.865806    1.756957   -1.318002
     13          1           0        1.689646    1.144262   -1.677977
     14          1           0        0.105593    1.850196   -2.095922
     15          1           0        1.235477    2.758177   -1.082986
     16          6           0        1.207034    1.160851    1.050328
     17          7           0        1.933656    1.325373    1.958685
 ---------------------------------------------------------------------

 SCF Done:  E(RHF) =  -1259.72962729     A.U. after    2 cycles

 The electronic state is 1-A.
 Alpha  occ. eigenvalues -- -105.36198-105.34420 -15.40021 -15.39669 -11.29288
 Alpha  occ. eigenvalues --  -11.19843 -11.17807 -11.17479 -11.14658 -11.14467
 Alpha  occ. eigenvalues --  -10.40999 -10.39227  -7.57821  -7.57657  -7.57649
 Alpha  occ. eigenvalues --   -7.56041  -7.55898  -7.55891  -1.11104  -1.09862
 Alpha  occ. eigenvalues --   -1.03822  -0.93873  -0.84781  -0.82698  -0.80074
 Alpha  occ. eigenvalues --   -0.76923  -0.65044  -0.58280  -0.53488  -0.50799
 Alpha  occ. eigenvalues --   -0.49439  -0.49170  -0.46989  -0.45918  -0.45528
 Alpha  occ. eigenvalues --   -0.44589  -0.41209  -0.37572  -0.37323  -0.36527
 Alpha  occ. eigenvalues --   -0.29472  -0.28265  -0.28054  -0.26623  -0.26115
 Alpha  occ. eigenvalues --   -0.25322
 Alpha virt. eigenvalues --    0.11275   0.12296   0.13696   0.13990   0.15534
 Alpha virt. eigenvalues --    0.15833   0.16337   0.16774   0.18980   0.19613
 Alpha virt. eigenvalues --    0.20961   0.22285   0.22643   0.23210   0.23366

 Mulliken charges:
               1
     1  C    0.239227
     2  H    0.284934
     3  Cl  -0.610526
     4  Cl  -0.579353
     5  C    0.174196
     6  C   -2.230435
     7  N    1.148312
     8  C   -0.018608
     9  H    0.291622
    10  H    0.275985
    11  H    0.123916
    12  C    0.084227
    13  H    0.344981
    14  H    0.212834
    15  H    0.080004
    16  C   -1.947722
    17  N    1.126407
 Sum of Mulliken charges =  -1.00000

 Dipole moment (field-independent basis, Debye):
    X=             -1.1768    Y=              4.0174    Z=             -6.8476  Tot=              8.0259

 Test job not archived.
 1\1\GINC-SE083\SP\RHF\Aug-CC-pVDZ\C6H7Cl2N2(1-)\OHZDE\09-Apr-2025\0\\#
 t hf aug-cc-pvdz iop(5/13=1,5/36=2,99/5=2) pseudo=read geom=check gues
 s=(read,tcheck) scf=(maxcycle=1)\\title\\-1,1\C,0,0.63620695,-0.076502
 49,0.01917347\H,0,1.67212977,1.77585033,-0.13380703\Cl,0,-1.79281691,-
 0.14315715,-0.08468717\Cl,0,2.97452291,-0.25876288,-0.12482404\C,0,0.6
 3237253,1.46404121,-0.01901536\C,0,0.56692656,-0.79500877,-1.22469097\
 N,0,0.54106271,-1.38883889,-2.24235785\C,0,0.63354082,-0.82020528,1.34
 618289\H,0,1.4800853,-0.51071698,1.95528472\H,0,-0.29567206,-0.6482253

 Normal termination of Gaussian 16 at Wed Apr  9 02:50:57 2025.
