 Gaussian 16, Revision C.01,

 ----------------------------------------------------------------------
 #t hf aug-cc-pvdz symm=none int=(grid=ultrafine) guess=(read,tcheck) s
 table=(opt,rrhf)
 ----------------------------------------------------------------------
 -----
 title
 -----
 Symbolic Z-matrix:
 Charge = -1 Multiplicity = 1

 SCF Done:  E(RHF) =  -531.245514651     A.U. after   17 cycles
 Normal termination of Gaussian 16 at Wed Apr  9 02:58:39 2025.
 Gaussian 16:  ES64L-G16RevC.01  3-Jul-2019

 ----------------------------------------------------------------------
 #t hf aug-cc-pvdz iop(5/13=1,5/36=2,99/5=2) pseudo=read geom=check gue
 ss=(read,tcheck) scf=(maxcycle=1)
 ----------------------------------------------------------------------
 -----
 title
 -----
 Structure from the checkpoint file:  "E2SN2_39_mol2.chk"
 Charge = -1 Multiplicity = 1

                         Standard orientation:
 ---------------------------------------------------------------------
 Center     Atomic      Atomic             Coordinates (Angstroms)
 Number     Number       Type             X           Y           Z
 ---------------------------------------------------------------------
      1          6           0        0.135489    0.507510    0.102486
      2          6           0       -1.089878   -0.262177   -0.362317
      3          9           0        0.071872    0.671295    1.469642
      4          1           0       -1.007348   -0.393192   -1.445079
      5          7           0        1.361516   -0.346007   -0.162994
      6          8           0        2.014914   -0.756417    0.786955
      7          8           0        1.615174   -0.542236   -1.348129
      8          6           0        0.335675    1.854473   -0.540421
      9          1           0       -0.563984    2.439495   -0.359701
     10          1           0        0.475374    1.733558   -1.613582
     11          1           0        1.210123    2.347275   -0.107167
     12          7           0       -2.272141    0.554338   -0.126849
     13          1           0       -2.454952    0.530483    0.873936
     14          1           0       -3.019063   -0.026383   -0.559833
     15          7           0       -1.068085   -1.597260    0.215099
     16          1           0       -1.908715   -2.029713   -0.193743
     17          1           0       -1.247493   -1.506194    1.211667
     18          1           0       -3.608237   -1.624108   -1.219175
 ---------------------------------------------------------------------

 SCF Done:  E(RHF) =  -531.777516035     A.U. after    2 cycles

 The electronic state is 1-A.
 Alpha  occ. eigenvalues --  -26.37170 -20.48698 -20.48202 -15.67717 -15.34835
 Alpha  occ. eigenvalues --  -15.34610 -11.27921 -11.17163 -11.14814  -1.55965
 Alpha  occ. eigenvalues --   -1.50075  -1.39680  -1.10792  -1.01461  -0.99606
 Alpha  occ. eigenvalues --   -0.88567  -0.80039  -0.72089  -0.68446  -0.64385
 Alpha  occ. eigenvalues --   -0.64136  -0.60483  -0.57346  -0.54099  -0.53244
 Alpha  occ. eigenvalues --   -0.51140  -0.50869  -0.48323  -0.46593  -0.44580
 Alpha  occ. eigenvalues --   -0.40260  -0.38155  -0.37211  -0.36666  -0.34113
 Alpha  occ. eigenvalues --   -0.29986  -0.09900
 Alpha virt. eigenvalues --    0.11520   0.13443   0.13514   0.14459   0.15921
 Alpha virt. eigenvalues --    0.16890   0.17376   0.18811   0.19391   0.20519
 Alpha virt. eigenvalues --    0.21496   0.22970   0.23173   0.24182   0.24733

 Mulliken charges:
               1
     1  C    0.167891
     2  C   -2.211331
     3  F   -1.030506
     4  H    0.132893
     5  N    2.982664
     6  O   -1.394901
     7  O   -1.577595
     8  C   -0.237418
     9  H    0.325318
    10  H    0.316109
    11  H    0.161849
    12  N    0.498151
    13  H    0.290562
    14  H    0.224938
    15  N    0.662975
    16  H    0.294291
    17  H    0.243473
    18  H   -0.849363
 Sum of Mulliken charges =  -1.00000

 Dipole moment (field-independent basis, Debye):
    X=              9.7671    Y=              7.4937    Z=              4.5193  Tot=             13.1140

 Test job not archived.
 1\1\GINC-SE456\SP\RHF\Aug-CC-pVDZ\C3H9F1N3O2(1-)\OHZDE\09-Apr-2025\0\\
 #t hf aug-cc-pvdz iop(5/13=1,5/36=2,99/5=2) pseudo=read geom=check gue
 ss=(read,tcheck) scf=(maxcycle=1)\\title\\-1,1\C,0,-0.578951,-0.037003
 ,-1.469588\C,0,0.233457,0.03501,-0.187094\F,0,-1.897606,-0.284299,-1.1
 53386\H,0,1.270042,0.248169,-0.463507\N,0,-0.552456,1.330611,-2.126126
 \O,0,-1.596385,1.962024,-2.222562\O,0,0.546491,1.691701,-2.537615\C,0,
 -0.11772,-1.062946,-2.470796\H,0,-0.120153,-2.030134,-1.971958\H,0,0.8
 94761,-0.830237,-2.797201\H,0,-0.790939,-1.071145,-3.33215\N,0,0.22828

 Normal termination of Gaussian 16 at Wed Apr  9 02:58:46 2025.
