 Gaussian 16, Revision C.01,

 ----------------------------------------------------------------------
 #t hf aug-cc-pvdz symm=none int=(grid=ultrafine) guess=(read,tcheck) s
 table=(opt,rrhf)
 ----------------------------------------------------------------------
 -----
 title
 -----
 Symbolic Z-matrix:
 Charge = -1 Multiplicity = 1

 SCF Done:  E(RHF) =  -1275.21857468     A.U. after   18 cycles
 Normal termination of Gaussian 16 at Wed Apr  9 03:02:07 2025.
 Gaussian 16:  ES64L-G16RevC.01  3-Jul-2019

 ----------------------------------------------------------------------
 #t hf aug-cc-pvdz iop(5/13=1,5/36=2,99/5=2) pseudo=read geom=check gue
 ss=(read,tcheck) scf=(maxcycle=1)
 ----------------------------------------------------------------------
 -----
 title
 -----
 Structure from the checkpoint file:  "E2SN2_57_mol1.chk"
 Charge = -1 Multiplicity = 1

                         Standard orientation:
 ---------------------------------------------------------------------
 Center     Atomic      Atomic             Coordinates (Angstroms)
 Number     Number       Type             X           Y           Z
 ---------------------------------------------------------------------
      1          6           0        0.566178    0.041579    0.272696
      2          6           0       -0.428074   -0.224865   -0.699191
      3         17           0        2.618517   -0.022358   -0.657991
      4         17           0       -3.123991    0.106179    0.323168
      5          1           0       -1.522899   -0.085583    0.008734
      6          6           0        0.654832    1.399722    0.753349
      7          7           0        0.669765    2.514975    1.132759
      8          6           0       -0.552076   -1.647961   -1.191352
      9          1           0       -0.602224   -2.362219   -0.367550
     10          1           0       -1.465025   -1.736759   -1.782848
     11          1           0        0.312524   -1.868768   -1.824953
     12          7           0       -0.557308    0.742009   -1.752365
     13          1           0        0.027725    1.552974   -1.590742
     14          1           0       -1.524924    1.041633   -1.818342
     15          6           0        0.787580   -0.958431    1.285875
     16          7           0        0.915721   -1.775056    2.125240
 ---------------------------------------------------------------------

 SCF Done:  E(RHF) =  -1275.72586081     A.U. after    2 cycles

 The electronic state is 1-A.
 Alpha  occ. eigenvalues -- -105.40194-105.35453 -15.44541 -15.44489 -15.39065
 Alpha  occ. eigenvalues --  -11.29663 -11.21623 -11.21537 -11.16802 -11.12565
 Alpha  occ. eigenvalues --  -10.44825 -10.40215  -7.61674  -7.61441  -7.61438
 Alpha  occ. eigenvalues --   -7.57058  -7.56897  -7.56892  -1.15628  -1.13685
 Alpha  occ. eigenvalues --   -1.11060  -1.01200  -0.89813  -0.84899  -0.82671
 Alpha  occ. eigenvalues --   -0.75028  -0.72274  -0.62723  -0.58241  -0.53753
 Alpha  occ. eigenvalues --   -0.53035  -0.51674  -0.47053  -0.46255  -0.44730
 Alpha  occ. eigenvalues --   -0.43022  -0.42001  -0.41479  -0.40680  -0.34687
 Alpha  occ. eigenvalues --   -0.34358  -0.31157  -0.31106  -0.27706  -0.27624
 Alpha  occ. eigenvalues --   -0.20574
 Alpha virt. eigenvalues --    0.10793   0.12862   0.13780   0.14643   0.14965
 Alpha virt. eigenvalues --    0.16610   0.17048   0.18696   0.19015   0.20086
 Alpha virt. eigenvalues --    0.21315   0.22072   0.22362   0.23291   0.24173

 Mulliken charges:
               1
     1  C    0.271786
     2  C   -1.879124
     3  Cl  -0.342130
     4  Cl  -0.719531
     5  H    0.864447
     6  C   -1.353277
     7  N    0.928258
     8  C   -0.065900
     9  H    0.265568
    10  H    0.137837
    11  H    0.230289
    12  N    0.662793
    13  H    0.230474
    14  H    0.204961
    15  C   -1.339173
    16  N    0.902721
 Sum of Mulliken charges =  -1.00000

 Dipole moment (field-independent basis, Debye):
    X=              1.5438    Y=             -0.8138    Z=             -2.8704  Tot=              3.3593

 Test job not archived.
 1\1\GINC-SE059\SP\RHF\Aug-CC-pVDZ\C5H6Cl2N3(1-)\OHZDE\09-Apr-2025\0\\#
 t hf aug-cc-pvdz iop(5/13=1,5/36=2,99/5=2) pseudo=read geom=check gues
 s=(read,tcheck) scf=(maxcycle=1)\\title\\-1,1\C,0,-0.29906297,-0.04316
 304,-0.3057256\C,0,-0.14673534,0.06243518,1.09774901\Cl,0,1.71425353,-
 0.17242271,-1.31181221\Cl,0,-2.67461083,-0.04611072,2.51931056\H,0,-1.
 39717556,0.06498243,1.49220172\C,0,-0.80640716,-1.29693142,-0.80981437
 \N,0,-1.24786896,-2.32834784,-1.16933706\C,0,0.35649909,1.37861681,1.6
 4292982\H,0,-0.19958194,2.22704631,1.24010134\H,0,0.24439009,1.3749895

 Normal termination of Gaussian 16 at Wed Apr  9 03:02:17 2025.
