 Gaussian 16, Revision C.01,

 ----------------------------------------------------------------------
 #t hf aug-cc-pvdz symm=none int=(grid=ultrafine) guess=(read,tcheck) s
 table=(opt,rrhf)
 ----------------------------------------------------------------------
 -----
 title
 -----
 Symbolic Z-matrix:
 Charge = -1 Multiplicity = 1

 SCF Done:  E(RHF) =  -463.344055957     A.U. after   15 cycles
 Normal termination of Gaussian 16 at Wed Apr  9 02:51:08 2025.
 Gaussian 16:  ES64L-G16RevC.01  3-Jul-2019

 ----------------------------------------------------------------------
 #t hf aug-cc-pvdz iop(5/13=1,5/36=2,99/5=2) pseudo=read geom=check gue
 ss=(read,tcheck) scf=(maxcycle=1)
 ----------------------------------------------------------------------
 -----
 title
 -----
 Structure from the checkpoint file:  "E2SN2_298_mol1.chk"
 Charge = -1 Multiplicity = 1

                         Standard orientation:
 ---------------------------------------------------------------------
 Center     Atomic      Atomic             Coordinates (Angstroms)
 Number     Number       Type             X           Y           Z
 ---------------------------------------------------------------------
      1          6           0       -0.245214   -0.364558    0.015204
      2          1           0        1.335570   -1.363179   -0.945142
      3          9           0       -0.203202   -0.194642    1.816656
      4          9           0       -0.389835   -0.284876   -1.790954
      5          6           0        1.214222   -0.757692   -0.047181
      6          1           0        1.403632   -1.373566    0.832048
      7          6           0       -0.658042    1.040992   -0.002179
      8          7           0       -1.021019    2.158876   -0.014365
      9          7           0       -1.225957   -1.412458    0.090812
     10          1           0       -1.817496   -1.304811   -0.720957
     11          1           0       -1.737037   -1.260526    0.948860
     12          6           0        2.147267    0.442158   -0.073138
     13          1           0        1.940456    1.057079   -0.951536
     14          1           0        1.996622    1.045335    0.824025
     15          1           0        3.195018    0.125007   -0.109981
 ---------------------------------------------------------------------

 SCF Done:  E(RHF) =  -463.800637030     A.U. after    2 cycles

 The electronic state is 1-A.
 Alpha  occ. eigenvalues --  -26.16933 -26.16795 -15.35460 -15.35290 -11.25483
 Alpha  occ. eigenvalues --  -11.13779 -11.09097 -11.08992  -1.26409  -1.24782
 Alpha  occ. eigenvalues --   -1.06325  -1.04631  -0.91810  -0.79339  -0.71742
 Alpha  occ. eigenvalues --   -0.57644  -0.57033  -0.50524  -0.49387  -0.45394
 Alpha  occ. eigenvalues --   -0.41596  -0.40710  -0.39068  -0.37573  -0.34772
 Alpha  occ. eigenvalues --   -0.33215  -0.33203  -0.32794  -0.31696  -0.31635
 Alpha  occ. eigenvalues --   -0.29805  -0.28145
 Alpha virt. eigenvalues --    0.12617   0.14193   0.14697   0.15212   0.17120
 Alpha virt. eigenvalues --    0.17226   0.17818   0.19686   0.23560   0.23771
 Alpha virt. eigenvalues --    0.24752   0.25601   0.26085   0.26819   0.27275

 Mulliken charges:
               1
     1  C    0.581007
     2  H    0.211539
     3  F   -0.913423
     4  F   -0.912985
     5  C   -0.025974
     6  H    0.216933
     7  C   -2.886672
     8  N    1.224347
     9  N    0.522052
    10  H    0.333806
    11  H    0.332546
    12  C   -0.233867
    13  H    0.266476
    14  H    0.277108
    15  H    0.007107
 Sum of Mulliken charges =  -1.00000

 Dipole moment (field-independent basis, Debye):
    X=              2.0732    Y=             -2.8052    Z=              0.0403  Tot=              3.4884

 Test job not archived.
 1\1\GINC-SE229\SP\RHF\Aug-CC-pVDZ\C4H7F2N2(1-)\OHZDE\09-Apr-2025\0\\#t
  hf aug-cc-pvdz iop(5/13=1,5/36=2,99/5=2) pseudo=read geom=check guess
 =(read,tcheck) scf=(maxcycle=1)\\title\\-1,1\C,0,0.61237849,-0.0342266
 4,0.04630046\H,0,1.55571826,1.81794266,0.35929362\F,0,-1.17248668,-0.1
 6096027,0.31844372\F,0,2.36036575,-0.07292272,-0.4358983\C,0,0.5703067
 5,1.47792555,0.0414464\H,0,-0.16954453,1.76638925,0.78819158\C,0,0.374
 5778,-0.80790108,-1.17483836\N,0,0.18833699,-1.45662328,-2.13714762\N,
 0,0.89553872,-0.69959632,1.288384\H,0,1.73344537,-1.24219412,1.1335455

 Normal termination of Gaussian 16 at Wed Apr  9 02:51:15 2025.
