 Gaussian 16, Revision C.01,

 ----------------------------------------------------------------------
 #t hf aug-cc-pvdz symm=none int=(grid=ultrafine) guess=(read,tcheck) s
 table=(opt,rrhf)
 ----------------------------------------------------------------------
 -----
 title
 -----
 Symbolic Z-matrix:
 Charge = -1 Multiplicity = 1

 SCF Done:  E(RHF) =  -1275.27016293     A.U. after   16 cycles
 Normal termination of Gaussian 16 at Wed Apr  9 02:50:30 2025.
 Gaussian 16:  ES64L-G16RevC.01  3-Jul-2019

 ----------------------------------------------------------------------
 #t hf aug-cc-pvdz iop(5/13=1,5/36=2,99/5=2) pseudo=read geom=check gue
 ss=(read,tcheck) scf=(maxcycle=1)
 ----------------------------------------------------------------------
 -----
 title
 -----
 Structure from the checkpoint file:  "E2SN2_275_mol2.chk"
 Charge = -1 Multiplicity = 1

                         Standard orientation:
 ---------------------------------------------------------------------
 Center     Atomic      Atomic             Coordinates (Angstroms)
 Number     Number       Type             X           Y           Z
 ---------------------------------------------------------------------
      1          6           0        0.735017   -0.277801    0.087472
      2          6           0       -0.142516    1.006146   -0.020941
      3         17           0        2.236252   -0.097333   -0.930232
      4          1           0       -0.985402    0.808042    0.653430
      5          6           0        1.184255   -0.504461    1.461990
      6          7           0        1.543054   -0.646535    2.572081
      7          6           0        0.051306   -1.469380   -0.416779
      8          7           0       -0.424361   -2.434865   -0.888095
      9          7           0       -0.719764    1.187595   -1.327473
     10          1           0       -1.607068    0.686403   -1.344841
     11          1           0       -0.107646    0.880930   -2.072990
     12          6           0        0.628361    2.238113    0.433945
     13          1           0       -0.088071    3.058142    0.494021
     14          1           0        1.395471    2.512893   -0.293355
     15          1           0        1.095704    2.106744    1.413878
     16         17           0       -3.250018   -0.064562    0.305535
 ---------------------------------------------------------------------

 SCF Done:  E(RHF) =  -1275.77739491     A.U. after    2 cycles

 The electronic state is 1-A.
 Alpha  occ. eigenvalues -- -105.50387-105.27932 -15.45325 -15.43730 -15.37263
 Alpha  occ. eigenvalues --  -11.30251 -11.22271 -11.20520 -11.18285 -11.13399
 Alpha  occ. eigenvalues --  -10.55194 -10.32526  -7.72137  -7.71742  -7.71737
 Alpha  occ. eigenvalues --   -7.49294  -7.49264  -7.49249  -1.16365  -1.13734
 Alpha  occ. eigenvalues --   -1.10651  -1.04756  -0.92994  -0.89390  -0.74541
 Alpha  occ. eigenvalues --   -0.73208  -0.71906  -0.63099  -0.58164  -0.55778
 Alpha  occ. eigenvalues --   -0.53723  -0.52219  -0.50873  -0.45861  -0.45504
 Alpha  occ. eigenvalues --   -0.43903  -0.42821  -0.41941  -0.40664  -0.39635
 Alpha  occ. eigenvalues --   -0.38745  -0.38377  -0.32920  -0.20736  -0.20313
 Alpha  occ. eigenvalues --   -0.20181
 Alpha virt. eigenvalues --    0.11604   0.12766   0.13781   0.13948   0.15386
 Alpha virt. eigenvalues --    0.16184   0.17931   0.18208   0.19169   0.20099
 Alpha virt. eigenvalues --    0.20905   0.21297   0.21825   0.22613   0.23486

 Mulliken charges:
               1
     1  C   -0.459229
     2  C   -1.443387
     3  Cl   0.121791
     4  H    0.130244
     5  C   -1.176781
     6  N    0.969214
     7  C   -1.088078
     8  N    1.013706
     9  N    0.689099
    10  H    0.336816
    11  H    0.216410
    12  C    0.025509
    13  H    0.149105
    14  H    0.221246
    15  H    0.271248
    16  Cl  -0.976913
 Sum of Mulliken charges =  -1.00000

 Dipole moment (field-independent basis, Debye):
    X=             11.4623    Y=              3.2546    Z=             -2.6303  Tot=             12.2023

 Test job not archived.
 1\1\GINC-SE041\SP\RHF\Aug-CC-pVDZ\C5H6Cl2N3(1-)\OHZDE\09-Apr-2025\0\\#
 t hf aug-cc-pvdz iop(5/13=1,5/36=2,99/5=2) pseudo=read geom=check gues
 s=(read,tcheck) scf=(maxcycle=1)\\title\\-1,1\C,0,0.120642,0.083448,0.
 040631\C,0,-0.522895,0.252019,-1.369256\Cl,0,1.931632,-0.055721,-0.110
 841\H,0,-1.593903,0.366981,-1.159013\C,0,-0.141536,1.245632,0.890974\N
 ,0,-0.354295,2.201727,1.540465\C,0,-0.318886,-1.138137,0.71601\N,0,-0.
 576598,-2.147243,1.259928\N,0,-0.408167,-0.927101,-2.187595\H,0,-1.212
 802,-1.520136,-1.988411\H,0,0.461764,-1.423366,-2.04107\C,0,0.019066,1

 Normal termination of Gaussian 16 at Wed Apr  9 02:50:41 2025.
