 Gaussian 16, Revision C.01,

 ----------------------------------------------------------------------
 #t hf aug-cc-pvdz symm=none int=(grid=ultrafine) guess=(read,tcheck) s
 table=(opt,rrhf)
 ----------------------------------------------------------------------
 -----
 title
 -----
 Symbolic Z-matrix:
 Charge = -1 Multiplicity = 1

 SCF Done:  E(RHF) =  -839.465412269     A.U. after   15 cycles
 Normal termination of Gaussian 16 at Wed Apr  9 02:57:00 2025.
 Gaussian 16:  ES64L-G16RevC.01  3-Jul-2019

 ----------------------------------------------------------------------
 #t hf aug-cc-pvdz iop(5/13=1,5/36=2,99/5=2) pseudo=read geom=check gue
 ss=(read,tcheck) scf=(maxcycle=1)
 ----------------------------------------------------------------------
 -----
 title
 -----
 Structure from the checkpoint file:  "E2SN2_370_mol2.chk"
 Charge = -1 Multiplicity = 1

                         Standard orientation:
 ---------------------------------------------------------------------
 Center     Atomic      Atomic             Coordinates (Angstroms)
 Number     Number       Type             X           Y           Z
 ---------------------------------------------------------------------
      1          6           0        0.132240   -0.721350   -0.123093
      2          6           0       -0.063259    0.682796   -0.739909
      3         17           0        1.948273   -1.095857   -0.247679
      4          1           0        0.528579    0.749520   -1.659688
      5          1           0       -0.352791   -1.433434   -0.790942
      6          7           0       -0.357068   -0.925315    1.177204
      7          1           0       -0.135198   -0.135652    1.773011
      8          1           0       -1.401481   -1.024795    1.049636
      9          6           0        0.484086    1.698970    0.180465
     10          7           0        0.919094    2.499599    0.921114
     11          7           0       -1.463794    0.975577   -1.022197
     12          1           0       -2.065271    0.366465   -0.419080
     13          1           0       -1.647284    0.659014   -1.967383
     14          9           0       -2.783691   -0.929231    0.309707
 ---------------------------------------------------------------------

 SCF Done:  E(RHF) =  -839.921103353     A.U. after    2 cycles

 The electronic state is 1-A.
 Alpha  occ. eigenvalues -- -105.42314 -26.12422 -15.39579 -15.35190 -15.33790
 Alpha  occ. eigenvalues --  -11.20934 -11.18916 -11.16618 -10.47198  -7.64110
 Alpha  occ. eigenvalues --   -7.63788  -7.63783  -1.19558  -1.11341  -1.08593
 Alpha  occ. eigenvalues --   -1.04307  -0.92927  -0.85136  -0.73175  -0.60743
 Alpha  occ. eigenvalues --   -0.57798  -0.56259  -0.53344  -0.49230  -0.47817
 Alpha  occ. eigenvalues --   -0.45890  -0.41214  -0.37831  -0.37156  -0.35107
 Alpha  occ. eigenvalues --   -0.32848  -0.32267  -0.30919  -0.28923  -0.28103
 Alpha  occ. eigenvalues --   -0.26185
 Alpha virt. eigenvalues --    0.12887   0.14703   0.15285   0.16226   0.17670
 Alpha virt. eigenvalues --    0.18643   0.19412   0.19844   0.22372   0.23171
 Alpha virt. eigenvalues --    0.24342   0.24582   0.25395   0.26027   0.27329

 Mulliken charges:
               1
     1  C   -1.028368
     2  C   -0.301161
     3  Cl  -0.127805
     4  H    0.085200
     5  H    0.166940
     6  N    0.532731
     7  H    0.222985
     8  H    0.286840
     9  C   -1.693608
    10  N    0.882475
    11  N    0.578431
    12  H    0.188336
    13  H    0.235498
    14  F   -1.028496
 Sum of Mulliken charges =  -1.00000

 Dipole moment (field-independent basis, Debye):
    X=              4.4005    Y=             -0.2354    Z=             -4.1451  Tot=              6.0499

 Test job not archived.
 1\1\GINC-SE114\SP\RHF\Aug-CC-pVDZ\C3H6Cl1F1N3(1-)\OHZDE\09-Apr-2025\0\
 \#t hf aug-cc-pvdz iop(5/13=1,5/36=2,99/5=2) pseudo=read geom=check gu
 ess=(read,tcheck) scf=(maxcycle=1)\\title\\-1,1\C,0,-0.024095,0.030472
 ,-0.071967\C,0,-0.285881,-0.087689,-1.591116\Cl,0,1.812768,0.232645,0.
 125047\H,0,0.468026,-0.751904,-2.028334\H,0,-0.253447,-0.940335,0.3676
 61\N,0,-0.738052,1.016511,0.627882\H,0,-0.759532,1.88458,0.104646\H,0,
 -1.70821,0.610505,0.732391\C,0,-0.091967,1.232628,-2.222341\N,0,0.0612
 45,2.287837,-2.714133\N,0,-1.624621,-0.584679,-1.88723\H,0,-2.244802,-

 Normal termination of Gaussian 16 at Wed Apr  9 02:57:05 2025.
