 Gaussian 16, Revision C.01,

 ----------------------------------------------------------------------
 #t hf aug-cc-pvdz symm=none int=(grid=ultrafine) guess=(read,tcheck) s
 table=(opt,rrhf)
 ----------------------------------------------------------------------
 -----
 title
 -----
 Symbolic Z-matrix:
 Charge = -1 Multiplicity = 1

 SCF Done:  E(RHF) =  -630.157695748     A.U. after   16 cycles
 Normal termination of Gaussian 16 at Wed Apr  9 02:59:59 2025.
 Gaussian 16:  ES64L-G16RevC.01  3-Jul-2019

 ----------------------------------------------------------------------
 #t hf aug-cc-pvdz iop(5/13=1,5/36=2,99/5=2) pseudo=read geom=check gue
 ss=(read,tcheck) scf=(maxcycle=1)
 ----------------------------------------------------------------------
 -----
 title
 -----
 Structure from the checkpoint file:  "E2SN2_411_mol1.chk"
 Charge = -1 Multiplicity = 1

                         Standard orientation:
 ---------------------------------------------------------------------
 Center     Atomic      Atomic             Coordinates (Angstroms)
 Number     Number       Type             X           Y           Z
 ---------------------------------------------------------------------
      1          6           0       -0.919295   -0.231273    0.070055
      2          1           0        0.152976    0.591250   -1.545278
      3          9           0        0.126693   -1.107617    1.295092
      4          9           0       -1.978961    0.644705   -1.070620
      5          6           0        0.265836    0.589632   -0.464074
      6          7           0       -1.683159    0.296389    1.173251
      7          1           0       -1.593842   -0.366509    1.928412
      8          1           0       -2.635275    0.400022    0.855613
      9          7           0       -1.186032   -1.474615   -0.597769
     10          1           0       -2.140420   -1.439710   -0.925137
     11          1           0       -1.036299   -2.204827    0.082537
     12          7           0        1.602080   -0.078855   -0.262588
     13          8           0        2.376984    0.371636    0.578555
     14          8           0        1.875152   -1.005153   -1.022396
     15          6           0        0.300771    1.988876    0.100545
     16          1           0       -0.652296    2.455659   -0.138631
     17          1           0        0.422327    1.950906    1.180444
     18          1           0        1.122057    2.563717   -0.336892
 ---------------------------------------------------------------------

 SCF Done:  E(RHF) =  -630.779100820     A.U. after    2 cycles

 The electronic state is 1-A.
 Alpha  occ. eigenvalues --  -26.17880 -26.15853 -20.42714 -20.42636 -15.62327
 Alpha  occ. eigenvalues --  -15.34577 -15.34220 -11.26330 -11.15334 -11.09075
 Alpha  occ. eigenvalues --   -1.49934  -1.33649  -1.27586  -1.24876  -1.06679
 Alpha  occ. eigenvalues --   -1.00727  -0.98071  -0.82272  -0.75250  -0.66806
 Alpha  occ. eigenvalues --   -0.60285  -0.58354  -0.57983  -0.57678  -0.55607
 Alpha  occ. eigenvalues --   -0.54949  -0.48348  -0.43894  -0.41815  -0.39474
 Alpha  occ. eigenvalues --   -0.37630  -0.35049  -0.34257  -0.34161  -0.32826
 Alpha  occ. eigenvalues --   -0.32613  -0.31729  -0.31638  -0.29714  -0.28761
 Alpha  occ. eigenvalues --   -0.28220
 Alpha virt. eigenvalues --    0.13328   0.13595   0.14271   0.15120   0.15566
 Alpha virt. eigenvalues --    0.16295   0.16831   0.18647   0.22120   0.23078
 Alpha virt. eigenvalues --    0.24036   0.24556   0.25311   0.26090   0.27252

 Mulliken charges:
               1
     1  C   -2.352735
     2  H    0.258682
     3  F   -0.979537
     4  F   -0.968823
     5  C   -0.878598
     6  N    0.621624
     7  H    0.408289
     8  H    0.407168
     9  N    0.943682
    10  H    0.312951
    11  H    0.333533
    12  N    3.350362
    13  O   -1.565800
    14  O   -1.577690
    15  C   -0.050873
    16  H    0.295129
    17  H    0.343202
    18  H    0.099433
 Sum of Mulliken charges =  -1.00000

 Dipole moment (field-independent basis, Debye):
    X=             -2.0261    Y=              1.2579    Z=              0.0644  Tot=              2.3857

 Test job not archived.
 1\1\GINC-SE403\SP\RHF\Aug-CC-pVDZ\C3H8F2N3O2(1-)\OHZDE\09-Apr-2025\0\\
 #t hf aug-cc-pvdz iop(5/13=1,5/36=2,99/5=2) pseudo=read geom=check gue
 ss=(read,tcheck) scf=(maxcycle=1)\\title\\-1,1\C,0,0.57765826,-0.10449
 223,0.02045442\H,0,1.62818369,1.64661741,0.53583717\F,0,-1.15815439,-0
 .13810358,0.61088758\F,0,2.24808212,-0.10541012,-0.61283161\C,0,0.6540
 7752,1.42869953,0.10529141\N,0,0.11979121,-0.705992,-1.20735329\H,0,-0
 .71414136,-1.22599478,-0.97968521\H,0,0.8652867,-1.29408395,-1.5487374
 2\N,0,0.99344029,-0.82910847,1.18882738\H,0,1.73286204,-1.455259,0.905

 Normal termination of Gaussian 16 at Wed Apr  9 03:00:08 2025.
