 Gaussian 16, Revision C.01,

 ----------------------------------------------------------------------
 #t hf aug-cc-pvdz symm=none int=(grid=ultrafine) guess=(read,tcheck) s
 table=(opt,rrhf)
 ----------------------------------------------------------------------
 -----
 title
 -----
 Symbolic Z-matrix:
 Charge = -1 Multiplicity = 1

 SCF Done:  E(RHF) =  -1238.60678914     A.U. after   15 cycles
 Normal termination of Gaussian 16 at Wed Apr  9 03:02:12 2025.
 Gaussian 16:  ES64L-G16RevC.01  3-Jul-2019

 ----------------------------------------------------------------------
 #t hf aug-cc-pvdz iop(5/13=1,5/36=2,99/5=2) pseudo=read geom=check gue
 ss=(read,tcheck) scf=(maxcycle=1)
 ----------------------------------------------------------------------
 -----
 title
 -----
 Structure from the checkpoint file:  "E2SN2_58_mol2.chk"
 Charge = -1 Multiplicity = 1

                         Standard orientation:
 ---------------------------------------------------------------------
 Center     Atomic      Atomic             Coordinates (Angstroms)
 Number     Number       Type             X           Y           Z
 ---------------------------------------------------------------------
      1          6           0        1.184334    0.002370    0.332468
      2          6           0       -0.334010    0.045023    0.073616
      3         17           0        1.841656   -1.600904   -0.202949
      4          1           0       -0.786338   -0.732990    0.708282
      5          6           0        1.862744    1.032680   -0.456044
      6          7           0        2.428846    1.890760   -1.024588
      7          6           0        1.506872    0.166384    1.810317
      8          1           0        1.109687    1.124226    2.142202
      9          1           0        2.584085    0.114124    1.978457
     10          1           0        1.016242   -0.633459    2.368618
     11          7           0       -0.622482   -0.133459   -1.340283
     12          1           0       -1.642074   -0.109018   -1.390308
     13          1           0       -0.349089   -1.067899   -1.626994
     14          7           0       -0.823540    1.321610    0.551196
     15          1           0       -0.719416    1.979011   -0.217924
     16          1           0       -1.827724    1.188776    0.682072
     17         17           0       -3.699584   -0.216384    0.055254
 ---------------------------------------------------------------------

 SCF Done:  E(RHF) =  -1239.09242501     A.U. after    2 cycles

 The electronic state is 1-A.
 Alpha  occ. eigenvalues -- -105.47556-105.28688 -15.42438 -15.36165 -15.36002
 Alpha  occ. eigenvalues --  -11.24742 -11.19500 -11.18763 -11.15452 -10.52410
 Alpha  occ. eigenvalues --  -10.33279  -7.69346  -7.68983  -7.68977  -7.50040
 Alpha  occ. eigenvalues --   -7.50016  -7.50004  -1.14155  -1.11613  -1.03869
 Alpha  occ. eigenvalues --   -1.01192  -0.91173  -0.82217  -0.75464  -0.73993
 Alpha  occ. eigenvalues --   -0.60562  -0.60027  -0.56500  -0.56210  -0.51865
 Alpha  occ. eigenvalues --   -0.50066  -0.49020  -0.47005  -0.45190  -0.44330
 Alpha  occ. eigenvalues --   -0.39729  -0.38982  -0.37163  -0.36713  -0.33934
 Alpha  occ. eigenvalues --   -0.32237  -0.21428  -0.21125  -0.20970
 Alpha virt. eigenvalues --    0.11354   0.13217   0.13590   0.14190   0.15681
 Alpha virt. eigenvalues --    0.16458   0.17022   0.18202   0.18375   0.19809
 Alpha virt. eigenvalues --    0.21150   0.22161   0.23290   0.23689   0.24216

 Mulliken charges:
               1
     1  C   -0.971581
     2  C   -2.290305
     3  Cl  -0.022269
     4  H   -0.034537
     5  C   -1.554752
     6  N    1.069300
     7  C    0.396641
     8  H    0.350699
     9  H    0.179894
    10  H    0.244231
    11  N    0.874958
    12  H    0.183250
    13  H    0.203723
    14  N    0.699653
    15  H    0.348727
    16  H    0.301676
    17  Cl  -0.979310
 Sum of Mulliken charges =  -1.00000

 Dipole moment (field-independent basis, Debye):
    X=              9.7185    Y=             -2.1877    Z=              2.4087  Tot=             10.2488

 Test job not archived.
 1\1\GINC-SE186\SP\RHF\Aug-CC-pVDZ\C4H8Cl2N3(1-)\OHZDE\09-Apr-2025\0\\#
 t hf aug-cc-pvdz iop(5/13=1,5/36=2,99/5=2) pseudo=read geom=check gues
 s=(read,tcheck) scf=(maxcycle=1)\\title\\-1,1\C,0,-0.522203,0.069401,-
 1.584398\C,0,0.210179,-0.020291,-0.231711\Cl,0,-0.290287,-1.479693,-2.
 498595\H,0,1.283341,-0.120225,-0.457637\C,0,-1.961378,0.234736,-1.3723
 39\N,0,-3.111127,0.433648,-1.23622\C,0,0.021517,1.201419,-2.443393\H,0
 ,-0.107628,2.135414,-1.899022\H,0,-0.494123,1.23848,-3.404711\H,0,1.08
 713,1.034248,-2.612773\N,0,-0.309546,-1.119598,0.56553\H,0,0.254194,-1

 Normal termination of Gaussian 16 at Wed Apr  9 03:02:22 2025.
