 Gaussian 16, Revision C.01,

 ----------------------------------------------------------------------
 #t hf aug-cc-pvdz symm=none int=(grid=ultrafine) guess=(read,tcheck) s
 table=(opt,rrhf)
 ----------------------------------------------------------------------
 -----
 title
 -----
 Symbolic Z-matrix:
 Charge = -1 Multiplicity = 1

 SCF Done:  E(RHF) =  -823.516436771     A.U. after   14 cycles
 Normal termination of Gaussian 16 at Wed Apr  9 02:41:10 2025.
 Gaussian 16:  ES64L-G16RevC.01  3-Jul-2019

 ----------------------------------------------------------------------
 #t hf aug-cc-pvdz iop(5/13=1,5/36=2,99/5=2) pseudo=read geom=check gue
 ss=(read,tcheck) scf=(maxcycle=1)
 ----------------------------------------------------------------------
 -----
 title
 -----
 Structure from the checkpoint file:  "E2SN2_192_mol2.chk"
 Charge = -1 Multiplicity = 1

                         Standard orientation:
 ---------------------------------------------------------------------
 Center     Atomic      Atomic             Coordinates (Angstroms)
 Number     Number       Type             X           Y           Z
 ---------------------------------------------------------------------
      1          6           0       -0.331260    0.899592    0.295326
      2          6           0       -0.361744   -0.573572   -0.103735
      3          9           0       -1.209810    1.064719    1.387879
      4          1           0        0.326008   -0.680073   -0.948031
      5          1           0        0.678833    1.103503    0.651285
      6          6           0       -0.736201    1.854410   -0.799161
      7          1           0       -0.029189    1.770938   -1.627312
      8          1           0       -0.711719    2.880313   -0.425251
      9          1           0       -1.745753    1.635045   -1.155072
     10          6           0       -1.720003   -0.946861   -0.539008
     11          7           0       -2.805977   -1.216456   -0.894909
     12          7           0        0.101495   -1.482751    0.936435
     13          1           0        1.116723   -1.388839    0.929926
     14          1           0       -0.243114   -1.141666    1.827182
     15         17           0        2.901360   -0.133450   -0.303227
 ---------------------------------------------------------------------

 SCF Done:  E(RHF) =  -823.959795551     A.U. after    2 cycles

 The electronic state is 1-A.
 Alpha  occ. eigenvalues -- -105.28883 -26.33442 -15.40150 -15.37092 -11.20667
 Alpha  occ. eigenvalues --  -11.18387 -11.17251 -11.12945 -10.33468  -7.50229
 Alpha  occ. eigenvalues --   -7.50205  -7.50199  -1.45402  -1.11379  -1.07884
 Alpha  occ. eigenvalues --   -0.94748  -0.84573  -0.74558  -0.73710  -0.63088
 Alpha  occ. eigenvalues --   -0.58613  -0.57738  -0.55136  -0.52556  -0.49536
 Alpha  occ. eigenvalues --   -0.47330  -0.45883  -0.45451  -0.42708  -0.39520
 Alpha  occ. eigenvalues --   -0.38035  -0.37281  -0.32727  -0.21584  -0.21277
 Alpha  occ. eigenvalues --   -0.21177
 Alpha virt. eigenvalues --    0.12135   0.13857   0.14005   0.14998   0.16287
 Alpha virt. eigenvalues --    0.17672   0.18074   0.19139   0.21505   0.22815
 Alpha virt. eigenvalues --    0.23590   0.23937   0.24592   0.25209   0.25511

 Mulliken charges:
               1
     1  C    1.317501
     2  C   -1.334539
     3  F   -0.882638
     4  H    0.176854
     5  H    0.162200
     6  C   -0.431820
     7  H    0.234521
     8  H    0.137606
     9  H    0.267286
    10  C   -1.755743
    11  N    0.935175
    12  N    0.694904
    13  H    0.234766
    14  H    0.218693
    15  Cl  -0.974767
 Sum of Mulliken charges =  -1.00000

 Dipole moment (field-independent basis, Debye):
    X=             -5.0597    Y=              3.3173    Z=              1.3667  Tot=              6.2026

 Test job not archived.
 1\1\GINC-SE115\SP\RHF\Aug-CC-pVDZ\C4H7Cl1F1N2(1-)\OHZDE\09-Apr-2025\0\
 \#t hf aug-cc-pvdz iop(5/13=1,5/36=2,99/5=2) pseudo=read geom=check gu
 ess=(read,tcheck) scf=(maxcycle=1)\\title\\-1,1\C,0,-0.124645,-0.08833
 2,0.018542\C,0,-0.552749,-0.014557,-1.444904\F,0,1.251362,0.221374,0.0
 77477\H,0,-1.61999,-0.254658,-1.467916\H,0,-0.663057,0.703785,0.539347
 \C,0,-0.34649,-1.429914,0.670079\H,0,-1.415569,-1.652843,0.676456\H,0,
 0.007964,-1.404678,1.702848\H,0,0.189357,-2.217473,0.134722\C,0,0.1839
 04,-1.018892,-2.233782\N,0,0.772107,-1.835906,-2.838092\N,0,-0.403108,

 Normal termination of Gaussian 16 at Wed Apr  9 02:41:16 2025.
