 Gaussian 16, Revision C.01,

 ----------------------------------------------------------------------
 #t hf aug-cc-pvdz symm=none int=(grid=ultrafine) guess=(read,tcheck) s
 table=(opt,rrhf)
 ----------------------------------------------------------------------
 -----
 title
 -----
 Symbolic Z-matrix:
 Charge = -1 Multiplicity = 1

 SCF Done:  E(RHF) =  -832.217067916     A.U. after   16 cycles
 Normal termination of Gaussian 16 at Wed Apr  9 02:37:12 2025.
 Gaussian 16:  ES64L-G16RevC.01  3-Jul-2019

 ----------------------------------------------------------------------
 #t hf aug-cc-pvdz iop(5/13=1,5/36=2,99/5=2) pseudo=read geom=check gue
 ss=(read,tcheck) scf=(maxcycle=1)
 ----------------------------------------------------------------------
 -----
 title
 -----
 Structure from the checkpoint file:  "E2SN2_138_mol1.chk"
 Charge = -1 Multiplicity = 1

                         Standard orientation:
 ---------------------------------------------------------------------
 Center     Atomic      Atomic             Coordinates (Angstroms)
 Number     Number       Type             X           Y           Z
 ---------------------------------------------------------------------
      1          6           0        0.395520    0.172799    0.385594
      2          6           0       -0.618302   -0.893337   -0.020818
      3         17           0        0.350489    1.604057   -0.779046
      4          1           0        0.038619   -2.153742    2.109083
      5          1           0       -0.444212   -1.628233    0.929615
      6          7           0        0.221438    0.648171    1.728862
      7          1           0        0.226512   -0.226859    2.286580
      8          1           0       -0.717067    1.035216    1.793367
      9          6           0        1.748549   -0.390226    0.236660
     10          7           0        2.823790   -0.831613    0.066609
     11          6           0       -1.961520   -0.359422    0.064196
     12          7           0       -3.051861    0.068459    0.190122
     13          7           0       -0.382391   -1.620057   -1.246067
     14          1           0       -0.048847   -1.004869   -1.980616
     15          1           0        0.324356   -2.324079   -1.064728
 ---------------------------------------------------------------------

 SCF Done:  E(RHF) =  -832.666216727     A.U. after    2 cycles

 The electronic state is 1-A.
 Alpha  occ. eigenvalues -- -105.46042 -15.41635 -15.39644 -15.39307 -15.39288
 Alpha  occ. eigenvalues --  -11.27326 -11.18593 -11.17123 -11.16901 -10.50892
 Alpha  occ. eigenvalues --   -7.67817  -7.67458  -7.67454  -1.15458  -1.11136
 Alpha  occ. eigenvalues --   -1.09777  -1.08183  -0.96872  -0.88133  -0.81301
 Alpha  occ. eigenvalues --   -0.63625  -0.61555  -0.60200  -0.58439  -0.55762
 Alpha  occ. eigenvalues --   -0.50919  -0.48720  -0.48365  -0.44078  -0.39988
 Alpha  occ. eigenvalues --   -0.39856  -0.39525  -0.37438  -0.36878  -0.35669
 Alpha  occ. eigenvalues --   -0.35281  -0.32671  -0.12816
 Alpha virt. eigenvalues --    0.13128   0.14456   0.15372   0.16699   0.17082
 Alpha virt. eigenvalues --    0.17963   0.18619   0.19930   0.20028   0.22514
 Alpha virt. eigenvalues --    0.22706   0.23171   0.23749   0.24292   0.25043

 Mulliken charges:
               1
     1  C   -1.530566
     2  C   -0.420479
     3  Cl   0.025273
     4  H   -0.387907
     5  H    0.144080
     6  N    0.816072
     7  H    0.238820
     8  H    0.258790
     9  C   -1.451251
    10  N    1.009709
    11  C   -1.838132
    12  N    1.002508
    13  N    0.575030
    14  H    0.212605
    15  H    0.345447
 Sum of Mulliken charges =  -1.00000

 Dipole moment (field-independent basis, Debye):
    X=              0.7937    Y=              4.9899    Z=             -5.2796  Tot=              7.3077

 Test job not archived.
 1\1\GINC-SE143\SP\RHF\Aug-CC-pVDZ\C4H6Cl1N4(1-)\OHZDE\09-Apr-2025\0\\#
 t hf aug-cc-pvdz iop(5/13=1,5/36=2,99/5=2) pseudo=read geom=check gues
 s=(read,tcheck) scf=(maxcycle=1)\\title\\-1,1\C,0,-0.15879028,-0.05857
 612,-0.35018537\C,0,-0.11295737,0.0077404,1.17400415\Cl,0,1.54332183,-
 0.15264609,-1.05791368\H,0,-2.67086497,-0.10192383,1.13244235\H,0,-1.3
 122637,-0.0364058,1.35680957\N,0,-0.94336714,-1.15002646,-0.85399619\H
 ,0,-1.85352639,-1.02264029,-0.37219254\H,0,-0.53440447,-2.0084642,-0.4
 926218\C,0,-0.70596718,1.21231163,-0.85546514\N,0,-1.09598937,2.247772

 Normal termination of Gaussian 16 at Wed Apr  9 02:37:20 2025.
