 Gaussian 16, Revision C.01,

 ----------------------------------------------------------------------
 #t hf aug-cc-pvdz symm=none int=(grid=ultrafine) guess=(read,tcheck) s
 table=(opt,rrhf)
 ----------------------------------------------------------------------
 -----
 title
 -----
 Symbolic Z-matrix:
 Charge = -1 Multiplicity = 1

 SCF Done:  E(RHF) =  -935.188977902     A.U. after   16 cycles
 Normal termination of Gaussian 16 at Wed Apr  9 02:57:31 2025.
 Gaussian 16:  ES64L-G16RevC.01  3-Jul-2019

 ----------------------------------------------------------------------
 #t hf aug-cc-pvdz iop(5/13=1,5/36=2,99/5=2) pseudo=read geom=check gue
 ss=(read,tcheck) scf=(maxcycle=1)
 ----------------------------------------------------------------------
 -----
 title
 -----
 Structure from the checkpoint file:  "E2SN2_378_mol1.chk"
 Charge = -1 Multiplicity = 1

                         Standard orientation:
 ---------------------------------------------------------------------
 Center     Atomic      Atomic             Coordinates (Angstroms)
 Number     Number       Type             X           Y           Z
 ---------------------------------------------------------------------
      1          6           0        0.038663   -0.047209    0.526345
      2          1           0        0.203172    1.966066    1.104828
      3          9           0        1.685875   -1.088946    0.679230
      4         17           0       -1.855506    0.944697   -0.075394
      5          6           0        0.866484    1.208092    0.686152
      6          1           0        1.595312    0.937043    1.449416
      7          7           0       -0.456354   -0.633386    1.706952
      8          1           0        0.242825   -1.337467    1.922634
      9          1           0       -1.341139   -1.079388    1.507780
     10          7           0       -0.033425   -0.889827   -0.741618
     11          8           0        0.451120   -0.453673   -1.774177
     12          8           0       -0.611959   -1.963505   -0.633601
     13          6           0        1.598598    1.762054   -0.523832
     14          1           0        2.300618    1.023671   -0.904884
     15          1           0        0.909754    2.036644   -1.321877
     16          1           0        2.152880    2.656383   -0.216360
 ---------------------------------------------------------------------

 SCF Done:  E(RHF) =  -935.739472639     A.U. after    2 cycles

 The electronic state is 1-A.
 Alpha  occ. eigenvalues -- -105.35166 -26.15827 -20.44024 -20.43966 -15.64909
 Alpha  occ. eigenvalues --  -15.37214 -11.29620 -11.11274 -11.09429 -10.40004
 Alpha  occ. eigenvalues --   -7.56844  -7.56650  -7.56641  -1.52022  -1.35813
 Alpha  occ. eigenvalues --   -1.24165  -1.10163  -0.94854  -0.89656  -0.81787
 Alpha  occ. eigenvalues --   -0.76461  -0.68816  -0.61963  -0.60105  -0.59550
 Alpha  occ. eigenvalues --   -0.57355  -0.51135  -0.50039  -0.41933  -0.41281
 Alpha  occ. eigenvalues --   -0.39326  -0.37559  -0.34526  -0.33172  -0.32972
 Alpha  occ. eigenvalues --   -0.32149  -0.31041  -0.30183  -0.27016  -0.26909
 Alpha  occ. eigenvalues --   -0.26504
 Alpha virt. eigenvalues --    0.12506   0.14155   0.14514   0.15094   0.16745
 Alpha virt. eigenvalues --    0.17207   0.17547   0.19530   0.21628   0.22846
 Alpha virt. eigenvalues --    0.23809   0.24971   0.25103   0.26851   0.27384

 Mulliken charges:
               1
     1  C   -2.492829
     2  H    0.151634
     3  F   -0.919448
     4  Cl  -0.540866
     5  C    0.267288
     6  H    0.326111
     7  N    0.902217
     8  H    0.366154
     9  H    0.335146
    10  N    3.625320
    11  O   -1.669579
    12  O   -1.593562
    13  C   -0.276602
    14  H    0.249037
    15  H    0.234347
    16  H    0.035631
 Sum of Mulliken charges =  -1.00000

 Dipole moment (field-independent basis, Debye):
    X=              0.5939    Y=              1.6161    Z=              1.2363  Tot=              2.1197

 Test job not archived.
 1\1\GINC-SE250\SP\RHF\Aug-CC-pVDZ\C3H7Cl1F1N2O2(1-)\OHZDE\09-Apr-2025\
 0\\#t hf aug-cc-pvdz iop(5/13=1,5/36=2,99/5=2) pseudo=read geom=check
 guess=(read,tcheck) scf=(maxcycle=1)\\title\\-1,1\C,0,0.72260027,-0.03
 6532,0.00346928\H,0,1.36293145,1.9125541,-0.4504267\F,0,-1.21023145,-0
 .31480288,-0.08938539\Cl,0,2.87993749,0.0618446,0.52314557\C,0,0.46800
 485,1.45370008,-0.02810584\H,0,-0.33994846,1.55873125,-0.75157676\N,0,
 0.88706779,-0.67691743,-1.23964546\H,0,-0.04582216,-1.02218017,-1.4436
 2964\H,0,1.52307765,-1.45444941,-1.12843495\N,0,0.50126279,-0.9344755,

 Normal termination of Gaussian 16 at Wed Apr  9 02:57:39 2025.
