 Gaussian 16, Revision C.01,

 ----------------------------------------------------------------------
 #t hf aug-cc-pvdz symm=none int=(grid=ultrafine) guess=(read,tcheck) s
 table=(opt,rrhf)
 ----------------------------------------------------------------------
 -----
 title
 -----
 Symbolic Z-matrix:
 Charge = -1 Multiplicity = 1

 SCF Done:  E(RHF) =  -974.235334644     A.U. after   16 cycles
 Normal termination of Gaussian 16 at Wed Apr  9 02:56:31 2025.
 Gaussian 16:  ES64L-G16RevC.01  3-Jul-2019

 ----------------------------------------------------------------------
 #t hf aug-cc-pvdz iop(5/13=1,5/36=2,99/5=2) pseudo=read geom=check gue
 ss=(read,tcheck) scf=(maxcycle=1)
 ----------------------------------------------------------------------
 -----
 title
 -----
 Structure from the checkpoint file:  "E2SN2_350_mol1.chk"
 Charge = -1 Multiplicity = 1

                         Standard orientation:
 ---------------------------------------------------------------------
 Center     Atomic      Atomic             Coordinates (Angstroms)
 Number     Number       Type             X           Y           Z
 ---------------------------------------------------------------------
      1          6           0        0.641920    0.341564    0.354879
      2          1           0       -0.005860   -0.854690   -1.346791
      3          9           0       -0.954637    1.410321    1.049847
      4         17           0        2.340511   -0.863222   -0.627558
      5          6           0       -0.384946   -0.044432   -0.725650
      6          6           0        0.766057   -0.387243    1.670670
      7          1           0       -0.028719   -0.031154    2.321960
      8          1           0        0.695557   -1.462215    1.548220
      9          1           0        1.740748   -0.151266    2.100486
     10          6           0        1.402430    1.643846    0.219049
     11          1           0        2.424280    1.507832    0.569440
     12          1           0        1.425758    1.961398   -0.820419
     13          1           0        0.887574    2.387219    0.823838
     14          7           0       -0.734835    1.078632   -1.517398
     15          1           0       -1.147602    1.727910   -0.851011
     16          1           0       -1.431023    0.808834   -2.198756
     17          7           0       -1.640067   -0.702948   -0.097031
     18          8           0       -2.739385   -0.293088   -0.455451
     19          8           0       -1.471378   -1.689935    0.612977
 ---------------------------------------------------------------------

 SCF Done:  E(RHF) =  -974.827271372     A.U. after    2 cycles

 The electronic state is 1-A.
 Alpha  occ. eigenvalues -- -105.33309 -26.14862 -20.45181 -20.44992 -15.64206
 Alpha  occ. eigenvalues --  -15.36841 -11.23160 -11.21085 -11.09731 -11.09555
 Alpha  occ. eigenvalues --  -10.38145  -7.54963  -7.54828  -7.54812  -1.52359
 Alpha  occ. eigenvalues --   -1.36198  -1.23003  -1.10123  -0.96367  -0.91006
 Alpha  occ. eigenvalues --   -0.82335  -0.79599  -0.75378  -0.67617  -0.63922
 Alpha  occ. eigenvalues --   -0.61358  -0.58867  -0.57143  -0.51906  -0.48335
 Alpha  occ. eigenvalues --   -0.46501  -0.44736  -0.43719  -0.40828  -0.39153
 Alpha  occ. eigenvalues --   -0.38120  -0.35314  -0.32606  -0.32042  -0.31233
 Alpha  occ. eigenvalues --   -0.30642  -0.30125  -0.25646  -0.25436  -0.25359
 Alpha virt. eigenvalues --    0.13267   0.13620   0.14136   0.15146   0.15552
 Alpha virt. eigenvalues --    0.15984   0.16674   0.17588   0.18407   0.20421
 Alpha virt. eigenvalues --    0.21581   0.22696   0.23567   0.24583   0.24766

 Mulliken charges:
               1
     1  C   -0.556689
     2  H    0.078192
     3  F   -0.924423
     4  Cl  -0.686060
     5  C   -1.630461
     6  C   -0.185899
     7  H    0.352464
     8  H    0.316761
     9  H    0.181997
    10  C   -0.225674
    11  H    0.116684
    12  H    0.290517
    13  H    0.370490
    14  N    0.673323
    15  H    0.487731
    16  H    0.265092
    17  N    3.199072
    18  O   -1.516052
    19  O   -1.607066
 Sum of Mulliken charges =  -1.00000

 Dipole moment (field-independent basis, Debye):
    X=             -0.6898    Y=              0.8564    Z=             -0.7928  Tot=              1.3556

 Test job not archived.
 1\1\GINC-SE227\SP\RHF\Aug-CC-pVDZ\C4H9Cl1F1N2O2(1-)\OHZDE\09-Apr-2025\
 0\\#t hf aug-cc-pvdz iop(5/13=1,5/36=2,99/5=2) pseudo=read geom=check
 guess=(read,tcheck) scf=(maxcycle=1)\\title\\-1,1\C,0,0.75869611,-0.06
 459573,0.01656927\H,0,1.85272035,1.80644729,-0.20396494\F,0,-1.2399091
 9,0.35119576,0.09969932\Cl,0,3.04613525,-0.32793952,0.00335521\C,0,0.8
 4059789,1.47302147,0.02070376\C,0,0.56896596,-0.87569687,-1.24199886\H
 ,0,-0.48533988,-0.83512708,-1.50551493\H,0,1.17359821,-0.50271354,-2.0
 6104171\H,0,0.86664096,-1.90432552,-1.03280627\C,0,0.618796,-0.8000405

 Normal termination of Gaussian 16 at Wed Apr  9 02:56:43 2025.
