 Gaussian 16, Revision C.01,

 ----------------------------------------------------------------------
 #t hf aug-cc-pvdz symm=none int=(grid=ultrafine) guess=(read,tcheck) s
 table=(opt,rrhf)
 ----------------------------------------------------------------------
 -----
 title
 -----
 Symbolic Z-matrix:
 Charge = -1 Multiplicity = 1

 SCF Done:  E(RHF) =  -987.885572568     A.U. after   16 cycles
 Normal termination of Gaussian 16 at Wed Apr  9 02:43:15 2025.
 Gaussian 16:  ES64L-G16RevC.01  3-Jul-2019

 ----------------------------------------------------------------------
 #t hf aug-cc-pvdz iop(5/13=1,5/36=2,99/5=2) pseudo=read geom=check gue
 ss=(read,tcheck) scf=(maxcycle=1)
 ----------------------------------------------------------------------
 -----
 title
 -----
 Structure from the checkpoint file:  "E2SN2_219_mol1.chk"
 Charge = -1 Multiplicity = 1

                         Standard orientation:
 ---------------------------------------------------------------------
 Center     Atomic      Atomic             Coordinates (Angstroms)
 Number     Number       Type             X           Y           Z
 ---------------------------------------------------------------------
      1          6           0       -0.187835    0.050711   -0.364923
      2          1           0        0.842664    0.347715    1.478469
      3          9           0       -0.129226   -1.691086   -1.192157
      4         17           0       -0.359559    2.114379    0.124776
      5          6           0        0.968638   -0.268629    0.587799
      6          1           0       -0.063788    0.281004   -1.402640
      7          7           0       -1.559376   -0.309369    0.042664
      8          8           0       -1.727121   -0.659961    1.206330
      9          8           0       -2.432302   -0.200592   -0.808757
     10          6           0        2.191736    0.202463   -0.101629
     11          7           0        3.220473    0.497508   -0.587203
     12          7           0        1.063743   -1.664298    0.995258
     13          1           0        2.007041   -1.844223    1.316319
     14          1           0        0.855876   -2.198899    0.152994
 ---------------------------------------------------------------------

 SCF Done:  E(RHF) =  -988.470548428     A.U. after    2 cycles

 The electronic state is 1-A.
 Alpha  occ. eigenvalues -- -105.38933 -26.17976 -20.46483 -20.46262 -15.67054
 Alpha  occ. eigenvalues --  -15.40993 -15.37271 -11.28673 -11.21545 -11.18035
 Alpha  occ. eigenvalues --  -10.43756  -7.60615  -7.60383  -7.60372  -1.54010
 Alpha  occ. eigenvalues --   -1.37878  -1.26179  -1.12240  -1.08550  -1.01310
 Alpha  occ. eigenvalues --   -0.88671  -0.84514  -0.73315  -0.66599  -0.64492
 Alpha  occ. eigenvalues --   -0.61536  -0.60936  -0.58999  -0.53934  -0.50067
 Alpha  occ. eigenvalues --   -0.48579  -0.40887  -0.39592  -0.38270  -0.37157
 Alpha  occ. eigenvalues --   -0.36152  -0.35409  -0.34480  -0.33595  -0.31249
 Alpha  occ. eigenvalues --   -0.30617  -0.30137  -0.28160
 Alpha virt. eigenvalues --    0.13011   0.14778   0.15693   0.16747   0.16974
 Alpha virt. eigenvalues --    0.17798   0.19596   0.22030   0.22699   0.23112
 Alpha virt. eigenvalues --    0.23750   0.25464   0.26306   0.26596   0.26739

 Mulliken charges:
               1
     1  C    0.052048
     2  H    0.170934
     3  F   -0.940797
     4  Cl  -0.485425
     5  C   -0.215142
     6  H   -0.034352
     7  N    3.184666
     8  O   -1.477804
     9  O   -1.538240
    10  C   -1.572272
    11  N    0.943213
    12  N    0.392512
    13  H    0.176516
    14  H    0.344144
 Sum of Mulliken charges =  -1.00000

 Dipole moment (field-independent basis, Debye):
    X=              0.7613    Y=             -0.1678    Z=              2.4400  Tot=              2.5615

 Test job not archived.
 1\1\GINC-SE364\SP\RHF\Aug-CC-pVDZ\C3H4Cl1F1N3O2(1-)\OHZDE\09-Apr-2025\
 0\\#t hf aug-cc-pvdz iop(5/13=1,5/36=2,99/5=2) pseudo=read geom=check
 guess=(read,tcheck) scf=(maxcycle=1)\\title\\-1,1\C,0,0.53586074,-0.00
 267822,-0.06620779\H,0,1.74709248,1.72718928,-0.36405029\F,0,-1.320016
 21,0.06111865,-0.58894976\Cl,0,2.44466243,-0.42025265,0.77648258\C,0,0
 .69917669,1.51849944,-0.14641771\H,0,0.04221267,-0.51137062,0.73555533
 \N,0,0.74018702,-0.80099434,-1.29007466\O,0,1.22797468,-0.22962512,-2.
 26000853\O,0,0.43325769,-1.98470012,-1.23189794\C,0,0.42751164,2.01892

 Normal termination of Gaussian 16 at Wed Apr  9 02:43:28 2025.
