 Gaussian 16, Revision C.01,

 ----------------------------------------------------------------------
 #t hf aug-cc-pvdz symm=none int=(grid=ultrafine) guess=(read,tcheck) s
 table=(opt,rrhf)
 ----------------------------------------------------------------------
 -----
 title
 -----
 Symbolic Z-matrix:
 Charge = -1 Multiplicity = 1

 SCF Done:  E(RHF) =  -585.609442654     A.U. after   18 cycles
 Normal termination of Gaussian 16 at Wed Apr  9 02:42:00 2025.
 Gaussian 16:  ES64L-G16RevC.01  3-Jul-2019

 ----------------------------------------------------------------------
 #t hf aug-cc-pvdz iop(5/13=1,5/36=2,99/5=2) pseudo=read geom=check gue
 ss=(read,tcheck) scf=(maxcycle=1)
 ----------------------------------------------------------------------
 -----
 title
 -----
 Structure from the checkpoint file:  "E2SN2_210_mol2.chk"
 Charge = -1 Multiplicity = 1

                         Standard orientation:
 ---------------------------------------------------------------------
 Center     Atomic      Atomic             Coordinates (Angstroms)
 Number     Number       Type             X           Y           Z
 ---------------------------------------------------------------------
      1          6           0        0.516749   -0.616882    0.298037
      2          6           0       -0.587701    0.173090    0.976355
      3          9           0        0.104851   -0.911924   -1.037748
      4          1           0       -0.303918    1.209871    1.105805
      5          1           0        0.779021   -1.550522    0.770407
      6          1           0       -0.865776   -0.288273    1.914282
      7          7           0        1.767551    0.158279    0.079202
      8          8           0        1.662204    1.366330   -0.153183
      9          8           0        2.788375   -0.507864   -0.111751
     10          7           0       -1.820014    0.164010    0.098265
     11          8           0       -2.040629    1.146164   -0.608192
     12          8           0       -2.542996   -0.830886    0.162151
     13          1           0        1.304318   -0.146981    2.348417
 ---------------------------------------------------------------------

 SCF Done:  E(RHF) =  -586.167275041     A.U. after    2 cycles

 The electronic state is 1-A.
 Alpha  occ. eigenvalues --  -26.34708 -20.47711 -20.47437 -20.45157 -20.45080
 Alpha  occ. eigenvalues --  -15.66512 -15.65471 -11.27696 -11.19046  -1.54388
 Alpha  occ. eigenvalues --   -1.52323  -1.46214  -1.38281  -1.35939  -1.03145
 Alpha  occ. eigenvalues --   -0.95921  -0.79487  -0.72878  -0.66856  -0.65497
 Alpha  occ. eigenvalues --   -0.65112  -0.63098  -0.61761  -0.59517  -0.55787
 Alpha  occ. eigenvalues --   -0.52001  -0.49966  -0.47848  -0.43677  -0.37953
 Alpha  occ. eigenvalues --   -0.36725  -0.35810  -0.34653  -0.33375  -0.31218
 Alpha  occ. eigenvalues --   -0.11976
 Alpha virt. eigenvalues --    0.14632   0.15158   0.15958   0.17523   0.18007
 Alpha virt. eigenvalues --    0.20994   0.21961   0.22234   0.22948   0.23502
 Alpha virt. eigenvalues --    0.24864   0.26100   0.26825   0.27538   0.29599

 Mulliken charges:
               1
     1  C    0.669656
     2  C   -0.547816
     3  F   -0.912959
     4  H    0.239924
     5  H    0.057366
     6  H    0.119498
     7  N    2.736068
     8  O   -1.434221
     9  O   -1.427742
    10  N    2.949172
    11  O   -1.423728
    12  O   -1.462921
    13  H   -0.562295
 Sum of Mulliken charges =  -1.00000

 Dipole moment (field-independent basis, Debye):
    X=             -3.9740    Y=             -0.5617    Z=             -3.4992  Tot=              5.3247

 Test job not archived.
 1\1\GINC-SE073\SP\RHF\Aug-CC-pVDZ\C2H4F1N2O4(1-)\OHZDE\09-Apr-2025\0\\
 #t hf aug-cc-pvdz iop(5/13=1,5/36=2,99/5=2) pseudo=read geom=check gue
 ss=(read,tcheck) scf=(maxcycle=1)\\title\\-1,1\C,0,-0.077443,-0.017067
 ,-0.000911\C,0,-0.530931,0.07213,-1.446723\F,0,1.350575,-0.052539,0.02
 2251\H,0,-0.919938,1.056527,-1.674413\H,0,-0.432273,-0.876331,0.546232
 \H,0,-1.248451,-0.705806,-1.670039\N,0,-0.376509,1.198799,0.802518\O,0
 ,-0.341888,2.290894,0.227523\O,0,-0.378291,1.048943,2.027194\N,0,0.657
 039,-0.149349,-2.357434\O,0,1.210922,0.83487,-2.844163\O,0,0.985841,-1

 Normal termination of Gaussian 16 at Wed Apr  9 02:42:05 2025.
