 Gaussian 16, Revision C.01,

 ----------------------------------------------------------------------
 #t hf aug-cc-pvdz symm=none int=(grid=ultrafine) guess=(read,tcheck) s
 table=(opt,rrhf)
 ----------------------------------------------------------------------
 -----
 title
 -----
 Symbolic Z-matrix:
 Charge = -1 Multiplicity = 1

 SCF Done:  E(RHF) =  -1000.66384944     A.U. after   17 cycles
 Normal termination of Gaussian 16 at Wed Apr  9 02:47:28 2025.
 Gaussian 16:  ES64L-G16RevC.01  3-Jul-2019

 ----------------------------------------------------------------------
 #t hf aug-cc-pvdz iop(5/13=1,5/36=2,99/5=2) pseudo=read geom=check gue
 ss=(read,tcheck) scf=(maxcycle=1)
 ----------------------------------------------------------------------
 -----
 title
 -----
 Structure from the checkpoint file:  "E2SN2_24_mol1.chk"
 Charge = -1 Multiplicity = 1

                         Standard orientation:
 ---------------------------------------------------------------------
 Center     Atomic      Atomic             Coordinates (Angstroms)
 Number     Number       Type             X           Y           Z
 ---------------------------------------------------------------------
      1          6           0       -0.001077    0.112039   -0.198439
      2          6           0       -0.815072   -0.266475   -1.354075
      3         17           0        0.197288    1.912700    0.095951
      4          1           0       -1.559717   -2.480464   -2.080807
      5          1           0       -0.850732   -1.465813   -1.602750
      6          1           0       -0.404499    0.190847   -2.259147
      7          7           0       -0.571231   -0.525535    1.066379
      8          8           0       -0.470966   -1.745790    1.077167
      9          8           0       -1.089197    0.174300    1.919713
     10          7           0       -2.215029   -0.034644   -1.073177
     11          1           0       -2.681463   -0.867236   -1.457267
     12          1           0       -2.561223    0.787392   -1.549011
     13          7           0        1.438597   -0.378541   -0.292519
     14          8           0        1.892417   -0.547125   -1.417804
     15          8           0        2.047031   -0.529256    0.761939
 ---------------------------------------------------------------------

 SCF Done:  E(RHF) =  -1001.26712270     A.U. after    2 cycles

 The electronic state is 1-A.
 Alpha  occ. eigenvalues -- -105.48419 -20.50423 -20.50015 -20.49106 -20.48708
 Alpha  occ. eigenvalues --  -15.70113 -15.69041 -15.36026 -11.32271 -11.12514
 Alpha  occ. eigenvalues --  -10.53206  -7.70149  -7.69746  -7.69735  -1.57741
 Alpha  occ. eigenvalues --   -1.56197  -1.41557  -1.40546  -1.12045  -1.04566
 Alpha  occ. eigenvalues --   -0.94424  -0.90663  -0.82532  -0.73512  -0.71463
 Alpha  occ. eigenvalues --   -0.65889  -0.65400  -0.64099  -0.62376  -0.59995
 Alpha  occ. eigenvalues --   -0.54872  -0.51180  -0.49377  -0.42987  -0.41207
 Alpha  occ. eigenvalues --   -0.39969  -0.38405  -0.38133  -0.37444  -0.35785
 Alpha  occ. eigenvalues --   -0.35234  -0.33743  -0.32029  -0.10685
 Alpha virt. eigenvalues --    0.13196   0.13790   0.14642   0.16000   0.16698
 Alpha virt. eigenvalues --    0.17930   0.20134   0.20362   0.22332   0.22904
 Alpha virt. eigenvalues --    0.23081   0.23866   0.25374   0.25624   0.26523

 Mulliken charges:
               1
     1  C   -1.250171
     2  C   -1.141227
     3  Cl   0.114562
     4  H   -0.659392
     5  H    0.489915
     6  H    0.116440
     7  N    3.295117
     8  O   -1.531355
     9  O   -1.447524
    10  N    0.398822
    11  H    0.226502
    12  H    0.191774
    13  N    3.226874
    14  O   -1.477210
    15  O   -1.553128
 Sum of Mulliken charges =  -1.00000

 Dipole moment (field-independent basis, Debye):
    X=              3.3815    Y=              8.4784    Z=              3.1179  Tot=              9.6457

 Test job not archived.
 1\1\GINC-SE054\SP\RHF\Aug-CC-pVDZ\C2H5Cl1N3O4(1-)\OHZDE\09-Apr-2025\0\
 \#t hf aug-cc-pvdz iop(5/13=1,5/36=2,99/5=2) pseudo=read geom=check gu
 ess=(read,tcheck) scf=(maxcycle=1)\\title\\-1,1\C,0,-0.08329177,0.0573
 4466,-0.40389185\C,0,-0.18735132,0.03166141,1.05551483\Cl,0,1.61568605
 ,-0.01062484,-1.09472141\H,0,-2.1741976,-0.10069736,2.47653746\H,0,-1.
 31652801,0.18631337,1.50558857\H,0,0.39421621,0.85506645,1.48054546\N,
 0,-0.89478979,-1.09039579,-1.00013392\O,0,-2.10107571,-0.96482977,-0.8
 3191402\O,0,-0.32408056,-2.02023247,-1.54413062\N,0,0.09152161,-1.2987

 Normal termination of Gaussian 16 at Wed Apr  9 02:47:37 2025.
