 Gaussian 16, Revision C.01,

 ----------------------------------------------------------------------
 #t hf aug-cc-pvdz symm=none int=(grid=ultrafine) guess=(read,tcheck) s
 table=(opt,rrhf)
 ----------------------------------------------------------------------
 -----
 title
 -----
 Symbolic Z-matrix:
 Charge = -1 Multiplicity = 1

 SCF Done:  E(RHF) =  -502.378466731     A.U. after   15 cycles
 Normal termination of Gaussian 16 at Wed Apr  9 02:52:37 2025.
 Gaussian 16:  ES64L-G16RevC.01  3-Jul-2019

 ----------------------------------------------------------------------
 #t hf aug-cc-pvdz iop(5/13=1,5/36=2,99/5=2) pseudo=read geom=check gue
 ss=(read,tcheck) scf=(maxcycle=1)
 ----------------------------------------------------------------------
 -----
 title
 -----
 Structure from the checkpoint file:  "E2SN2_315_mol1.chk"
 Charge = -1 Multiplicity = 1

                         Standard orientation:
 ---------------------------------------------------------------------
 Center     Atomic      Atomic             Coordinates (Angstroms)
 Number     Number       Type             X           Y           Z
 ---------------------------------------------------------------------
      1          6           0        0.263789   -0.376815    0.099562
      2          1           0       -1.076763    0.192347    1.583984
      3          9           0       -0.194365   -0.509187   -1.652986
      4          9           0        0.991544   -0.139304    1.739979
      5          6           0       -1.042651    0.309427    0.499405
      6          6           0        1.407198    0.398505   -0.388132
      7          7           0        2.341290    0.995140   -0.779719
      8          7           0        0.352918   -1.806152    0.225199
      9          1           0        1.107858   -1.986760    0.871704
     10          1           0        0.556826   -2.161603   -0.698315
     11          6           0       -2.278697   -0.363227   -0.087616
     12          1           0       -2.374546   -0.146961   -1.149402
     13          1           0       -2.206522   -1.444748    0.036883
     14          1           0       -3.169852   -0.006336    0.444644
     15          6           0       -0.999757    1.795032    0.169237
     16          1           0       -0.164961    2.278878    0.681350
     17          1           0       -0.876177    1.926823   -0.908190
     18          1           0       -1.929220    2.284334    0.481314
 ---------------------------------------------------------------------

 SCF Done:  E(RHF) =  -502.877761157     A.U. after    2 cycles

 The electronic state is 1-A.
 Alpha  occ. eigenvalues --  -26.17131 -26.17054 -15.35591 -15.35276 -11.25679
 Alpha  occ. eigenvalues --  -11.13826 -11.09982 -11.08850 -11.08154  -1.26737
 Alpha  occ. eigenvalues --   -1.25128  -1.06398  -1.04775  -0.94301  -0.80857
 Alpha  occ. eigenvalues --   -0.79078  -0.68069  -0.58059  -0.57194  -0.52135
 Alpha  occ. eigenvalues --   -0.48737  -0.45543  -0.43187  -0.41835  -0.40808
 Alpha  occ. eigenvalues --   -0.39988  -0.37705  -0.35277  -0.34636  -0.33634
 Alpha  occ. eigenvalues --   -0.33182  -0.32763  -0.31718  -0.30856  -0.30016
 Alpha  occ. eigenvalues --   -0.28363
 Alpha virt. eigenvalues --    0.12343   0.13202   0.14059   0.14406   0.16198
 Alpha virt. eigenvalues --    0.16665   0.16936   0.17123   0.17699   0.20156
 Alpha virt. eigenvalues --    0.23545   0.24582   0.24941   0.25156   0.25397

 Mulliken charges:
               1
     1  C    1.009875
     2  H    0.259029
     3  F   -0.925740
     4  F   -0.915752
     5  C   -1.016053
     6  C   -3.124627
     7  N    1.243671
     8  N    0.454572
     9  H    0.379740
    10  H    0.370506
    11  C   -0.122008
    12  H    0.301689
    13  H    0.231968
    14  H    0.110519
    15  C    0.088138
    16  H    0.235444
    17  H    0.344935
    18  H    0.074095
 Sum of Mulliken charges =  -1.00000

 Dipole moment (field-independent basis, Debye):
    X=             -4.3115    Y=             -1.0530    Z=              1.0372  Tot=              4.5578

 Test job not archived.
 1\1\GINC-SE462\SP\RHF\Aug-CC-pVDZ\C5H9F2N2(1-)\OHZDE\09-Apr-2025\0\\#t
  hf aug-cc-pvdz iop(5/13=1,5/36=2,99/5=2) pseudo=read geom=check guess
 =(read,tcheck) scf=(maxcycle=1)\\title\\-1,1\C,0,0.66912896,-0.0367866
 8,0.06006037\H,0,1.68163486,1.77534964,0.18467398\F,0,-1.11292727,-0.2
 0068405,0.37032822\F,0,2.39975912,-0.08741738,-0.4684867\C,0,0.6358297
 5,1.49175709,0.0540992\C,0,0.39948977,-0.80417136,-1.15844978\N,0,0.19
 021331,-1.44542259,-2.1211752\N,0,0.98553158,-0.71011335,1.29020344\H,
 0,1.82037951,-1.24983991,1.11063228\H,0,0.19482737,-1.3019449,1.503097

 Normal termination of Gaussian 16 at Wed Apr  9 02:52:45 2025.
