 Gaussian 16, Revision C.01,

 ----------------------------------------------------------------------
 #t hf aug-cc-pvdz symm=none int=(grid=ultrafine) guess=(read,tcheck) s
 table=(opt,rrhf)
 ----------------------------------------------------------------------
 -----
 title
 -----
 Symbolic Z-matrix:
 Charge = -1 Multiplicity = 1

 SCF Done:  E(RHF) =  -1386.98972482     A.U. after   17 cycles
 Normal termination of Gaussian 16 at Wed Apr  9 02:46:33 2025.
 Gaussian 16:  ES64L-G16RevC.01  3-Jul-2019

 ----------------------------------------------------------------------
 #t hf aug-cc-pvdz iop(5/13=1,5/36=2,99/5=2) pseudo=read geom=check gue
 ss=(read,tcheck) scf=(maxcycle=1)
 ----------------------------------------------------------------------
 -----
 title
 -----
 Structure from the checkpoint file:  "E2SN2_233_mol1.chk"
 Charge = -1 Multiplicity = 1

                         Standard orientation:
 ---------------------------------------------------------------------
 Center     Atomic      Atomic             Coordinates (Angstroms)
 Number     Number       Type             X           Y           Z
 ---------------------------------------------------------------------
      1          6           0        0.324866   -0.069159    0.327267
      2          1           0        0.116791    1.399578   -1.172939
      3         17           0       -1.693910   -1.419654    0.678258
      4         17           0        2.360492    0.824518   -0.177417
      5          6           0       -0.375119    1.182368   -0.220417
      6          7           0        0.604975   -1.138344   -0.679460
      7          8           0        0.206486   -0.925724   -1.819842
      8          8           0        1.241279   -2.114513   -0.312054
      9          6           0        0.605783   -0.288091    1.789703
     10          1           0        1.449323    0.308640    2.128616
     11          1           0       -0.277936   -0.024298    2.362226
     12          1           0        0.825110   -1.342625    1.939756
     13          7           0       -0.220419    2.257132    0.766686
     14          1           0       -0.767855    3.052006    0.457679
     15          1           0        0.758591    2.522777    0.757396
     16          6           0       -1.802970    1.090228   -0.553115
     17          7           0       -2.889328    1.314219   -0.943297
 ---------------------------------------------------------------------

 SCF Done:  E(RHF) =  -1387.60502643     A.U. after    2 cycles

 The electronic state is 1-A.
 Alpha  occ. eigenvalues -- -105.38598-105.33593 -20.47145 -20.47085 -15.68376
 Alpha  occ. eigenvalues --  -15.40875 -15.39736 -11.31360 -11.22684 -11.17646
 Alpha  occ. eigenvalues --  -11.13336 -10.43432 -10.38431  -7.60266  -7.60079
 Alpha  occ. eigenvalues --   -7.60066  -7.55246  -7.55097  -7.55092  -1.55053
 Alpha  occ. eigenvalues --   -1.38931  -1.13748  -1.09247  -1.03768  -0.88565
 Alpha  occ. eigenvalues --   -0.88409  -0.85306  -0.79829  -0.72206  -0.68568
 Alpha  occ. eigenvalues --   -0.63234  -0.62437  -0.61046  -0.56473  -0.55822
 Alpha  occ. eigenvalues --   -0.51528  -0.49052  -0.48261  -0.45265  -0.39381
 Alpha  occ. eigenvalues --   -0.38889  -0.37752  -0.36893  -0.35804  -0.33377
 Alpha  occ. eigenvalues --   -0.32342  -0.30690  -0.30085  -0.25951  -0.25531
 Alpha  occ. eigenvalues --   -0.25330
 Alpha virt. eigenvalues --    0.11947   0.13256   0.13485   0.14415   0.15035
 Alpha virt. eigenvalues --    0.15791   0.16236   0.18801   0.19713   0.21378
 Alpha virt. eigenvalues --    0.21987   0.22619   0.23457   0.24458   0.24717

 Mulliken charges:
               1
     1  C   -1.251784
     2  H    0.428259
     3  Cl  -0.625125
     4  Cl  -0.524428
     5  C   -0.267446
     6  N    3.375536
     7  O   -1.481125
     8  O   -1.572045
     9  C    0.098963
    10  H    0.209898
    11  H    0.376966
    12  H    0.248537
    13  N    0.587560
    14  H    0.136698
    15  H    0.231246
    16  C   -2.116004
    17  N    1.144295
 Sum of Mulliken charges =  -1.00000

 Dipole moment (field-independent basis, Debye):
    X=              3.8281    Y=              3.8969    Z=              1.8462  Tot=              5.7662

 Test job not archived.
 1\1\GINC-SE164\SP\RHF\Aug-CC-pVDZ\C4H6Cl2N3O2(1-)\OHZDE\09-Apr-2025\0\
 \#t hf aug-cc-pvdz iop(5/13=1,5/36=2,99/5=2) pseudo=read geom=check gu
 ess=(read,tcheck) scf=(maxcycle=1)\\title\\-1,1\C,0,0.62544507,-0.0793
 2762,0.04294019\H,0,1.53686864,1.65444667,-0.74092037\Cl,0,-1.69173076
 ,-0.40175265,-0.69815863\Cl,0,2.86462708,-0.11411016,0.46954227\C,0,0.
 66546896,1.44720699,-0.11309259\N,0,0.90542866,-0.85777662,-1.20234846
 \O,0,1.08943099,-0.2005908,-2.22152575\O,0,0.9751007,-2.07412172,-1.11
 055692\C,0,0.21099552,-0.77157301,1.3136064\H,0,0.99725503,-0.73466354

 Normal termination of Gaussian 16 at Wed Apr  9 02:46:44 2025.
