 Gaussian 16, Revision C.01,

 ----------------------------------------------------------------------
 #t hf aug-cc-pvdz symm=none int=(grid=ultrafine) guess=(read,tcheck) s
 table=(opt,rrhf)
 ----------------------------------------------------------------------
 -----
 title
 -----
 Symbolic Z-matrix:
 Charge = -1 Multiplicity = 1

 SCF Done:  E(RHF) =  -1222.55519289     A.U. after   16 cycles
 Normal termination of Gaussian 16 at Wed Apr  9 02:34:44 2025.
 Gaussian 16:  ES64L-G16RevC.01  3-Jul-2019

 ----------------------------------------------------------------------
 #t hf aug-cc-pvdz iop(5/13=1,5/36=2,99/5=2) pseudo=read geom=check gue
 ss=(read,tcheck) scf=(maxcycle=1)
 ----------------------------------------------------------------------
 -----
 title
 -----
 Structure from the checkpoint file:  "E2SN2_110_mol1.chk"
 Charge = -1 Multiplicity = 1

                         Standard orientation:
 ---------------------------------------------------------------------
 Center     Atomic      Atomic             Coordinates (Angstroms)
 Number     Number       Type             X           Y           Z
 ---------------------------------------------------------------------
      1          6           0       -0.487888   -0.529387    0.322945
      2          6           0        0.187276    0.443396   -0.403645
      3         17           0       -2.805084   -0.107359   -0.180032
      4         17           0        3.008970   -0.598073    0.051756
      5          1           0        1.659270   -0.159790   -0.060640
      6          6           0       -0.489830   -1.936329   -0.199345
      7          1           0       -0.629720   -1.954642   -1.276306
      8          1           0        0.484606   -2.388244    0.034159
      9          1           0       -1.278023   -2.515225    0.279932
     10          6           0       -0.573231   -0.383736    1.813745
     11          1           0       -1.349821   -1.038430    2.207901
     12          1           0        0.391755   -0.667525    2.256209
     13          1           0       -0.806230    0.640500    2.104113
     14          7           0        0.183206    0.327891   -1.837364
     15          1           0        0.872307    0.947416   -2.244638
     16          1           0       -0.744050    0.596311   -2.163180
     17          6           0        0.286626    1.768999    0.144690
     18          7           0        0.444815    2.865584    0.547765
 ---------------------------------------------------------------------

 SCF Done:  E(RHF) =  -1223.02593252     A.U. after    2 cycles

 The electronic state is 1-A.
 Alpha  occ. eigenvalues -- -105.40589-105.32210 -15.38138 -15.38102 -11.20103
 Alpha  occ. eigenvalues --  -11.15777 -11.14565 -11.12567 -11.11901 -10.45406
 Alpha  occ. eigenvalues --  -10.36914  -7.62319  -7.62066  -7.62058  -7.53718
 Alpha  occ. eigenvalues --   -7.53612  -7.53603  -1.10527  -1.07289  -0.98742
 Alpha  occ. eigenvalues --   -0.89178  -0.85011  -0.83216  -0.78094  -0.68218
 Alpha  occ. eigenvalues --   -0.59368  -0.58591  -0.53787  -0.50444  -0.48258
 Alpha  occ. eigenvalues --   -0.46248  -0.45541  -0.44465  -0.42428  -0.40802
 Alpha  occ. eigenvalues --   -0.39260  -0.37189  -0.34300  -0.32250  -0.32076
 Alpha  occ. eigenvalues --   -0.28649  -0.24688  -0.24449  -0.19236
 Alpha virt. eigenvalues --    0.12548   0.13089   0.13442   0.14507   0.15708
 Alpha virt. eigenvalues --    0.16015   0.16775   0.17142   0.17737   0.19459
 Alpha virt. eigenvalues --    0.21374   0.22821   0.23090   0.23183   0.23679

 Mulliken charges:
               1
     1  C   -0.715427
     2  C   -0.929786
     3  Cl  -0.763637
     4  Cl  -0.454073
     5  H    0.890700
     6  C   -0.215450
     7  H    0.271376
     8  H    0.250236
     9  H    0.195083
    10  C   -0.085214
    11  H    0.163784
    12  H    0.276456
    13  H    0.301163
    14  N    0.602254
    15  H    0.128409
    16  H    0.239019
    17  C   -2.127022
    18  N    0.972127
 Sum of Mulliken charges =  -1.00000

 Dipole moment (field-independent basis, Debye):
    X=              2.2130    Y=             -3.7894    Z=             -0.0840  Tot=              4.3891

 Test job not archived.
 1\1\GINC-SE227\SP\RHF\Aug-CC-pVDZ\C5H9Cl2N2(1-)\OHZDE\09-Apr-2025\0\\#
 t hf aug-cc-pvdz iop(5/13=1,5/36=2,99/5=2) pseudo=read geom=check gues
 s=(read,tcheck) scf=(maxcycle=1)\\title\\-1,1\C,0,-0.36477077,0.000468
 03,-0.26619493\C,0,-0.18199001,-0.06327198,1.10952761\Cl,0,1.86564528,
 -0.2261767,-1.14617696\Cl,0,-3.11584736,-0.20775254,1.90048348\H,0,-1.
 77629793,-0.08327844,1.43515889\C,0,-0.91139759,-1.20735945,-0.9694938
 5\H,0,-0.46719604,-2.12033986,-0.58361528\H,0,-1.99553711,-1.24405076,
 -0.79180654\H,0,-0.72538539,-1.13642676,-2.04021409\C,0,-0.69506829,1.

 Normal termination of Gaussian 16 at Wed Apr  9 02:34:54 2025.
