 Gaussian 16, Revision C.01,

 ----------------------------------------------------------------------
 #t hf aug-cc-pvdz symm=none int=(grid=ultrafine) guess=(read,tcheck) s
 table=(opt,rrhf)
 ----------------------------------------------------------------------
 -----
 title
 -----
 Symbolic Z-matrix:
 Charge = -1 Multiplicity = 1

 SCF Done:  E(RHF) =  -860.148553184     A.U. after   16 cycles
 Normal termination of Gaussian 16 at Wed Apr  9 02:49:07 2025.
 Gaussian 16:  ES64L-G16RevC.01  3-Jul-2019

 ----------------------------------------------------------------------
 #t hf aug-cc-pvdz iop(5/13=1,5/36=2,99/5=2) pseudo=read geom=check gue
 ss=(read,tcheck) scf=(maxcycle=1)
 ----------------------------------------------------------------------
 -----
 title
 -----
 Structure from the checkpoint file:  "E2SN2_278_mol2.chk"
 Charge = -1 Multiplicity = 1

                         Standard orientation:
 ---------------------------------------------------------------------
 Center     Atomic      Atomic             Coordinates (Angstroms)
 Number     Number       Type             X           Y           Z
 ---------------------------------------------------------------------
      1          6           0        0.297148   -0.235623    0.140569
      2          6           0       -0.583772    0.602837   -0.777821
      3         17           0       -0.123169   -2.016177    0.020201
      4          1           0       -0.142523    1.668081   -0.546114
      5          1           0       -0.424645    0.327064   -1.823427
      6          6           0        1.687195   -0.130063   -0.315737
      7          7           0        2.806643   -0.139972   -0.670835
      8          6           0        0.179497    0.213826    1.587291
      9          1           0        0.435132    1.279509    1.554066
     10          1           0        0.860739   -0.351662    2.225824
     11          1           0       -0.846703    0.065942    1.930514
     12          6           0       -1.988220    0.498833   -0.442299
     13          7           0       -3.132392    0.446976   -0.174049
     14          9           0        0.771226    2.604243    0.119766
 ---------------------------------------------------------------------

 SCF Done:  E(RHF) =  -860.612465261     A.U. after    2 cycles

 The electronic state is 1-A.
 Alpha  occ. eigenvalues -- -105.45409 -26.11948 -15.40141 -15.39244 -11.24224
 Alpha  occ. eigenvalues --  -11.17442 -11.16974 -11.13803 -11.11880 -10.50256
 Alpha  occ. eigenvalues --   -7.67187  -7.66829  -7.66825  -1.18952  -1.11058
 Alpha  occ. eigenvalues --   -1.09865  -1.04213  -0.91109  -0.86687  -0.77483
 Alpha  occ. eigenvalues --   -0.58691  -0.57952  -0.53908  -0.50201  -0.49059
 Alpha  occ. eigenvalues --   -0.47080  -0.46050  -0.43026  -0.42359  -0.38540
 Alpha  occ. eigenvalues --   -0.37504  -0.36927  -0.36332  -0.34616  -0.34031
 Alpha  occ. eigenvalues --   -0.28390  -0.27997  -0.25033
 Alpha virt. eigenvalues --    0.13073   0.13729   0.15166   0.16755   0.17394
 Alpha virt. eigenvalues --    0.17636   0.18379   0.19479   0.22753   0.22807
 Alpha virt. eigenvalues --    0.23190   0.24367   0.25316   0.25618   0.25766

 Mulliken charges:
               1
     1  C   -1.538191
     2  C    0.760092
     3  Cl  -0.061022
     4  H    0.669541
     5  H    0.128915
     6  C   -1.314296
     7  N    1.009278
     8  C    0.345961
     9  H    0.376761
    10  H    0.163744
    11  H    0.225027
    12  C   -1.673247
    13  N    0.907210
    14  F   -0.999773
 Sum of Mulliken charges =  -1.00000

 Dipole moment (field-independent basis, Debye):
    X=             -1.1420    Y=             -5.9253    Z=              0.6691  Tot=              6.0713

 Test job not archived.
 1\1\GINC-SE332\SP\RHF\Aug-CC-pVDZ\C5H5Cl1F1N2(1-)\OHZDE\09-Apr-2025\0\
 \#t hf aug-cc-pvdz iop(5/13=1,5/36=2,99/5=2) pseudo=read geom=check gu
 ess=(read,tcheck) scf=(maxcycle=1)\\title\\-1,1\C,0,-0.00466,-0.000981
 ,0.015609\C,0,-0.617062,-0.189245,-1.36714\Cl,0,1.827004,0.007429,-0.0
 648\H,0,-1.756539,-0.154236,-1.078176\H,0,-0.349469,0.64184,-2.024678\
 C,0,-0.380209,1.324214,0.52\N,0,-0.590158,2.396647,0.950307\C,0,-0.462
 378,-1.083159,0.97906\H,0,-1.556414,-1.017372,0.94923\H,0,-0.067809,-0
 .902941,1.980773\H,0,-0.116883,-2.055859,0.622343\C,0,-0.236551,-1.447

 Normal termination of Gaussian 16 at Wed Apr  9 02:49:13 2025.
