 Gaussian 16, Revision C.01,

 ----------------------------------------------------------------------
 #t hf aug-cc-pvdz symm=none int=(grid=ultrafine) guess=(read,tcheck) s
 table=(opt,rrhf)
 ----------------------------------------------------------------------
 -----
 title
 -----
 Symbolic Z-matrix:
 Charge = -1 Multiplicity = 1

 SCF Done:  E(RHF) =  -575.175199110     A.U. after   16 cycles
 Normal termination of Gaussian 16 at Wed Apr  9 02:41:19 2025.
 Gaussian 16:  ES64L-G16RevC.01  3-Jul-2019

 ----------------------------------------------------------------------
 #t hf aug-cc-pvdz iop(5/13=1,5/36=2,99/5=2) pseudo=read geom=check gue
 ss=(read,tcheck) scf=(maxcycle=1)
 ----------------------------------------------------------------------
 -----
 title
 -----
 Structure from the checkpoint file:  "E2SN2_197_mol2.chk"
 Charge = -1 Multiplicity = 1

                         Standard orientation:
 ---------------------------------------------------------------------
 Center     Atomic      Atomic             Coordinates (Angstroms)
 Number     Number       Type             X           Y           Z
 ---------------------------------------------------------------------
      1          6           0        0.502580    0.843730    0.229245
      2          6           0       -0.248192   -0.291904   -0.474201
      3          9           0       -0.400268    1.937533    0.247205
      4          1           0       -0.346643   -0.031412   -1.530882
      5          1           0        0.693745    0.569443    1.268820
      6          7           0        1.713807    1.200898   -0.385585
      7          1           0        2.436858    0.455562   -0.113934
      8          1           0        1.602774    1.195770   -1.394142
      9          7           0       -1.663499   -0.347724    0.015124
     10          8           0       -1.842211   -0.541534    1.216641
     11          8           0       -2.569128   -0.199778   -0.808093
     12          6           0        0.426349   -1.635328   -0.263620
     13          1           0        0.210040   -1.984569    0.748571
     14          1           0        1.520650   -1.509937   -0.317046
     15          1           0        0.055177   -2.371422   -0.982784
     16          9           0        3.142660   -0.811327    0.274762
 ---------------------------------------------------------------------

 SCF Done:  E(RHF) =  -575.737616498     A.U. after    2 cycles

 The electronic state is 1-A.
 Alpha  occ. eigenvalues --  -26.30985 -26.10930 -20.47288 -20.47043 -15.66191
 Alpha  occ. eigenvalues --  -15.32844 -11.21741 -11.17944 -11.10251  -1.54020
 Alpha  occ. eigenvalues --   -1.43115  -1.37875  -1.17782  -1.06187  -1.00406
 Alpha  occ. eigenvalues --   -0.84468  -0.78165  -0.71384  -0.65229  -0.63054
 Alpha  occ. eigenvalues --   -0.61284  -0.58524  -0.54900  -0.52293  -0.49628
 Alpha  occ. eigenvalues --   -0.46099  -0.44522  -0.41505  -0.40897  -0.38738
 Alpha  occ. eigenvalues --   -0.37198  -0.36373  -0.33075  -0.30802  -0.27399
 Alpha  occ. eigenvalues --   -0.26773  -0.25888
 Alpha virt. eigenvalues --    0.12983   0.13855   0.15379   0.15968   0.16427
 Alpha virt. eigenvalues --    0.17813   0.18746   0.20030   0.21132   0.22748
 Alpha virt. eigenvalues --    0.24256   0.24845   0.25597   0.25744   0.26182

 Mulliken charges:
               1
     1  C    0.695341
     2  C   -1.509572
     3  F   -0.920711
     4  H    0.021876
     5  H    0.108970
     6  N    0.269277
     7  H    0.304952
     8  H    0.245039
     9  N    3.132229
    10  O   -1.514924
    11  O   -1.469933
    12  C    0.087940
    13  H    0.243603
    14  H    0.199702
    15  H    0.155505
    16  F   -1.049294
 Sum of Mulliken charges =  -1.00000

 Dipole moment (field-independent basis, Debye):
    X=             -5.9800    Y=             -0.3466    Z=             -2.2185  Tot=              6.3876

 Test job not archived.
 1\1\GINC-SE452\SP\RHF\Aug-CC-pVDZ\C3H7F2N2O2(1-)\OHZDE\09-Apr-2025\0\\
 #t hf aug-cc-pvdz iop(5/13=1,5/36=2,99/5=2) pseudo=read geom=check gue
 ss=(read,tcheck) scf=(maxcycle=1)\\title\\-1,1\C,0,-0.017608,0.036349,
 -0.089381\C,0,-0.128421,-0.003843,-1.617211\F,0,1.372625,-0.006847,0.1
 88556\H,0,0.163006,-1.001939,-1.953365\H,0,-0.38841,0.994372,0.281014\
 N,0,-0.694299,-1.006193,0.564722\H,0,-1.738094,-0.756005,0.560218\H,0,
 -0.564397,-1.874097,0.055397\N,0,0.903051,0.895837,-2.227365\O,0,0.860
 67,2.089781,-1.934373\O,0,1.733567,0.395205,-2.988515\C,0,-1.512371,0.

 Normal termination of Gaussian 16 at Wed Apr  9 02:41:26 2025.
