 Gaussian 16, Revision C.01,

 ----------------------------------------------------------------------
 #t hf aug-cc-pvdz symm=none int=(grid=ultrafine) guess=(read,tcheck) s
 table=(opt,rrhf)
 ----------------------------------------------------------------------
 -----
 title
 -----
 Symbolic Z-matrix:
 Charge = -1 Multiplicity = 1

 SCF Done:  E(RHF) =  -366.730354636     A.U. after   16 cycles
 Normal termination of Gaussian 16 at Wed Apr  9 02:38:05 2025.
 Gaussian 16:  ES64L-G16RevC.01  3-Jul-2019

 ----------------------------------------------------------------------
 #t hf aug-cc-pvdz iop(5/13=1,5/36=2,99/5=2) pseudo=read geom=check gue
 ss=(read,tcheck) scf=(maxcycle=1)
 ----------------------------------------------------------------------
 -----
 title
 -----
 Structure from the checkpoint file:  "E2SN2_162_mol1.chk"
 Charge = -1 Multiplicity = 1

                         Standard orientation:
 ---------------------------------------------------------------------
 Center     Atomic      Atomic             Coordinates (Angstroms)
 Number     Number       Type             X           Y           Z
 ---------------------------------------------------------------------
      1          6           0       -0.611316   -0.030548   -0.026005
      2          6           0        0.821046   -0.018513    0.311423
      3          9           0       -0.886285   -0.155066   -1.454544
      4          1           0        0.410173    0.476459    2.780563
      5          1           0        0.633503    0.231921    1.904656
      6          7           0       -1.278866   -1.165137    0.570485
      7          1           0       -2.273713   -0.967118    0.527852
      8          1           0       -1.005787   -1.175078    1.549120
      9          7           0       -1.331492    1.202391    0.308022
     10          1           0       -0.959012    1.939119   -0.281793
     11          1           0       -1.054520    1.426859    1.263184
     12          6           0        1.550452    1.225561   -0.133835
     13          1           0        1.225423    2.119975    0.418709
     14          1           0        2.623634    1.116258    0.070895
     15          1           0        1.457202    1.451653   -1.214675
     16          6           0        1.557942   -1.280479   -0.075847
     17          1           0        0.999849   -2.173039    0.218943
     18          1           0        1.741661   -1.365265   -1.165732
     19          1           0        2.541911   -1.323060    0.415209
 ---------------------------------------------------------------------

 SCF Done:  E(RHF) =  -367.123217612     A.U. after    2 cycles

 The electronic state is 1-A.
 Alpha  occ. eigenvalues --  -26.25220 -15.33471 -15.33208 -11.19354 -11.06467
 Alpha  occ. eigenvalues --  -11.05713 -11.00382  -1.36828  -1.06917  -0.98665
 Alpha  occ. eigenvalues --   -0.88180  -0.76392  -0.71861  -0.61531  -0.55592
 Alpha  occ. eigenvalues --   -0.53221  -0.52338  -0.47874  -0.44814  -0.43423
 Alpha  occ. eigenvalues --   -0.40122  -0.39781  -0.38263  -0.37114  -0.35137
 Alpha  occ. eigenvalues --   -0.33878  -0.32021  -0.29832  -0.28426  -0.07734
 Alpha virt. eigenvalues --    0.13597   0.13748   0.14154   0.14996   0.15592
 Alpha virt. eigenvalues --    0.16244   0.16575   0.16945   0.18318   0.18909
 Alpha virt. eigenvalues --    0.19247   0.22171   0.22870   0.24776   0.25642

 Mulliken charges:
               1
     1  C   -1.830275
     2  C   -0.683139
     3  F   -1.079584
     4  H   -0.754438
     5  H    0.674317
     6  N    0.689466
     7  H    0.182009
     8  H    0.277966
     9  N    0.634696
    10  H    0.328201
    11  H    0.224196
    12  C   -0.263569
    13  H    0.105254
    14  H    0.107937
    15  H    0.155707
    16  C   -0.270632
    17  H    0.150325
    18  H    0.204786
    19  H    0.146776
 Sum of Mulliken charges =  -1.00000

 Dipole moment (field-independent basis, Debye):
    X=             -0.5107    Y=              0.4580    Z=             -2.6582  Tot=              2.7453

 Test job not archived.
 1\1\GINC-SE460\SP\RHF\Aug-CC-pVDZ\C4H12F1N2(1-)\OHZDE\09-Apr-2025\0\\#
 t hf aug-cc-pvdz iop(5/13=1,5/36=2,99/5=2) pseudo=read geom=check gues
 s=(read,tcheck) scf=(maxcycle=1)\\title\\-1,1\C,0,-0.06508609,-0.09634
 345,-0.29832846\C,0,0.07373934,-0.08505215,1.16668505\F,0,1.20219847,-
 0.0074104,-1.01799341\H,0,-2.4432268,0.00535877,1.57555038\H,0,-1.5147
 1335,-0.09197795,1.50291557\N,0,-0.65510759,-1.33317805,-0.75749218\H,
 0,-0.96345679,-1.167051,-1.71042016\H,0,-1.481191,-1.48506422,-0.18572
 652\N,0,-0.80218663,1.0429191,-0.85432286\H,0,-0.24923629,1.87527277,-

 Normal termination of Gaussian 16 at Wed Apr  9 02:38:12 2025.
