 Gaussian 16, Revision C.01,

 ----------------------------------------------------------------------
 #t hf aug-cc-pvdz symm=none int=(grid=ultrafine) guess=(read,tcheck) s
 table=(opt,rrhf)
 ----------------------------------------------------------------------
 -----
 title
 -----
 Symbolic Z-matrix:
 Charge = -1 Multiplicity = 1

 SCF Done:  E(RHF) =  -1136.40982250     A.U. after   16 cycles
 Normal termination of Gaussian 16 at Wed Apr  9 02:41:23 2025.
 Gaussian 16:  ES64L-G16RevC.01  3-Jul-2019

 ----------------------------------------------------------------------
 #t hf aug-cc-pvdz iop(5/13=1,5/36=2,99/5=2) pseudo=read geom=check gue
 ss=(read,tcheck) scf=(maxcycle=1)
 ----------------------------------------------------------------------
 -----
 title
 -----
 Structure from the checkpoint file:  "E2SN2_175_mol2.chk"
 Charge = -1 Multiplicity = 1

                         Standard orientation:
 ---------------------------------------------------------------------
 Center     Atomic      Atomic             Coordinates (Angstroms)
 Number     Number       Type             X           Y           Z
 ---------------------------------------------------------------------
      1          6           0        0.412882    0.670852    0.815743
      2          6           0       -0.249721   -0.155608   -0.272540
      3          9           0       -0.551638    1.076063    1.731798
      4          1           0        0.414755   -0.295384   -1.122705
      5          1           0        1.159334    0.051182    1.307816
      6          6           0        1.036779    1.878462    0.262176
      7          7           0        1.479144    2.903712   -0.098747
      8          7           0       -1.515223    0.526944   -0.707701
      9          8           0       -2.575086    0.170106   -0.205924
     10          8           0       -1.360412    1.433688   -1.520654
     11          7           0       -0.637214   -1.516586    0.211256
     12          8           0       -1.080887   -2.258109   -0.658302
     13          8           0       -0.514679   -1.776817    1.401708
     14         17           0        2.656034   -1.044237   -0.504226
 ---------------------------------------------------------------------

 SCF Done:  E(RHF) =  -1137.12278761     A.U. after    2 cycles

 The electronic state is 1-A.
 Alpha  occ. eigenvalues -- -105.30645 -26.39500 -20.52427 -20.52329 -20.51461
 Alpha  occ. eigenvalues --  -20.50979 -15.72219 -15.71243 -15.43995 -11.30326
 Alpha  occ. eigenvalues --  -11.29338 -11.20578 -10.35290  -7.52062  -7.52026
 Alpha  occ. eigenvalues --   -7.52012  -1.59911  -1.58182  -1.52027  -1.43731
 Alpha  occ. eigenvalues --   -1.42597  -1.14100  -1.11859  -0.94866  -0.93261
 Alpha  occ. eigenvalues --   -0.78368  -0.76490  -0.74190  -0.71614  -0.70814
 Alpha  occ. eigenvalues --   -0.67524  -0.66108  -0.65794  -0.63414  -0.62633
 Alpha  occ. eigenvalues --   -0.57472  -0.53765  -0.50331  -0.49283  -0.44451
 Alpha  occ. eigenvalues --   -0.42331  -0.41679  -0.40944  -0.40534  -0.39849
 Alpha  occ. eigenvalues --   -0.37757  -0.35860  -0.23825  -0.23263  -0.23117
 Alpha virt. eigenvalues --    0.12830   0.13830   0.15138   0.15871   0.17331
 Alpha virt. eigenvalues --    0.19578   0.20578   0.21868   0.22142   0.22690
 Alpha virt. eigenvalues --    0.22772   0.23193   0.23807   0.24494   0.25250

 Mulliken charges:
               1
     1  C    1.881930
     2  C   -1.128704
     3  F   -0.879260
     4  H    0.070798
     5  H    0.348827
     6  C   -1.662439
     7  N    0.912839
     8  N    3.006287
     9  O   -1.481825
    10  O   -1.445131
    11  N    3.392962
    12  O   -1.568515
    13  O   -1.502400
    14  Cl  -0.945369
 Sum of Mulliken charges =  -1.00000

 Dipole moment (field-independent basis, Debye):
    X=             -6.9478    Y=              1.1366    Z=              2.3125  Tot=              7.4102

 Test job not archived.
 1\1\GINC-SE106\SP\RHF\Aug-CC-pVDZ\C3H2Cl1F1N3O4(1-)\OHZDE\09-Apr-2025\
 0\\#t hf aug-cc-pvdz iop(5/13=1,5/36=2,99/5=2) pseudo=read geom=check
 guess=(read,tcheck) scf=(maxcycle=1)\\title\\-1,1\C,0,-0.033837,-0.017
 756,0.012515\C,0,-0.500153,-0.244787,-1.414875\F,0,1.332131,0.242587,0
 .010165\H,0,-1.498844,-0.675825,-1.44072\H,0,-0.576352,0.833851,0.4171
 88\C,0,-0.259236,-1.207278,0.842117\N,0,-0.328762,-2.149284,1.53845\N,
 0,0.475152,-1.148709,-2.113762\O,0,1.356324,-0.641459,-2.798348\O,0,0.
 318289,-2.346442,-1.894962\N,0,-0.549577,1.027039,-2.200041\O,0,-1.019

 Normal termination of Gaussian 16 at Wed Apr  9 02:41:32 2025.
