 Gaussian 16, Revision C.01,

 ----------------------------------------------------------------------
 #t hf aug-cc-pvdz symm=none int=(grid=ultrafine) guess=(read,tcheck) s
 table=(opt,rrhf)
 ----------------------------------------------------------------------
 -----
 title
 -----
 Symbolic Z-matrix:
 Charge = -1 Multiplicity = 1

 SCF Done:  E(RHF) =  -611.830647891     A.U. after   17 cycles
 Normal termination of Gaussian 16 at Wed Apr  9 03:01:41 2025.
 Gaussian 16:  ES64L-G16RevC.01  3-Jul-2019

 ----------------------------------------------------------------------
 #t hf aug-cc-pvdz iop(5/13=1,5/36=2,99/5=2) pseudo=read geom=check gue
 ss=(read,tcheck) scf=(maxcycle=1)
 ----------------------------------------------------------------------
 -----
 title
 -----
 Structure from the checkpoint file:  "E2SN2_59_mol2.chk"
 Charge = -1 Multiplicity = 1

                         Standard orientation:
 ---------------------------------------------------------------------
 Center     Atomic      Atomic             Coordinates (Angstroms)
 Number     Number       Type             X           Y           Z
 ---------------------------------------------------------------------
      1          6           0       -0.084837   -0.125612   -0.349184
      2          6           0       -0.898534   -1.232135    0.277040
      3          9           0       -0.093352   -0.323877   -1.745698
      4          1           0       -0.586067   -1.278055    1.331894
      5          1           0       -0.624880   -2.157472   -0.238616
      6          6           0       -0.557769    1.233921   -0.087626
      7          7           0       -1.094002    2.257330   -0.331305
      8          7           0        1.390133   -0.236671   -0.020431
      9          8           0        1.800384   -1.321144    0.380513
     10          8           0        2.090589    0.720719   -0.321901
     11          6           0       -2.390248   -0.946659    0.162023
     12          1           0       -2.645640   -0.090924    0.788287
     13          1           0       -2.971039   -1.810340    0.498950
     14          1           0       -2.678422   -0.720090   -0.867918
     15          9           0        0.081538    0.672608    1.797603
 ---------------------------------------------------------------------

 SCF Done:  E(RHF) =  -612.414331509     A.U. after    2 cycles

 The electronic state is 1-A.
 Alpha  occ. eigenvalues --  -26.35707 -26.12139 -20.45924 -20.45905 -15.65933
 Alpha  occ. eigenvalues --  -15.36100 -11.29213 -11.16017 -11.12264 -11.11776
 Alpha  occ. eigenvalues --   -1.53603  -1.47639  -1.37264  -1.19418  -1.06933
 Alpha  occ. eigenvalues --   -1.00630  -0.91770  -0.79168  -0.74865  -0.68326
 Alpha  occ. eigenvalues --   -0.64193  -0.61633  -0.58486  -0.55202  -0.51740
 Alpha  occ. eigenvalues --   -0.50348  -0.47480  -0.45565  -0.43288  -0.40208
 Alpha  occ. eigenvalues --   -0.39109  -0.37898  -0.36531  -0.35305  -0.34031
 Alpha  occ. eigenvalues --   -0.31524  -0.28607  -0.28080  -0.25512
 Alpha virt. eigenvalues --    0.11746   0.13592   0.13891   0.16722   0.16911
 Alpha virt. eigenvalues --    0.19096   0.20089   0.20772   0.22081   0.23609
 Alpha virt. eigenvalues --    0.24314   0.24728   0.25380   0.25754   0.25984

 Mulliken charges:
               1
     1  C    1.090277
     2  C   -0.240303
     3  F   -1.086912
     4  H    0.404255
     5  H    0.179001
     6  C   -1.933445
     7  N    1.021327
     8  N    3.411646
     9  O   -1.592299
    10  O   -1.578945
    11  C   -0.323492
    12  H    0.259591
    13  H    0.062879
    14  H    0.233402
    15  F   -0.906982
 Sum of Mulliken charges =  -1.00000

 Dipole moment (field-independent basis, Debye):
    X=             -1.7419    Y=             -5.9993    Z=             -3.1838  Tot=              7.0116

 Test job not archived.
 1\1\GINC-SE208\SP\RHF\Aug-CC-pVDZ\C4H5F2N2O2(1-)\OHZDE\09-Apr-2025\0\\
 #t hf aug-cc-pvdz iop(5/13=1,5/36=2,99/5=2) pseudo=read geom=check gue
 ss=(read,tcheck) scf=(maxcycle=1)\\title\\-1,1\C,0,-0.231772,0.045026,
 -1.353197\C,0,-0.151646,-0.103939,0.146817\F,0,-1.591421,-0.033082,-1.
 720466\H,0,0.884946,-0.403434,0.366455\H,0,-0.843053,-0.90563,0.423011
 \C,0,0.306908,1.292597,-1.895229\N,0,0.262956,2.381188,-2.350563\N,0,0
 .364416,-1.141047,-2.083771\O,0,0.509238,-2.181483,-1.450002\O,0,0.517
 986,-1.017626,-3.291787\C,0,-0.501431,1.203292,0.845911\H,0,0.276492,1

 Normal termination of Gaussian 16 at Wed Apr  9 03:01:48 2025.
