 Gaussian 16, Revision C.01,

 ----------------------------------------------------------------------
 #t hf aug-cc-pvdz symm=none int=(grid=ultrafine) guess=(read,tcheck) s
 table=(opt,rrhf)
 ----------------------------------------------------------------------
 -----
 title
 -----
 Symbolic Z-matrix:
 Charge = -1 Multiplicity = 1

 SCF Done:  E(RHF) =  -516.110246135     A.U. after   15 cycles
 Normal termination of Gaussian 16 at Wed Apr  9 02:57:43 2025.
 Gaussian 16:  ES64L-G16RevC.01  3-Jul-2019

 ----------------------------------------------------------------------
 #t hf aug-cc-pvdz iop(5/13=1,5/36=2,99/5=2) pseudo=read geom=check gue
 ss=(read,tcheck) scf=(maxcycle=1)
 ----------------------------------------------------------------------
 -----
 title
 -----
 Structure from the checkpoint file:  "E2SN2_382_mol2.chk"
 Charge = -1 Multiplicity = 1

                         Standard orientation:
 ---------------------------------------------------------------------
 Center     Atomic      Atomic             Coordinates (Angstroms)
 Number     Number       Type             X           Y           Z
 ---------------------------------------------------------------------
      1          6           0        0.270079    0.452661    0.451997
      2          6           0       -0.222112   -0.979651    0.274816
      3          9           0       -0.452984    1.041101    1.521881
      4          1           0       -0.022084   -1.484972    1.223741
      5          1           0        0.462920   -1.450933   -0.461577
      6          7           0        1.643989    0.421777    0.726583
      7          1           0        2.069111   -0.388329    0.154784
      8          1           0        2.078572    1.308979    0.508862
      9          6           0       -0.104336    1.300872   -0.717184
     10          7           0       -0.333480    1.995936   -1.636696
     11          6           0       -1.637995   -1.068853   -0.042962
     12          7           0       -2.778920   -1.169895   -0.302915
     13          9           0        2.214821   -1.591062   -0.714616
 ---------------------------------------------------------------------

 SCF Done:  E(RHF) =  -516.603422339     A.U. after    2 cycles

 The electronic state is 1-A.
 Alpha  occ. eigenvalues --  -26.34028 -26.13045 -15.41422 -15.40232 -15.35749
 Alpha  occ. eigenvalues --  -11.28327 -11.17833 -11.17669 -11.15348  -1.46336
 Alpha  occ. eigenvalues --   -1.20203  -1.12048  -1.10745  -1.08389  -0.94163
 Alpha  occ. eigenvalues --   -0.80632  -0.67514  -0.62350  -0.58914  -0.54920
 Alpha  occ. eigenvalues --   -0.52672  -0.51386  -0.49461  -0.48456  -0.46390
 Alpha  occ. eigenvalues --   -0.44908  -0.39728  -0.39197  -0.37501  -0.36957
 Alpha  occ. eigenvalues --   -0.33991  -0.29467  -0.28783  -0.28366
 Alpha virt. eigenvalues --    0.13743   0.14521   0.16413   0.18147   0.18216
 Alpha virt. eigenvalues --    0.18815   0.19414   0.22437   0.22686   0.24051
 Alpha virt. eigenvalues --    0.24728   0.25086   0.25636   0.26573   0.26754

 Mulliken charges:
               1
     1  C    0.450235
     2  C    0.655395
     3  F   -0.955675
     4  H    0.204124
     5  H    0.348319
     6  N    0.377042
     7  H    0.427100
     8  H    0.242174
     9  C   -1.864598
    10  N    0.900649
    11  C   -1.598025
    12  N    0.851264
    13  F   -1.038002
 Sum of Mulliken charges =  -1.00000

 Dipole moment (field-independent basis, Debye):
    X=             -0.7179    Y=              2.1360    Z=              3.7769  Tot=              4.3980

 Test job not archived.
 1\1\GINC-SE054\SP\RHF\Aug-CC-pVDZ\C4H4F2N3(1-)\OHZDE\09-Apr-2025\0\\#t
  hf aug-cc-pvdz iop(5/13=1,5/36=2,99/5=2) pseudo=read geom=check guess
 =(read,tcheck) scf=(maxcycle=1)\\title\\-1,1\C,0,0.031284,-0.038022,0.
 041126\C,0,-0.552963,-0.400339,-1.319957\F,0,1.42559,0.173514,-0.11665
 7\H,0,-0.345004,0.452441,-1.972136\H,0,-1.655762,-0.410033,-1.188085\N
 ,0,-0.606494,1.119729,0.506777\H,0,-1.63621,1.07096,0.188561\H,0,-0.52
 3246,1.201854,1.511623\C,0,-0.031788,-1.19512,0.981222\N,0,-0.104257,-
 2.061587,1.771858\C,0,0.0186,-1.60912,-1.890772\N,0,0.461319,-2.583732

 Normal termination of Gaussian 16 at Wed Apr  9 02:57:49 2025.
