 Gaussian 16, Revision C.01,

 ----------------------------------------------------------------------
 #t hf aug-cc-pvdz symm=none int=(grid=ultrafine) guess=(read,tcheck) s
 table=(opt,rrhf)
 ----------------------------------------------------------------------
 -----
 title
 -----
 Symbolic Z-matrix:
 Charge = -1 Multiplicity = 1

 SCF Done:  E(RHF) =  -1026.92765669     A.U. after   17 cycles
 Normal termination of Gaussian 16 at Wed Apr  9 02:58:19 2025.
 Gaussian 16:  ES64L-G16RevC.01  3-Jul-2019

 ----------------------------------------------------------------------
 #t hf aug-cc-pvdz iop(5/13=1,5/36=2,99/5=2) pseudo=read geom=check gue
 ss=(read,tcheck) scf=(maxcycle=1)
 ----------------------------------------------------------------------
 -----
 title
 -----
 Structure from the checkpoint file:  "E2SN2_379_mol1.chk"
 Charge = -1 Multiplicity = 1

                         Standard orientation:
 ---------------------------------------------------------------------
 Center     Atomic      Atomic             Coordinates (Angstroms)
 Number     Number       Type             X           Y           Z
 ---------------------------------------------------------------------
      1          6           0        0.244794   -0.050551    0.443585
      2          1           0       -0.878060   -1.771332    0.661741
      3         17           0       -0.381732    1.789197   -0.585845
      4          9           0        1.076427   -1.639746    1.083022
      5          6           0       -0.937810   -0.912609   -0.009039
      6          7           0        0.187520    0.464247    1.752303
      7          1           0        0.476732    1.431282    1.759734
      8          1           0        0.824210   -0.109046    2.291315
      9          7           0        1.578510    0.027328   -0.295823
     10          8           0        1.683305   -0.491851   -1.395869
     11          8           0        2.464059    0.634008    0.289003
     12          6           0       -0.953505   -1.429825   -1.445341
     13          1           0       -0.906366   -0.605986   -2.156010
     14          1           0       -0.101809   -2.086416   -1.603167
     15          1           0       -1.880220   -1.988939   -1.603306
     16          6           0       -2.211364   -0.252096    0.302267
     17          7           0       -3.303815    0.109144    0.538942
 ---------------------------------------------------------------------

 SCF Done:  E(RHF) =  -1027.55805877     A.U. after    2 cycles

 The electronic state is 1-A.
 Alpha  occ. eigenvalues -- -105.36901 -26.18857 -20.45747 -20.45713 -15.66784
 Alpha  occ. eigenvalues --  -15.38936 -15.38850 -11.32436 -11.17841 -11.16612
 Alpha  occ. eigenvalues --  -11.12420 -10.41780  -7.58623  -7.58420  -7.58408
 Alpha  occ. eigenvalues --   -1.53856  -1.37668  -1.27559  -1.12213  -1.09394
 Alpha  occ. eigenvalues --   -0.98797  -0.93099  -0.83854  -0.80644  -0.71964
 Alpha  occ. eigenvalues --   -0.65732  -0.62859  -0.61784  -0.59653  -0.58909
 Alpha  occ. eigenvalues --   -0.55262  -0.49198  -0.46730  -0.44564  -0.43108
 Alpha  occ. eigenvalues --   -0.40520  -0.38309  -0.37745  -0.36307  -0.35801
 Alpha  occ. eigenvalues --   -0.35295  -0.33757  -0.33599  -0.31945  -0.28884
 Alpha  occ. eigenvalues --   -0.28622  -0.28310
 Alpha virt. eigenvalues --    0.12606   0.13687   0.14450   0.15058   0.15614
 Alpha virt. eigenvalues --    0.16817   0.18066   0.19044   0.21051   0.22464
 Alpha virt. eigenvalues --    0.23401   0.24061   0.24290   0.24830   0.25737

 Mulliken charges:
               1
     1  C   -2.545948
     2  H    0.433778
     3  Cl  -0.453232
     4  F   -0.922103
     5  C    0.116808
     6  N    0.898672
     7  H    0.358730
     8  H    0.426089
     9  N    3.746255
    10  O   -1.711840
    11  O   -1.597909
    12  C    0.257491
    13  H    0.317768
    14  H    0.245663
    15  H    0.113160
    16  C   -1.706336
    17  N    1.022954
 Sum of Mulliken charges =  -1.00000

 Dipole moment (field-independent basis, Debye):
    X=              1.0534    Y=             -1.5669    Z=             -0.5287  Tot=              1.9607

 Test job not archived.
 1\1\GINC-SE080\SP\RHF\Aug-CC-pVDZ\C4H6Cl1F1N3O2(1-)\OHZDE\09-Apr-2025\
 0\\#t hf aug-cc-pvdz iop(5/13=1,5/36=2,99/5=2) pseudo=read geom=check
 guess=(read,tcheck) scf=(maxcycle=1)\\title\\-1,1\C,0,0.53654554,-0.08
 254798,-0.02705679\H,0,1.56785179,1.6949,-0.24285154\Cl,0,-1.64188364,
 -0.34783214,-0.17197789\F,0,2.37851838,-0.00184278,0.44902701\C,0,0.52
 469105,1.449224,-0.0369836\N,0,0.86201396,-0.72009952,-1.23893045\H,0,
 0.23743405,-1.49571573,-1.40377813\H,0,1.81526893,-1.04015928,-1.12300
 182\N,0,0.5235584,-0.92945036,1.24344603\O,0,0.33464863,-0.38759577,2.

 Normal termination of Gaussian 16 at Wed Apr  9 02:58:29 2025.
