 Gaussian 16, Revision C.01,

 ----------------------------------------------------------------------
 #t hf aug-cc-pvdz symm=none int=(grid=ultrafine) guess=(read,tcheck) s
 table=(opt,rrhf)
 ----------------------------------------------------------------------
 -----
 title
 -----
 Symbolic Z-matrix:
 Charge = -1 Multiplicity = 1

 SCF Done:  E(RHF) =  -823.423765053     A.U. after   16 cycles
 Normal termination of Gaussian 16 at Wed Apr  9 02:47:08 2025.
 Gaussian 16:  ES64L-G16RevC.01  3-Jul-2019

 ----------------------------------------------------------------------
 #t hf aug-cc-pvdz iop(5/13=1,5/36=2,99/5=2) pseudo=read geom=check gue
 ss=(read,tcheck) scf=(maxcycle=1)
 ----------------------------------------------------------------------
 -----
 title
 -----
 Structure from the checkpoint file:  "E2SN2_259_mol1.chk"
 Charge = -1 Multiplicity = 1

                         Standard orientation:
 ---------------------------------------------------------------------
 Center     Atomic      Atomic             Coordinates (Angstroms)
 Number     Number       Type             X           Y           Z
 ---------------------------------------------------------------------
      1          6           0        0.163021    0.118075   -0.383272
      2          1           0       -0.197176   -1.164424    1.283864
      3          9           0       -1.334143    1.101845   -1.193127
      4         17           0        2.006839   -1.026520   -0.004314
      5          6           0       -0.790970   -0.653926    0.524545
      6          1           0        0.261640   -0.133952   -1.420623
      7          6           0        0.675117    1.397048    0.043942
      8          7           0        1.120483    2.427971    0.391652
      9          6           0       -1.514661   -1.690012   -0.333007
     10          1           0       -2.071950   -1.157347   -1.103923
     11          1           0       -0.803536   -2.379243   -0.798898
     12          1           0       -2.205860   -2.276435    0.282414
     13          7           0       -1.665954    0.287891    1.218420
     14          1           0       -2.382104   -0.237333    1.707219
     15          1           0       -2.086736    0.844820    0.477683
 ---------------------------------------------------------------------

 SCF Done:  E(RHF) =  -823.865037640     A.U. after    2 cycles

 The electronic state is 1-A.
 Alpha  occ. eigenvalues -- -105.35517 -26.15756 -15.37386 -15.34697 -11.23583
 Alpha  occ. eigenvalues --  -11.15518 -11.15072 -11.10520 -10.40301  -7.57140
 Alpha  occ. eigenvalues --   -7.56949  -7.56942  -1.23446  -1.07943  -1.06040
 Alpha  occ. eigenvalues --   -0.93058  -0.85691  -0.79679  -0.71013  -0.60454
 Alpha  occ. eigenvalues --   -0.58319  -0.50705  -0.47443  -0.47082  -0.45694
 Alpha  occ. eigenvalues --   -0.42133  -0.41479  -0.38451  -0.34682  -0.33555
 Alpha  occ. eigenvalues --   -0.32559  -0.30922  -0.30038  -0.27102  -0.26849
 Alpha  occ. eigenvalues --   -0.25440
 Alpha virt. eigenvalues --    0.11861   0.13311   0.14340   0.15016   0.16377
 Alpha virt. eigenvalues --    0.16836   0.17762   0.20081   0.20575   0.22526
 Alpha virt. eigenvalues --    0.23941   0.24323   0.24670   0.26115   0.26626

 Mulliken charges:
               1
     1  C    1.328120
     2  H    0.090797
     3  F   -0.899528
     4  Cl  -0.562597
     5  C   -1.648515
     6  H   -0.036448
     7  C   -2.077258
     8  N    1.016257
     9  C    0.045547
    10  H    0.300954
    11  H    0.208426
    12  H    0.086214
    13  N    0.711645
    14  H    0.144383
    15  H    0.292001
 Sum of Mulliken charges =  -1.00000

 Dipole moment (field-independent basis, Debye):
    X=             -3.7023    Y=             -5.2197    Z=              0.4536  Tot=              6.4155

 Test job not archived.
 1\1\GINC-SE069\SP\RHF\Aug-CC-pVDZ\C4H7Cl1F1N2(1-)\OHZDE\09-Apr-2025\0\
 \#t hf aug-cc-pvdz iop(5/13=1,5/36=2,99/5=2) pseudo=read geom=check gu
 ess=(read,tcheck) scf=(maxcycle=1)\\title\\-1,1\C,0,0.64664829,0.03131
 333,-0.04916321\H,0,1.68005224,1.88948377,-0.2312839\F,0,-1.31245439,-
 0.01013172,-0.20843615\Cl,0,2.74833801,-0.3094913,0.51663273\C,0,0.651
 26342,1.55736191,-0.08618728\H,0,0.35882452,-0.49755095,0.83785435\C,0
 ,0.68852783,-0.71178882,-1.28470833\N,0,0.74917863,-1.32929337,-2.2832
 3988\C,0,0.14359394,2.05806752,1.26442873\H,0,-0.87163342,1.68475716,1

 Normal termination of Gaussian 16 at Wed Apr  9 02:47:14 2025.
