 Gaussian 16, Revision C.01,

 ----------------------------------------------------------------------
 #t hf aug-cc-pvdz symm=none int=(grid=ultrafine) guess=(read,tcheck) s
 table=(opt,rrhf)
 ----------------------------------------------------------------------
 -----
 title
 -----
 Symbolic Z-matrix:
 Charge = -1 Multiplicity = 1

 SCF Done:  E(RHF) =  -419.473444974     A.U. after   16 cycles
 Normal termination of Gaussian 16 at Wed Apr  9 02:38:05 2025.
 Gaussian 16:  ES64L-G16RevC.01  3-Jul-2019

 ----------------------------------------------------------------------
 #t hf aug-cc-pvdz iop(5/13=1,5/36=2,99/5=2) pseudo=read geom=check gue
 ss=(read,tcheck) scf=(maxcycle=1)
 ----------------------------------------------------------------------
 -----
 title
 -----
 Structure from the checkpoint file:  "E2SN2_147_mol2.chk"
 Charge = -1 Multiplicity = 1

                         Standard orientation:
 ---------------------------------------------------------------------
 Center     Atomic      Atomic             Coordinates (Angstroms)
 Number     Number       Type             X           Y           Z
 ---------------------------------------------------------------------
      1          6           0       -0.313906    0.397375    0.198767
      2          6           0        0.860480   -0.341866   -0.459916
      3          9           0       -0.332198    0.084248    1.588580
      4          1           0        0.674034   -0.251410   -1.534455
      5          7           0       -0.242169    1.775214   -0.010115
      6          1           0        0.419203    2.074256   -0.779952
      7          1           0       -1.142068    2.225415   -0.087905
      8          6           0       -1.594488   -0.192640   -0.289023
      9          7           0       -2.610037   -0.625759   -0.692552
     10          6           0        0.883254   -1.809803   -0.059157
     11          1           0        1.094561   -1.889456    1.007810
     12          1           0        1.672406   -2.329814   -0.612349
     13          1           0       -0.063981   -2.310520   -0.276048
     14          7           0        2.106773    0.305655   -0.071561
     15          1           0        2.862139   -0.291664   -0.398424
     16          1           0        2.165147    1.165974   -0.640288
     17          1           0        1.514325    2.344821   -1.900045
 ---------------------------------------------------------------------

 SCF Done:  E(RHF) =  -419.899858173     A.U. after    2 cycles

 The electronic state is 1-A.
 Alpha  occ. eigenvalues --  -26.31994 -15.41029 -15.35146 -15.34199 -11.26116
 Alpha  occ. eigenvalues --  -11.17641 -11.14712 -11.11686  -1.44164  -1.11809
 Alpha  occ. eigenvalues --   -1.08826  -1.03960  -0.90317  -0.82367  -0.72022
 Alpha  occ. eigenvalues --   -0.64185  -0.59075  -0.58424  -0.53781  -0.51836
 Alpha  occ. eigenvalues --   -0.51491  -0.50477  -0.45897  -0.45318  -0.42407
 Alpha  occ. eigenvalues --   -0.40274  -0.40226  -0.39161  -0.37691  -0.31939
 Alpha  occ. eigenvalues --   -0.30018  -0.11455
 Alpha virt. eigenvalues --    0.12164   0.13629   0.13801   0.14945   0.16187
 Alpha virt. eigenvalues --    0.16504   0.18797   0.19557   0.20304   0.20457
 Alpha virt. eigenvalues --    0.22247   0.23420   0.23850   0.24334   0.24588

 Mulliken charges:
               1
     1  C    0.708732
     2  C   -1.780843
     3  F   -0.998408
     4  H    0.127970
     5  N    0.627982
     6  H    0.066862
     7  H    0.267403
     8  C   -1.623564
     9  N    0.900896
    10  C   -0.080850
    11  H    0.249273
    12  H    0.103990
    13  H    0.198190
    14  N    0.562057
    15  H    0.221262
    16  H    0.222980
    17  H   -0.773932
 Sum of Mulliken charges =  -1.00000

 Dipole moment (field-independent basis, Debye):
    X=             -1.6995    Y=             -7.0398    Z=              4.0610  Tot=              8.3030

 Test job not archived.
 1\1\GINC-SE015\SP\RHF\Aug-CC-pVDZ\C4H9F1N3(1-)\OHZDE\09-Apr-2025\0\\#t
  hf aug-cc-pvdz iop(5/13=1,5/36=2,99/5=2) pseudo=read geom=check guess
 =(read,tcheck) scf=(maxcycle=1)\\title\\-1,1\C,0,-0.299343,-0.08321,-1
 .448744\C,0,-0.013193,-0.235182,0.05277\F,0,-1.707579,0.018188,-1.6399
 34\H,0,1.03611,-0.541843,0.102779\N,0,0.367323,1.014059,-1.995348\H,0,
 1.148933,1.402425,-1.39723\H,0,0.65334,0.883824,-2.954402\C,0,0.035865
 ,-1.362585,-2.139237\N,0,0.329337,-2.353423,-2.699489\C,0,-0.896688,-1
 .30525,0.677555\H,0,-1.936767,-0.978744,0.645244\H,0,-0.6089,-1.455164

 Normal termination of Gaussian 16 at Wed Apr  9 02:38:12 2025.
