 Gaussian 16, Revision C.01,

 ----------------------------------------------------------------------
 #t hf aug-cc-pvdz symm=none int=(grid=ultrafine) guess=(read,tcheck) s
 table=(opt,rrhf)
 ----------------------------------------------------------------------
 -----
 title
 -----
 Symbolic Z-matrix:
 Charge = -1 Multiplicity = 1

 SCF Done:  E(RHF) =  -852.874476962     A.U. after   18 cycles
 Normal termination of Gaussian 16 at Wed Apr  9 03:01:49 2025.
 Gaussian 16:  ES64L-G16RevC.01  3-Jul-2019

 ----------------------------------------------------------------------
 #t hf aug-cc-pvdz iop(5/13=1,5/36=2,99/5=2) pseudo=read geom=check gue
 ss=(read,tcheck) scf=(maxcycle=1)
 ----------------------------------------------------------------------
 -----
 title
 -----
 Structure from the checkpoint file:  "E2SN2_68_mol1.chk"
 Charge = -1 Multiplicity = 1

                         Standard orientation:
 ---------------------------------------------------------------------
 Center     Atomic      Atomic             Coordinates (Angstroms)
 Number     Number       Type             X           Y           Z
 ---------------------------------------------------------------------
      1          6           0       -0.332010    0.117205   -0.055367
      2          6           0        0.906773   -0.591216   -0.433293
      3         17           0       -1.099062   -0.447056    1.489290
      4          1           0       -0.341951   -0.519248   -2.285489
      5          1           0        0.523846   -0.545799   -1.798518
      6          6           0       -0.143032    1.556363    0.045204
      7          7           0        0.003952    2.722318    0.102725
      8          6           0       -1.469679   -0.113057   -1.182070
      9          7           0       -2.652593   -0.025207   -1.301527
     10          6           0        0.873831   -2.091184   -0.223395
     11          1           0       -0.043775   -2.488086   -0.673692
     12          1           0        1.728773   -2.555427   -0.722416
     13          1           0        0.885183   -2.373805    0.833279
     14          6           0        2.151775    0.046088   -0.179593
     15          7           0        3.220932    0.522478   -0.015486
 ---------------------------------------------------------------------

 SCF Done:  E(RHF) =  -853.332293766     A.U. after    2 cycles

 The electronic state is 1-A.
 Alpha  occ. eigenvalues -- -105.46037 -15.41288 -15.38114 -15.34984 -11.25859
 Alpha  occ. eigenvalues --  -11.18401 -11.16233 -11.16085 -11.14077 -11.13345
 Alpha  occ. eigenvalues --  -10.50842  -7.67787  -7.67402  -7.67386  -1.12063
 Alpha  occ. eigenvalues --   -1.08867  -1.07174  -1.02935  -0.93926  -0.86293
 Alpha  occ. eigenvalues --   -0.76683  -0.68157  -0.59799  -0.55132  -0.50528
 Alpha  occ. eigenvalues --   -0.49976  -0.48132  -0.45609  -0.45451  -0.44425
 Alpha  occ. eigenvalues --   -0.43014  -0.39369  -0.38895  -0.38309  -0.36191
 Alpha  occ. eigenvalues --   -0.35170  -0.34779  -0.32840  -0.31576  -0.17503
 Alpha virt. eigenvalues --    0.12213   0.13442   0.14351   0.15296   0.17251
 Alpha virt. eigenvalues --    0.17587   0.18215   0.19440   0.20843   0.21161
 Alpha virt. eigenvalues --    0.22275   0.22996   0.23422   0.23670   0.24391

 Mulliken charges:
               1
     1  C   -0.915698
     2  C    0.891653
     3  Cl   0.035492
     4  H    0.075364
     5  H    0.496650
     6  C   -1.680488
     7  N    1.039743
     8  C   -0.944999
     9  N    0.916703
    10  C    0.187766
    11  H    0.213835
    12  H    0.121718
    13  H    0.189385
    14  C   -2.694620
    15  N    1.067497
 Sum of Mulliken charges =  -1.00000

 Dipole moment (field-independent basis, Debye):
    X=              0.7170    Y=             -5.1983    Z=              2.5302  Tot=              5.8257

 Test job not archived.
 1\1\GINC-SE069\SP\RHF\Aug-CC-pVDZ\C6H5Cl1N3(1-)\OHZDE\09-Apr-2025\0\\#
 t hf aug-cc-pvdz iop(5/13=1,5/36=2,99/5=2) pseudo=read geom=check gues
 s=(read,tcheck) scf=(maxcycle=1)\\title\\-1,1\C,0,-0.22709804,0.009192
 34,-0.27057174\C,0,-0.01699194,-0.07721059,1.18807895\Cl,0,1.16899212,
 0.68970616,-1.20895297\H,0,-2.03754494,0.83900568,0.91783289\H,0,-1.36
 739088,0.29588129,1.41114742\C,0,-0.57257151,-1.27478313,-0.86138409\N
 ,0,-0.87574003,-2.30816763,-1.33526994\C,0,-1.45984179,1.00463165,-0.5
 9647284\N,0,-1.89782787,1.62907752,-1.51272111\C,0,0.67007045,1.123098

 Normal termination of Gaussian 16 at Wed Apr  9 03:01:57 2025.
