 Gaussian 16, Revision C.01,

 ----------------------------------------------------------------------
 #t hf aug-cc-pvdz symm=none int=(grid=ultrafine) guess=(read,tcheck) s
 table=(opt,rrhf)
 ----------------------------------------------------------------------
 -----
 title
 -----
 Symbolic Z-matrix:
 Charge = -1 Multiplicity = 1

 SCF Done:  E(RHF) =  -777.166559324     A.U. after   17 cycles
 Normal termination of Gaussian 16 at Wed Apr  9 02:47:53 2025.
 Gaussian 16:  ES64L-G16RevC.01  3-Jul-2019

 ----------------------------------------------------------------------
 #t hf aug-cc-pvdz iop(5/13=1,5/36=2,99/5=2) pseudo=read geom=check gue
 ss=(read,tcheck) scf=(maxcycle=1)
 ----------------------------------------------------------------------
 -----
 title
 -----
 Structure from the checkpoint file:  "E2SN2_260_mol1.chk"
 Charge = -1 Multiplicity = 1

                         Standard orientation:
 ---------------------------------------------------------------------
 Center     Atomic      Atomic             Coordinates (Angstroms)
 Number     Number       Type             X           Y           Z
 ---------------------------------------------------------------------
      1          6           0        0.605509   -0.411323   -0.466676
      2          1           0       -0.554767   -1.553636    0.903640
      3         17           0        0.592486    1.546965   -0.700314
      4          1           0        0.806305   -2.535585   -0.507504
      5          6           0       -0.763125   -0.829902    0.109031
      6          1           0        0.740276   -0.711229   -1.492907
      7          6           0        1.738809   -0.693325    0.389303
      8          7           0        2.650952   -0.672882    1.137276
      9          7           0       -1.547393   -1.399058   -0.988110
     10          1           0       -2.441275   -1.709993   -0.618178
     11          1           0       -0.995971   -2.228495   -1.229493
     12          6           0       -1.535928    0.258509    0.730563
     13          7           0       -2.231904    1.000053    1.318898
 ---------------------------------------------------------------------

 SCF Done:  E(RHF) =  -777.557876706     A.U. after    2 cycles

 The electronic state is 1-A.
 Alpha  occ. eigenvalues -- -105.41669 -15.40315 -15.38671 -15.37908 -11.23523
 Alpha  occ. eigenvalues --  -11.20768 -11.17564 -11.16705 -10.46431  -7.63325
 Alpha  occ. eigenvalues --   -7.63025  -7.63012  -1.12285  -1.09261  -1.08035
 Alpha  occ. eigenvalues --   -0.97039  -0.86452  -0.80977  -0.64756  -0.60771
 Alpha  occ. eigenvalues --   -0.54523  -0.53126  -0.52587  -0.48265  -0.46864
 Alpha  occ. eigenvalues --   -0.43008  -0.39074  -0.38581  -0.35631  -0.35006
 Alpha  occ. eigenvalues --   -0.33718  -0.31842  -0.31556  -0.13514
 Alpha virt. eigenvalues --    0.12869   0.14888   0.14965   0.16451   0.18002
 Alpha virt. eigenvalues --    0.18286   0.19229   0.19932   0.23070   0.23330
 Alpha virt. eigenvalues --    0.23728   0.24232   0.24981   0.25669   0.25930

 Mulliken charges:
               1
     1  C    0.015529
     2  H    0.167634
     3  Cl  -0.203280
     4  H   -0.515836
     5  C    0.073087
     6  H    0.134332
     7  C   -1.194666
     8  N    0.834097
     9  N    0.419030
    10  H    0.134493
    11  H    0.268886
    12  C   -2.122577
    13  N    0.989271
 Sum of Mulliken charges =  -1.00000

 Dipole moment (field-independent basis, Debye):
    X=             -3.7038    Y=              1.2050    Z=             -1.8331  Tot=              4.3047

 Test job not archived.
 1\1\GINC-SE016\SP\RHF\Aug-CC-pVDZ\C4H5Cl1N3(1-)\OHZDE\09-Apr-2025\0\\#
 t hf aug-cc-pvdz iop(5/13=1,5/36=2,99/5=2) pseudo=read geom=check gues
 s=(read,tcheck) scf=(maxcycle=1)\\title\\-1,1\C,0,0.23658281,-0.048491
 25,-0.10931924\H,0,1.48829379,1.58304729,-0.65721047\Cl,0,-1.63161118,
 -0.35828393,-0.66025426\H,0,2.20381322,0.02906225,0.71436906\C,0,0.508
 089,1.46828912,-0.1832523\H,0,0.18684218,-0.41867305,0.90149613\C,0,1.
 04365272,-0.85624908,-0.9996894\N,0,1.4880633,-1.522809,-1.86576253\N,
 0,0.47232738,1.98964504,1.18409723\H,0,0.68178805,2.98357018,1.1559026

 Normal termination of Gaussian 16 at Wed Apr  9 02:47:58 2025.
