 Gaussian 16, Revision C.01,

 ----------------------------------------------------------------------
 #t hf aug-cc-pvdz symm=none int=(grid=ultrafine) guess=(read,tcheck) s
 table=(opt,rrhf)
 ----------------------------------------------------------------------
 -----
 title
 -----
 Symbolic Z-matrix:
 Charge = -1 Multiplicity = 1

 SCF Done:  E(RHF) =  -825.785247632     A.U. after   14 cycles
 Normal termination of Gaussian 16 at Wed Apr  9 02:34:15 2025.
 Gaussian 16:  ES64L-G16RevC.01  3-Jul-2019

 ----------------------------------------------------------------------
 #t hf aug-cc-pvdz iop(5/13=1,5/36=2,99/5=2) pseudo=read geom=check gue
 ss=(read,tcheck) scf=(maxcycle=1)
 ----------------------------------------------------------------------
 -----
 title
 -----
 Structure from the checkpoint file:  "E2SN2_111_mol2.chk"
 Charge = -1 Multiplicity = 1

                         Standard orientation:
 ---------------------------------------------------------------------
 Center     Atomic      Atomic             Coordinates (Angstroms)
 Number     Number       Type             X           Y           Z
 ---------------------------------------------------------------------
      1          6           0       -0.869705    0.328046    0.035651
      2          6           0        0.623183    0.006573   -0.138009
      3         17           0       -1.831989   -1.150909   -0.408932
      4          1           0        0.759114   -0.387023   -1.150069
      5          6           0       -1.229314    0.664207    1.473004
      6          1           0       -2.294340    0.895699    1.559301
      7          1           0       -0.659046    1.540093    1.798248
      8          1           0       -1.004146   -0.178342    2.127843
      9          6           0       -1.304073    1.428223   -0.918162
     10          1           0       -2.384494    1.589418   -0.855089
     11          1           0       -0.764527    2.343327   -0.676289
     12          1           0       -1.048046    1.152787   -1.943633
     13          7           0        1.090626   -1.044344    0.758234
     14          1           0        2.075576   -1.128027    0.431323
     15          1           0        1.163318   -0.629749    1.685830
     16          7           0        1.408603    1.247626   -0.097165
     17          1           0        1.466213    1.521601    0.883186
     18          1           0        2.354980    0.852519   -0.312467
     19          9           0        3.407118   -0.443568   -0.437637
 ---------------------------------------------------------------------

 SCF Done:  E(RHF) =  -826.246932142     A.U. after    2 cycles

 The electronic state is 1-A.
 Alpha  occ. eigenvalues -- -105.41698 -26.08923 -15.31253 -15.31030 -11.17505
 Alpha  occ. eigenvalues --  -11.13399 -11.12172 -11.11070 -10.46587  -7.63514
 Alpha  occ. eigenvalues --   -7.63186  -7.63175  -1.15566  -1.07381  -0.99222
 Alpha  occ. eigenvalues --   -0.95646  -0.86751  -0.83461  -0.74923  -0.62368
 Alpha  occ. eigenvalues --   -0.56210  -0.51790  -0.50311  -0.49126  -0.47221
 Alpha  occ. eigenvalues --   -0.45951  -0.44451  -0.41652  -0.38966  -0.37071
 Alpha  occ. eigenvalues --   -0.35593  -0.34119  -0.31204  -0.30733  -0.26834
 Alpha  occ. eigenvalues --   -0.25325  -0.24650  -0.24315
 Alpha virt. eigenvalues --    0.11624   0.12530   0.13394   0.14168   0.15292
 Alpha virt. eigenvalues --    0.15572   0.16664   0.17706   0.17787   0.19186
 Alpha virt. eigenvalues --    0.20812   0.20926   0.23090   0.23285   0.24613

 Mulliken charges:
               1
     1  C   -1.196608
     2  C   -2.179699
     3  Cl  -0.198954
     4  H   -0.089865
     5  C   -0.034552
     6  H    0.141071
     7  H    0.225691
     8  H    0.235978
     9  C   -0.059688
    10  H    0.171041
    11  H    0.346701
    12  H    0.228278
    13  N    0.739286
    14  H    0.236953
    15  H    0.288141
    16  N    0.666787
    17  H    0.254012
    18  H    0.228236
    19  F   -1.002809
 Sum of Mulliken charges =  -1.00000

 Dipole moment (field-independent basis, Debye):
    X=             -9.2424    Y=              3.3468    Z=              2.7559  Tot=             10.2087

 Test job not archived.
 1\1\GINC-SE423\SP\RHF\Aug-CC-pVDZ\C4H11Cl1F1N2(1-)\OHZDE\09-Apr-2025\0
 \\#t hf aug-cc-pvdz iop(5/13=1,5/36=2,99/5=2) pseudo=read geom=check g
 uess=(read,tcheck) scf=(maxcycle=1)\\title\\-1,1\C,0,-0.452022,-0.0116
 06,-1.598607\C,0,0.222204,-0.045361,-0.217847\Cl,0,0.007181,-1.524086,
 -2.499989\H,0,1.290384,-0.22157,-0.377852\C,0,-1.968482,-0.004905,-1.5
 0581\H,0,-2.415039,0.028059,-2.503215\H,0,-2.297867,0.879698,-0.951601
 \H,0,-2.321884,-0.903003,-0.997941\C,0,0.05969,1.155777,-2.425765\H,0,
 -0.354131,1.12224,-3.438138\H,0,-0.210098,2.088403,-1.931344\H,0,1.149

 Normal termination of Gaussian 16 at Wed Apr  9 02:34:25 2025.
