 Gaussian 16, Revision C.01,

 ----------------------------------------------------------------------
 #t hf aug-cc-pvdz symm=none int=(grid=ultrafine) guess=(read,tcheck) s
 table=(opt,rrhf)
 ----------------------------------------------------------------------
 -----
 title
 -----
 Symbolic Z-matrix:
 Charge = -1 Multiplicity = 1

 SCF Done:  E(RHF) =  -685.448636747     A.U. after   15 cycles
 Normal termination of Gaussian 16 at Wed Apr  9 02:34:21 2025.
 Gaussian 16:  ES64L-G16RevC.01  3-Jul-2019

 ----------------------------------------------------------------------
 #t hf aug-cc-pvdz iop(5/13=1,5/36=2,99/5=2) pseudo=read geom=check gue
 ss=(read,tcheck) scf=(maxcycle=1)
 ----------------------------------------------------------------------
 -----
 title
 -----
 Structure from the checkpoint file:  "E2SN2_123_mol1.chk"
 Charge = -1 Multiplicity = 1

                         Standard orientation:
 ---------------------------------------------------------------------
 Center     Atomic      Atomic             Coordinates (Angstroms)
 Number     Number       Type             X           Y           Z
 ---------------------------------------------------------------------
      1          6           0        0.534019    0.646210    0.265483
      2          6           0       -0.744305    0.261517    0.954655
      3         17           0        1.659208   -0.783056   -0.012946
      4          1           0       -1.235885    2.721099    1.167532
      5          1           0       -1.152544    1.449500    1.147850
      6          1           0        1.090252    1.300284    0.940433
      7          7           0        0.349057    1.354813   -0.972901
      8          1           0       -0.156994    2.199148   -0.686309
      9          1           0       -0.282056    0.814499   -1.558127
     10          6           0       -1.659342   -0.470284    0.127794
     11          7           0       -2.443616   -1.008640   -0.570279
     12          1           0       -0.589626   -0.220449    1.923379
 ---------------------------------------------------------------------

 SCF Done:  E(RHF) =  -685.762829471     A.U. after    2 cycles

 The electronic state is 1-A.
 Alpha  occ. eigenvalues -- -105.42115 -15.37194 -15.36468 -11.20663 -11.15131
 Alpha  occ. eigenvalues --  -11.10836 -10.47006  -7.63921  -7.63590  -7.63584
 Alpha  occ. eigenvalues --   -1.09624  -1.07272  -0.93599  -0.87851  -0.72338
 Alpha  occ. eigenvalues --   -0.58895  -0.56107  -0.51425  -0.48869  -0.46662
 Alpha  occ. eigenvalues --   -0.44783  -0.39146  -0.35832  -0.34181  -0.33033
 Alpha  occ. eigenvalues --   -0.31739  -0.30895  -0.11601
 Alpha virt. eigenvalues --    0.13890   0.15067   0.15578   0.18047   0.18194
 Alpha virt. eigenvalues --    0.18728   0.20065   0.20859   0.22829   0.24885
 Alpha virt. eigenvalues --    0.25444   0.25866   0.26582   0.27310   0.28218

 Mulliken charges:
               1
     1  C   -1.335400
     2  C    0.393642
     3  Cl  -0.125165
     4  H   -0.632148
     5  H    0.344690
     6  H    0.188472
     7  N    0.385429
     8  H    0.251036
     9  H    0.233469
    10  C   -1.625169
    11  N    0.789199
    12  H    0.131946
 Sum of Mulliken charges =  -1.00000

 Dipole moment (field-independent basis, Debye):
    X=              4.8845    Y=             -4.4999    Z=             -0.3174  Tot=              6.6489

 Test job not archived.
 1\1\GINC-SE435\SP\RHF\Aug-CC-pVDZ\C3H6Cl1N2(1-)\OHZDE\09-Apr-2025\0\\#
 t hf aug-cc-pvdz iop(5/13=1,5/36=2,99/5=2) pseudo=read geom=check gues
 s=(read,tcheck) scf=(maxcycle=1)\\title\\-1,1\C,0,-0.0907544,-0.099033
 51,-0.37881789\C,0,0.01318913,-0.01423971,1.11753235\Cl,0,1.54674816,-
 0.05328705,-1.21719041\H,0,-2.49125949,0.23511093,1.16304312\H,0,-1.23
 274229,0.12117744,1.32872752\H,0,-0.59778891,0.80335386,-0.72721294\N,
 0,-0.83908826,-1.23086931,-0.85721899\H,0,-1.76999895,-1.08369528,-0.4
 5365057\H,0,-0.45826742,-2.06941446,-0.42762735\C,0,0.5152931,-1.20503

 Normal termination of Gaussian 16 at Wed Apr  9 02:34:26 2025.
