 Gaussian 16, Revision C.01,

 ----------------------------------------------------------------------
 #t hf aug-cc-pvdz symm=none int=(grid=ultrafine) guess=(read,tcheck) s
 table=(opt,rrhf)
 ----------------------------------------------------------------------
 -----
 title
 -----
 Symbolic Z-matrix:
 Charge = -1 Multiplicity = 1

 SCF Done:  E(RHF) =  -935.215530383     A.U. after   16 cycles
 Normal termination of Gaussian 16 at Wed Apr  9 02:40:29 2025.
 Gaussian 16:  ES64L-G16RevC.01  3-Jul-2019

 ----------------------------------------------------------------------
 #t hf aug-cc-pvdz iop(5/13=1,5/36=2,99/5=2) pseudo=read geom=check gue
 ss=(read,tcheck) scf=(maxcycle=1)
 ----------------------------------------------------------------------
 -----
 title
 -----
 Structure from the checkpoint file:  "E2SN2_172_mol2.chk"
 Charge = -1 Multiplicity = 1

                         Standard orientation:
 ---------------------------------------------------------------------
 Center     Atomic      Atomic             Coordinates (Angstroms)
 Number     Number       Type             X           Y           Z
 ---------------------------------------------------------------------
      1          6           0        0.162096    0.200630    0.176244
      2          6           0       -0.907577    0.090450   -0.901876
      3         17           0        0.936856    1.819356    0.271413
      4          1           0       -0.467365    0.312408   -1.879955
      5          1           0       -0.315058   -0.082583    1.136274
      6          7           0        1.298321   -0.754348   -0.077919
      7          8           0        1.889819   -1.189217    0.907097
      8          8           0        1.586439   -1.030645   -1.244139
      9          6           0       -2.043401    1.051174   -0.567014
     10          1           0       -2.395358    0.765523    0.427115
     11          1           0       -2.844019    0.904061   -1.295248
     12          1           0       -1.730183    2.097170   -0.578427
     13          7           0       -1.462154   -1.260011   -0.886526
     14          1           0       -1.720836   -1.399152    0.111155
     15          1           0       -0.737806   -1.923505   -1.136628
     16          9           0       -1.738430   -0.866343    1.756113
 ---------------------------------------------------------------------

 SCF Done:  E(RHF) =  -935.762661960     A.U. after    2 cycles

 The electronic state is 1-A.
 Alpha  occ. eigenvalues -- -105.45492 -26.10310 -20.47338 -20.46992 -15.66332
 Alpha  occ. eigenvalues --  -15.33059 -11.21145 -11.14062 -11.08703 -10.50333
 Alpha  occ. eigenvalues --   -7.67281  -7.66914  -7.66888  -1.54067  -1.37899
 Alpha  occ. eigenvalues --   -1.16953  -1.07373  -1.00969  -0.90489  -0.86516
 Alpha  occ. eigenvalues --   -0.75386  -0.68832  -0.64451  -0.62279  -0.61425
 Alpha  occ. eigenvalues --   -0.55734  -0.50688  -0.47524  -0.44380  -0.42108
 Alpha  occ. eigenvalues --   -0.40178  -0.38130  -0.37607  -0.36071  -0.35495
 Alpha  occ. eigenvalues --   -0.34645  -0.32546  -0.29663  -0.26515  -0.26309
 Alpha  occ. eigenvalues --   -0.25267
 Alpha virt. eigenvalues --    0.13155   0.13961   0.14370   0.15553   0.17278
 Alpha virt. eigenvalues --    0.17693   0.18037   0.19217   0.19609   0.22088
 Alpha virt. eigenvalues --    0.24406   0.24556   0.25132   0.26628   0.26994

 Mulliken charges:
               1
     1  C   -0.415807
     2  C   -1.709663
     3  Cl  -0.128674
     4  H    0.075189
     5  H    0.377145
     6  N    2.848540
     7  O   -1.434343
     8  O   -1.464289
     9  C    0.099332
    10  H    0.212332
    11  H    0.157711
    12  H    0.157114
    13  N    0.784458
    14  H    0.241396
    15  H    0.217919
    16  F   -1.018361
 Sum of Mulliken charges =  -1.00000

 Dipole moment (field-independent basis, Debye):
    X=              3.3911    Y=              3.7187    Z=             -4.1243  Tot=              6.5068

 Test job not archived.
 1\1\GINC-SE092\SP\RHF\Aug-CC-pVDZ\C3H7Cl1F1N2O2(1-)\OHZDE\09-Apr-2025\
 0\\#t hf aug-cc-pvdz iop(5/13=1,5/36=2,99/5=2) pseudo=read geom=check
 guess=(read,tcheck) scf=(maxcycle=1)\\title\\-1,1\C,0,-0.19293,-0.0636
 17,0.01913\C,0,-0.418344,-0.040158,-1.486633\Cl,0,1.284715,0.811535,0.
 548525\H,0,0.441404,-0.491162,-1.993703\H,0,-1.106588,0.352296,0.49007
 5\N,0,-0.007999,-1.469905,0.524838\O,0,-0.383845,-1.702313,1.67112\O,0
 ,0.522155,-2.298501,-0.217986\C,0,-0.636319,1.402965,-1.928335\H,0,-1.
 491311,1.767196,-1.353802\H,0,-0.883141,1.403248,-2.992306\H,0,0.23834

 Normal termination of Gaussian 16 at Wed Apr  9 02:40:37 2025.
