 Gaussian 16, Revision C.01,

 ----------------------------------------------------------------------
 #t hf aug-cc-pvdz symm=none int=(grid=ultrafine) guess=(read,tcheck) s
 table=(opt,rrhf)
 ----------------------------------------------------------------------
 -----
 title
 -----
 Symbolic Z-matrix:
 Charge = -1 Multiplicity = 1

 SCF Done:  E(RHF) =  -528.861495363     A.U. after   17 cycles
 Normal termination of Gaussian 16 at Wed Apr  9 02:43:03 2025.
 Gaussian 16:  ES64L-G16RevC.01  3-Jul-2019

 ----------------------------------------------------------------------
 #t hf aug-cc-pvdz iop(5/13=1,5/36=2,99/5=2) pseudo=read geom=check gue
 ss=(read,tcheck) scf=(maxcycle=1)
 ----------------------------------------------------------------------
 -----
 title
 -----
 Structure from the checkpoint file:  "E2SN2_217_mol1.chk"
 Charge = -1 Multiplicity = 1

                         Standard orientation:
 ---------------------------------------------------------------------
 Center     Atomic      Atomic             Coordinates (Angstroms)
 Number     Number       Type             X           Y           Z
 ---------------------------------------------------------------------
      1          6           0       -0.281863   -0.235427    0.442349
      2          1           0        0.607557   -0.081192   -1.487063
      3          9           0       -0.527974    1.010454    1.298447
      4          1           0       -0.110419   -1.877840   -0.554640
      5          6           0        0.892491    0.149002   -0.464387
      6          1           0       -0.152189   -0.977023    1.210697
      7          7           0       -1.582168   -0.359925   -0.223484
      8          8           0       -1.746035    0.241213   -1.292857
      9          8           0       -2.492736   -0.883186    0.429321
     10          6           0        2.046360   -0.701866   -0.102745
     11          7           0        3.069742   -1.203729    0.189617
     12          7           0        1.226389    1.581294   -0.394565
     13          1           0        2.157086    1.712803   -0.773138
     14          1           0        1.220234    1.871224    0.574124
 ---------------------------------------------------------------------

 SCF Done:  E(RHF) =  -529.372093944     A.U. after    2 cycles

 The electronic state is 1-A.
 Alpha  occ. eigenvalues --  -26.29111 -20.43434 -20.43275 -15.64314 -15.39170
 Alpha  occ. eigenvalues --  -15.38395 -11.26180 -11.19692 -11.16827  -1.50506
 Alpha  occ. eigenvalues --   -1.39205  -1.34171  -1.10994  -1.07642  -0.98564
 Alpha  occ. eigenvalues --   -0.86355  -0.71909  -0.65181  -0.64049  -0.60069
 Alpha  occ. eigenvalues --   -0.59039  -0.58259  -0.52272  -0.49675  -0.48523
 Alpha  occ. eigenvalues --   -0.46566  -0.44873  -0.42274  -0.38422  -0.36673
 Alpha  occ. eigenvalues --   -0.34403  -0.33890  -0.33132  -0.29972  -0.13387
 Alpha virt. eigenvalues --    0.12747   0.14910   0.15341   0.16009   0.17646
 Alpha virt. eigenvalues --    0.18677   0.20948   0.22464   0.22947   0.23820
 Alpha virt. eigenvalues --    0.24018   0.25491   0.25991   0.26977   0.27480

 Mulliken charges:
               1
     1  C    0.774242
     2  H    0.231897
     3  F   -0.968005
     4  H   -0.330542
     5  C   -0.658632
     6  H   -0.091819
     7  N    2.938685
     8  O   -1.487598
     9  O   -1.487857
    10  C   -1.721684
    11  N    0.951310
    12  N    0.336221
    13  H    0.188845
    14  H    0.324938
 Sum of Mulliken charges =  -1.00000

 Dipole moment (field-independent basis, Debye):
    X=              1.4133    Y=              4.7795    Z=              0.7898  Tot=              5.0463

 Test job not archived.
 1\1\GINC-SE114\SP\RHF\Aug-CC-pVDZ\C3H5F1N3O2(1-)\OHZDE\09-Apr-2025\0\\
 #t hf aug-cc-pvdz iop(5/13=1,5/36=2,99/5=2) pseudo=read geom=check gue
 ss=(read,tcheck) scf=(maxcycle=1)\\title\\-1,1\C,0,0.1802179,-0.013120
 28,-0.22636681\H,0,1.6053517,1.52195883,-0.6136815\F,0,-1.17571784,-0.
 02737219,-0.93835643\H,0,1.87561883,-0.17098412,0.68005313\C,0,0.59427
 552,1.46254521,-0.22094899\H,0,-0.07812379,-0.50612848,0.69414484\N,0,
 0.95464398,-0.88526185,-1.1147692\O,0,1.5438813,-0.36380748,-2.0701030
 1\O,0,0.79658225,-2.10350942,-0.97342021\C,0,0.61512628,1.92592907,1.1

 Normal termination of Gaussian 16 at Wed Apr  9 02:43:08 2025.
