 Gaussian 16, Revision C.01,

 ----------------------------------------------------------------------
 #t hf aug-cc-pvdz symm=none int=(grid=ultrafine) guess=(read,tcheck) s
 table=(opt,rrhf)
 ----------------------------------------------------------------------
 -----
 title
 -----
 Symbolic Z-matrix:
 Charge = -1 Multiplicity = 1

 SCF Done:  E(RHF) =  -627.814203855     A.U. after   16 cycles
 Normal termination of Gaussian 16 at Wed Apr  9 02:43:14 2025.
 Gaussian 16:  ES64L-G16RevC.01  3-Jul-2019

 ----------------------------------------------------------------------
 #t hf aug-cc-pvdz iop(5/13=1,5/36=2,99/5=2) pseudo=read geom=check gue
 ss=(read,tcheck) scf=(maxcycle=1)
 ----------------------------------------------------------------------
 -----
 title
 -----
 Structure from the checkpoint file:  "E2SN2_218_mol1.chk"
 Charge = -1 Multiplicity = 1

                         Standard orientation:
 ---------------------------------------------------------------------
 Center     Atomic      Atomic             Coordinates (Angstroms)
 Number     Number       Type             X           Y           Z
 ---------------------------------------------------------------------
      1          6           0       -0.222160   -0.185327    0.413089
      2          1           0        0.698372   -0.197253   -1.471129
      3          9           0       -0.497818    1.316839    1.235284
      4          9           0       -0.096294   -1.812524   -0.252927
      5          6           0        0.925115    0.249390   -0.504074
      6          1           0       -0.095771   -0.639401    1.376332
      7          7           0       -1.596808   -0.129355   -0.124738
      8          8           0       -1.749965    0.330058   -1.252604
      9          8           0       -2.494107   -0.541926    0.600019
     10          6           0        2.136543   -0.418130    0.012650
     11          7           0        3.159147   -0.831268    0.417722
     12          7           0        1.122276    1.691451   -0.651750
     13          1           0        2.109432    1.892413   -0.741563
     14          1           0        0.758249    2.108966    0.197207
 ---------------------------------------------------------------------

 SCF Done:  E(RHF) =  -628.413420514     A.U. after    2 cycles

 The electronic state is 1-A.
 Alpha  occ. eigenvalues --  -26.22193 -26.20013 -20.45393 -20.45265 -15.65791
 Alpha  occ. eigenvalues --  -15.39906 -15.37272 -11.28250 -11.19911 -11.17265
 Alpha  occ. eigenvalues --   -1.52976  -1.36711  -1.31321  -1.28712  -1.11221
 Alpha  occ. eigenvalues --   -1.07612  -0.97867  -0.87147  -0.72730  -0.66031
 Alpha  occ. eigenvalues --   -0.64215  -0.60677  -0.60373  -0.57391  -0.53948
 Alpha  occ. eigenvalues --   -0.49418  -0.48399  -0.43814  -0.40603  -0.39529
 Alpha  occ. eigenvalues --   -0.38756  -0.37218  -0.36390  -0.35706  -0.35098
 Alpha  occ. eigenvalues --   -0.34554  -0.33049  -0.30918  -0.30458
 Alpha virt. eigenvalues --    0.13277   0.15366   0.15486   0.16467   0.18297
 Alpha virt. eigenvalues --    0.19839   0.21833   0.22353   0.22507   0.23612
 Alpha virt. eigenvalues --    0.24943   0.26046   0.26831   0.27287   0.27522

 Mulliken charges:
               1
     1  C    0.566217
     2  H    0.338460
     3  F   -0.989912
     4  F   -0.901289
     5  C   -0.150334
     6  H   -0.138282
     7  N    3.546060
     8  O   -1.614079
     9  O   -1.608305
    10  C   -1.689853
    11  N    0.948155
    12  N    0.130064
    13  H    0.196089
    14  H    0.367007
 Sum of Mulliken charges =  -1.00000

 Dipole moment (field-independent basis, Debye):
    X=              0.8309    Y=              2.3017    Z=             -0.9024  Tot=              2.6082

 Test job not archived.
 1\1\GINC-SE273\SP\RHF\Aug-CC-pVDZ\C3H4F2N3O2(1-)\OHZDE\09-Apr-2025\0\\
 #t hf aug-cc-pvdz iop(5/13=1,5/36=2,99/5=2) pseudo=read geom=check gue
 ss=(read,tcheck) scf=(maxcycle=1)\\title\\-1,1\C,0,0.35556072,0.005535
 76,-0.10976571\H,0,1.71187023,1.55883366,-0.49119564\F,0,-1.20981945,0
 .01671568,-0.85672908\F,0,1.89625527,-0.24356628,0.70962313\C,0,0.6684
 1098,1.50319345,-0.18428383\H,0,-0.09696751,-0.48298081,0.73080813\N,0
 ,0.85504416,-0.86034835,-1.19733623\O,0,1.43182385,-0.32085567,-2.1369
 4837\O,0,0.65134286,-2.06330678,-1.08764806\C,0,0.59296785,2.00574294,

 Normal termination of Gaussian 16 at Wed Apr  9 02:43:28 2025.
