 Gaussian 16, Revision C.01,

 ----------------------------------------------------------------------
 #t hf aug-cc-pvdz symm=none int=(grid=ultrafine) guess=(read,tcheck) s
 table=(opt,rrhf)
 ----------------------------------------------------------------------
 -----
 title
 -----
 Symbolic Z-matrix:
 Charge = -1 Multiplicity = 1

 SCF Done:  E(RHF) =  -839.454646559     A.U. after   15 cycles
 Normal termination of Gaussian 16 at Wed Apr  9 03:03:15 2025.
 Gaussian 16:  ES64L-G16RevC.01  3-Jul-2019

 ----------------------------------------------------------------------
 #t hf aug-cc-pvdz iop(5/13=1,5/36=2,99/5=2) pseudo=read geom=check gue
 ss=(read,tcheck) scf=(maxcycle=1)
 ----------------------------------------------------------------------
 -----
 title
 -----
 Structure from the checkpoint file:  "E2SN2_9_mol2.chk"
 Charge = -1 Multiplicity = 1

                         Standard orientation:
 ---------------------------------------------------------------------
 Center     Atomic      Atomic             Coordinates (Angstroms)
 Number     Number       Type             X           Y           Z
 ---------------------------------------------------------------------
      1          6           0        0.280952   -0.378542    0.000508
      2          6           0       -0.609262    0.623650   -0.752730
      3         17           0        0.575675    0.170151    1.703076
      4          1           0       -0.698935    0.171485   -1.753282
      5          1           0       -0.374268   -1.297449    0.041006
      6          6           0        1.564545   -0.596914   -0.640577
      7          7           0        2.589195   -0.811333   -1.176030
      8          7           0        0.049238    1.915918   -0.881544
      9          1           0        0.246279    2.260114    0.053267
     10          1           0       -0.642217    2.544695   -1.277263
     11          7           0       -1.956026    0.686786   -0.218569
     12          1           0       -1.887387    0.985238    0.751375
     13          1           0       -2.239106   -0.315505   -0.199726
     14          9           0       -1.820568   -1.963322   -0.253097
 ---------------------------------------------------------------------

 SCF Done:  E(RHF) =  -839.909528098     A.U. after    2 cycles

 The electronic state is 1-A.
 Alpha  occ. eigenvalues -- -105.44466 -26.11246 -15.39358 -15.36953 -15.33249
 Alpha  occ. eigenvalues --  -11.18392 -11.17089 -11.16804 -10.49299  -7.66233
 Alpha  occ. eigenvalues --   -7.65889  -7.65867  -1.18062  -1.11161  -1.09277
 Alpha  occ. eigenvalues --   -1.00183  -0.98114  -0.84783  -0.71895  -0.60677
 Alpha  occ. eigenvalues --   -0.58925  -0.54822  -0.51711  -0.48894  -0.47444
 Alpha  occ. eigenvalues --   -0.46524  -0.40971  -0.37630  -0.37177  -0.34556
 Alpha  occ. eigenvalues --   -0.33991  -0.33464  -0.30666  -0.27684  -0.26866
 Alpha  occ. eigenvalues --   -0.25370
 Alpha virt. eigenvalues --    0.12679   0.14719   0.15227   0.15920   0.17005
 Alpha virt. eigenvalues --    0.18483   0.18734   0.20011   0.23293   0.23766
 Alpha virt. eigenvalues --    0.24099   0.25076   0.25596   0.26488   0.27533

 Mulliken charges:
               1
     1  C    0.272762
     2  C   -2.259955
     3  Cl  -0.060612
     4  H    0.036091
     5  H    0.410144
     6  C   -1.345136
     7  N    0.822384
     8  N    0.608239
     9  H    0.210030
    10  H    0.176569
    11  N    0.631796
    12  H    0.266612
    13  H    0.238963
    14  F   -1.007886
 Sum of Mulliken charges =  -1.00000

 Dipole moment (field-independent basis, Debye):
    X=              1.1125    Y=              5.7965    Z=              2.6913  Tot=              6.4869

 Test job not archived.
 1\1\GINC-SE132\SP\RHF\Aug-CC-pVDZ\C3H6Cl1F1N3(1-)\OHZDE\09-Apr-2025\0\
 \#t hf aug-cc-pvdz iop(5/13=1,5/36=2,99/5=2) pseudo=read geom=check gu
 ess=(read,tcheck) scf=(maxcycle=1)\\title\\-1,1\C,0,-0.126928,0.044412
 ,-1.3689\C,0,0.11592,-0.294477,0.111106\Cl,0,-1.791947,0.718592,-1.613
 556\H,0,1.144397,-0.689227,0.108934\H,0,0.614141,0.877421,-1.5485\C,0,
 0.041447,-1.095524,-2.251217\N,0,0.21715,-2.003783,-2.977019\N,0,-0.78
 624,-1.34413,0.56333\H,0,-1.737971,-1.014611,0.433737\H,0,-0.645345,-1
 .422406,1.565371\N,0,0.139539,0.882696,0.957742\H,0,-0.767383,1.336171

 Normal termination of Gaussian 16 at Wed Apr  9 03:03:21 2025.
