 Gaussian 16, Revision C.01,

 ----------------------------------------------------------------------
 #t hf aug-cc-pvdz symm=none int=(grid=ultrafine) guess=(read,tcheck) s
 table=(opt,rrhf)
 ----------------------------------------------------------------------
 -----
 title
 -----
 Symbolic Z-matrix:
 Charge = -1 Multiplicity = 1

 SCF Done:  E(RHF) =  -583.953147645     A.U. after   17 cycles
 Normal termination of Gaussian 16 at Wed Apr  9 02:46:33 2025.
 Gaussian 16:  ES64L-G16RevC.01  3-Jul-2019

 ----------------------------------------------------------------------
 #t hf aug-cc-pvdz iop(5/13=1,5/36=2,99/5=2) pseudo=read geom=check gue
 ss=(read,tcheck) scf=(maxcycle=1)
 ----------------------------------------------------------------------
 -----
 title
 -----
 Structure from the checkpoint file:  "E2SN2_247_mol2.chk"
 Charge = -1 Multiplicity = 1

                         Standard orientation:
 ---------------------------------------------------------------------
 Center     Atomic      Atomic             Coordinates (Angstroms)
 Number     Number       Type             X           Y           Z
 ---------------------------------------------------------------------
      1          6           0        0.322088    0.516126    0.205138
      2          6           0       -1.042167    0.261872   -0.446033
      3          9           0        0.239267    0.230137    1.574620
      4          1           0       -0.871335    0.246959   -1.528117
      5          7           0        1.349615   -0.553808   -0.257398
      6          8           0        1.039621   -1.322225   -1.165714
      7          8           0        2.449633   -0.511907    0.290208
      8          7           0        0.759297    1.791216   -0.036391
      9          1           0        1.754407    1.901556    0.104669
     10          1           0        0.369533    2.196215   -0.962935
     11          7           0       -2.001064    1.321901   -0.191389
     12          1           0       -1.858317    1.670790    0.750132
     13          1           0       -1.727355    2.064545   -0.848851
     14          6           0       -1.578709   -1.038257   -0.016635
     15          7           0       -2.040404   -2.055909    0.343037
     16          1           0       -0.413754    2.559509   -2.142266
 ---------------------------------------------------------------------

 SCF Done:  E(RHF) =  -584.523194200     A.U. after    2 cycles

 The electronic state is 1-A.
 Alpha  occ. eigenvalues --  -26.36421 -20.49434 -20.48809 -15.67710 -15.40486
 Alpha  occ. eigenvalues --  -15.37823 -15.37748 -11.31643 -11.20401 -11.17606
 Alpha  occ. eigenvalues --   -1.56036  -1.49095  -1.39918  -1.14138  -1.10896
 Alpha  occ. eigenvalues --   -1.07345  -0.95729  -0.87355  -0.74959  -0.70654
 Alpha  occ. eigenvalues --   -0.67002  -0.65329  -0.63428  -0.61663  -0.58596
 Alpha  occ. eigenvalues --   -0.54862  -0.53706  -0.51998  -0.51373  -0.48509
 Alpha  occ. eigenvalues --   -0.45932  -0.41741  -0.39134  -0.38354  -0.37853
 Alpha  occ. eigenvalues --   -0.34687  -0.34516  -0.33899  -0.14344
 Alpha virt. eigenvalues --    0.13774   0.14409   0.15630   0.16201   0.17348
 Alpha virt. eigenvalues --    0.18060   0.19157   0.19646   0.20553   0.21191
 Alpha virt. eigenvalues --    0.22740   0.24040   0.24835   0.25446   0.25770

 Mulliken charges:
               1
     1  C    0.075398
     2  C   -0.652392
     3  F   -1.016556
     4  H    0.242025
     5  N    2.811029
     6  O   -1.354581
     7  O   -1.471379
     8  N    0.570520
     9  H    0.348550
    10  H    0.017245
    11  N    0.615114
    12  H    0.249992
    13  H    0.267323
    14  C   -2.093785
    15  N    1.027997
    16  H   -0.636499
 Sum of Mulliken charges =  -1.00000

 Dipole moment (field-independent basis, Debye):
    X=              2.7862    Y=             -1.8640    Z=              4.3812  Tot=              5.5165

 Test job not archived.
 1\1\GINC-SE455\SP\RHF\Aug-CC-pVDZ\C3H6F1N4O2(1-)\OHZDE\09-Apr-2025\0\\
 #t hf aug-cc-pvdz iop(5/13=1,5/36=2,99/5=2) pseudo=read geom=check gue
 ss=(read,tcheck) scf=(maxcycle=1)\\title\\-1,1\C,0,-0.069139,0.047699,
 0.042084\C,0,-0.649474,0.254429,-1.361602\F,0,1.277636,-0.324498,-0.06
 6531\H,0,-1.600828,0.781437,-1.229309\N,0,0.060313,1.40936,0.779397\O,
 0,-0.445434,2.409533,0.273953\O,0,0.619301,1.374701,1.873928\N,0,-0.80
 5396,-0.859228,0.756754\H,0,-0.649158,-0.797659,1.753807\H,0,-1.843139
 ,-0.889918,0.445994\N,0,-0.955856,-0.99195,-2.04032\H,0,-0.251209,-1.6

 Normal termination of Gaussian 16 at Wed Apr  9 02:46:40 2025.
