 Gaussian 16, Revision C.01,

 ----------------------------------------------------------------------
 #t hf aug-cc-pvdz symm=none int=(grid=ultrafine) guess=(read,tcheck) s
 table=(opt,rrhf)
 ----------------------------------------------------------------------
 -----
 title
 -----
 Symbolic Z-matrix:
 Charge = -1 Multiplicity = 1

 SCF Done:  E(RHF) =  -915.192414276     A.U. after   16 cycles
 Normal termination of Gaussian 16 at Wed Apr  9 03:03:34 2025.
 Gaussian 16:  ES64L-G16RevC.01  3-Jul-2019

 ----------------------------------------------------------------------
 #t hf aug-cc-pvdz iop(5/13=1,5/36=2,99/5=2) pseudo=read geom=check gue
 ss=(read,tcheck) scf=(maxcycle=1)
 ----------------------------------------------------------------------
 -----
 title
 -----
 Structure from the checkpoint file:  "E2SN2_90_mol2.chk"
 Charge = -1 Multiplicity = 1

                         Standard orientation:
 ---------------------------------------------------------------------
 Center     Atomic      Atomic             Coordinates (Angstroms)
 Number     Number       Type             X           Y           Z
 ---------------------------------------------------------------------
      1          6           0       -0.010369   -0.602024   -0.150628
      2          6           0       -0.343294    0.879134    0.168808
      3         17           0        1.331638   -0.656076   -1.389165
      4          1           0       -1.137856    0.783817    0.921185
      5          6           0        0.545381   -1.235861    1.059858
      6          7           0        0.977266   -1.731876    2.033247
      7          7           0       -1.127367   -1.365531   -0.613537
      8          1           0       -1.292555   -1.098673   -1.579066
      9          1           0       -1.956242   -0.973381   -0.051168
     10          6           0       -1.016457    1.586968   -1.007643
     11          1           0       -0.462530    1.460887   -1.940792
     12          1           0       -2.020727    1.169311   -1.059658
     13          1           0       -1.101171    2.654843   -0.793250
     14          6           0        0.818587    1.600731    0.672235
     15          7           0        1.739710    2.214917    1.067749
     16          9           0       -2.861901   -0.004419    0.694508
 ---------------------------------------------------------------------

 SCF Done:  E(RHF) =  -915.713429070     A.U. after    2 cycles

 The electronic state is 1-A.
 Alpha  occ. eigenvalues -- -105.45954 -26.12840 -15.41097 -15.40458 -15.36154
 Alpha  occ. eigenvalues --  -11.27009 -11.17877 -11.17606 -11.16687 -11.12618
 Alpha  occ. eigenvalues --  -10.50835  -7.67767  -7.67404  -7.67394  -1.19942
 Alpha  occ. eigenvalues --   -1.13430  -1.10820  -1.09462  -0.98020  -0.94634
 Alpha  occ. eigenvalues --   -0.84149  -0.76283  -0.63081  -0.60192  -0.57085
 Alpha  occ. eigenvalues --   -0.54764  -0.50288  -0.50101  -0.47370  -0.45282
 Alpha  occ. eigenvalues --   -0.43963  -0.42548  -0.39582  -0.38739  -0.37963
 Alpha  occ. eigenvalues --   -0.36781  -0.36224  -0.35285  -0.33501  -0.29247
 Alpha  occ. eigenvalues --   -0.28814  -0.27713
 Alpha virt. eigenvalues --    0.12453   0.13390   0.14743   0.15433   0.17121
 Alpha virt. eigenvalues --    0.17821   0.18241   0.18777   0.19050   0.22311
 Alpha virt. eigenvalues --    0.22708   0.23160   0.24420   0.24505   0.24796

 Mulliken charges:
               1
     1  C   -1.767967
     2  C    0.674766
     3  Cl   0.024795
     4  H    0.419030
     5  C   -1.559412
     6  N    1.013499
     7  N    0.822670
     8  H    0.321488
     9  H    0.378356
    10  C    0.154121
    11  H    0.257425
    12  H    0.244521
    13  H    0.059791
    14  C   -2.100496
    15  N    1.058482
    16  F   -1.001070
 Sum of Mulliken charges =  -1.00000

 Dipole moment (field-independent basis, Debye):
    X=              2.0480    Y=              1.4083    Z=             -6.2962  Tot=              6.7690

 Test job not archived.
 1\1\GINC-SE123\SP\RHF\Aug-CC-pVDZ\C5H6Cl1F1N3(1-)\OHZDE\09-Apr-2025\0\
 \#t hf aug-cc-pvdz iop(5/13=1,5/36=2,99/5=2) pseudo=read geom=check gu
 ess=(read,tcheck) scf=(maxcycle=1)\\title\\-1,1\C,0,-0.097674,-0.06183
 7,-1.521059\C,0,-0.011227,0.114311,0.017839\Cl,0,-1.813945,-0.493747,-
 1.974652\H,0,1.044036,0.381627,0.16429\C,0,0.163612,1.239911,-2.16376\
 N,0,0.383186,2.279941,-2.663928\N,0,0.80309,-1.038921,-2.049116\H,0,0.
 415872,-1.951671,-1.830724\H,0,1.681387,-0.934807,-1.436883\C,0,-0.174
 365,-1.211799,0.761501\H,0,-1.06114,-1.762645,0.439482\H,0,0.747296,-1

 Normal termination of Gaussian 16 at Wed Apr  9 03:03:43 2025.
