 Gaussian 16, Revision C.01,

 ----------------------------------------------------------------------
 #t hf aug-cc-pvdz symm=none int=(grid=ultrafine) guess=(read,tcheck) s
 table=(opt,rrhf)
 ----------------------------------------------------------------------
 -----
 title
 -----
 Symbolic Z-matrix:
 Charge = -1 Multiplicity = 1

 SCF Done:  E(RHF) =  -591.775347970     A.U. after   16 cycles
 Normal termination of Gaussian 16 at Wed Apr  9 02:48:48 2025.
 Gaussian 16:  ES64L-G16RevC.01  3-Jul-2019

 ----------------------------------------------------------------------
 #t hf aug-cc-pvdz iop(5/13=1,5/36=2,99/5=2) pseudo=read geom=check gue
 ss=(read,tcheck) scf=(maxcycle=1)
 ----------------------------------------------------------------------
 -----
 title
 -----
 Structure from the checkpoint file:  "E2SN2_268_mol1.chk"
 Charge = -1 Multiplicity = 1

                         Standard orientation:
 ---------------------------------------------------------------------
 Center     Atomic      Atomic             Coordinates (Angstroms)
 Number     Number       Type             X           Y           Z
 ---------------------------------------------------------------------
      1          6           0       -0.450802    0.183224    0.071292
      2          1           0        0.749055   -0.441630    1.699699
      3          9           0        0.186304    0.087707   -1.590824
      4          9           0       -1.216146    0.263447    1.648764
      5          6           0        0.747059   -0.606487    0.621153
      6          6           0       -1.637977   -0.494565   -0.424734
      7          7           0       -2.586364   -1.073601   -0.805398
      8          6           0       -0.382888    1.632033    0.009352
      9          7           0       -0.303234    2.803653   -0.015416
     10          6           0        2.024809   -0.113944    0.098437
     11          7           0        3.106545    0.218057   -0.215832
     12          6           0        0.591128   -2.098610    0.331927
     13          1           0       -0.315284   -2.467423    0.814857
     14          1           0        0.517853   -2.247580   -0.744542
     15          1           0        1.450348   -2.650429    0.720492
 ---------------------------------------------------------------------

 SCF Done:  E(RHF) =  -592.333294821     A.U. after    2 cycles

 The electronic state is 1-A.
 Alpha  occ. eigenvalues --  -26.23305 -26.22012 -15.40551 -15.40236 -15.40069
 Alpha  occ. eigenvalues --  -11.31983 -11.19497 -11.18552 -11.18405 -11.17614
 Alpha  occ. eigenvalues --  -11.14332  -1.32541  -1.30560  -1.10962  -1.10584
 Alpha  occ. eigenvalues --   -1.10231  -1.01364  -0.91063  -0.80884  -0.71291
 Alpha  occ. eigenvalues --   -0.63498  -0.58653  -0.50973  -0.50110  -0.49853
 Alpha  occ. eigenvalues --   -0.49558  -0.47417  -0.46032  -0.45753  -0.43086
 Alpha  occ. eigenvalues --   -0.39765  -0.39571  -0.38266  -0.37984  -0.37905
 Alpha  occ. eigenvalues --   -0.37014  -0.36065  -0.35558  -0.34765  -0.32516
 Alpha virt. eigenvalues --    0.11723   0.13785   0.14286   0.15405   0.17188
 Alpha virt. eigenvalues --    0.18596   0.19401   0.20849   0.21576   0.22418
 Alpha virt. eigenvalues --    0.22951   0.23267   0.23565   0.23990   0.24915

 Mulliken charges:
               1
     1  C    3.574957
     2  H    0.240503
     3  F   -0.836519
     4  F   -0.853317
     5  C    0.134864
     6  C   -2.733935
     7  N    1.135994
     8  C   -2.820772
     9  N    1.186144
    10  C   -2.065666
    11  N    1.142179
    12  C    0.202870
    13  H    0.233845
    14  H    0.399204
    15  H    0.059649
 Sum of Mulliken charges =  -1.00000

 Dipole moment (field-independent basis, Debye):
    X=              1.2110    Y=             -4.6768    Z=              2.7859  Tot=              5.5767

 Test job not archived.
 1\1\GINC-SE080\SP\RHF\Aug-CC-pVDZ\C6H4F2N3(1-)\OHZDE\09-Apr-2025\0\\#t
  hf aug-cc-pvdz iop(5/13=1,5/36=2,99/5=2) pseudo=read geom=check guess
 =(read,tcheck) scf=(maxcycle=1)\\title\\-1,1\C,0,0.61762108,-0.0644833
 9,0.0265884\H,0,1.69841581,1.74735842,0.20243746\F,0,-1.14703867,-0.07
 528133,0.27861084\F,0,2.33654384,-0.17382144,-0.31098451\C,0,0.6540675
 1,1.47143536,0.04866096\C,0,0.37080398,-0.79587491,-1.20587739\N,0,0.1
 8171032,-1.35499951,-2.22138153\C,0,0.79458859,-0.80061578,1.26525223\
 N,0,0.95447511,-1.3681567,2.28111905\C,0,-0.11719479,2.02985724,1.1630

 Normal termination of Gaussian 16 at Wed Apr  9 02:48:56 2025.
