 Gaussian 16, Revision C.01,

 ----------------------------------------------------------------------
 #t hf aug-cc-pvdz symm=none int=(grid=ultrafine) guess=(read,tcheck) s
 table=(opt,rrhf)
 ----------------------------------------------------------------------
 -----
 title
 -----
 Symbolic Z-matrix:
 Charge = -1 Multiplicity = 1

 SCF Done:  E(RHF) =  -1000.71536302     A.U. after   18 cycles
 Normal termination of Gaussian 16 at Wed Apr  9 02:42:03 2025.
 Gaussian 16:  ES64L-G16RevC.01  3-Jul-2019

 ----------------------------------------------------------------------
 #t hf aug-cc-pvdz iop(5/13=1,5/36=2,99/5=2) pseudo=read geom=check gue
 ss=(read,tcheck) scf=(maxcycle=1)
 ----------------------------------------------------------------------
 -----
 title
 -----
 Structure from the checkpoint file:  "E2SN2_1_mol2.chk"
 Charge = -1 Multiplicity = 1

                         Standard orientation:
 ---------------------------------------------------------------------
 Center     Atomic      Atomic             Coordinates (Angstroms)
 Number     Number       Type             X           Y           Z
 ---------------------------------------------------------------------
      1          6           0        0.605694   -0.198592   -0.483510
      2          6           0       -0.560125   -0.703843    0.357717
      3         17           0        2.014657   -1.226258   -0.303174
      4          1           0       -0.654118   -1.793321    0.286975
      5          1           0        0.349452   -0.140496   -1.539529
      6          7           0        0.914686    1.225664   -0.068480
      7          8           0        2.009016    1.533358    0.376517
      8          8           0       -0.037089    1.987409   -0.233846
      9          7           0       -1.840490   -0.200325   -0.323598
     10          8           0       -1.956089   -0.437100   -1.526388
     11          8           0       -2.682471    0.364992    0.363428
     12          7           0       -0.458173   -0.411722    1.722121
     13          1           0       -1.012285    0.400409    1.963734
     14          1           0       -0.855243   -1.292433    2.161501
     15          1           0       -1.329478   -2.797744    1.888046
 ---------------------------------------------------------------------

 SCF Done:  E(RHF) =  -1001.31947434     A.U. after    2 cycles

 The electronic state is 1-A.
 Alpha  occ. eigenvalues -- -105.48661 -20.51075 -20.50117 -20.48315 -20.47536
 Alpha  occ. eigenvalues --  -15.70102 -15.66798 -15.36113 -11.27948 -11.22279
 Alpha  occ. eigenvalues --  -10.53528  -7.70499  -7.70070  -7.70056  -1.57949
 Alpha  occ. eigenvalues --   -1.54868  -1.41983  -1.38894  -1.13364  -1.06028
 Alpha  occ. eigenvalues --   -0.95029  -0.93612  -0.79906  -0.74404  -0.69242
 Alpha  occ. eigenvalues --   -0.68665  -0.66684  -0.65637  -0.63440  -0.61506
 Alpha  occ. eigenvalues --   -0.57104  -0.51700  -0.51074  -0.46948  -0.41677
 Alpha  occ. eigenvalues --   -0.40878  -0.39114  -0.38331  -0.37582  -0.36761
 Alpha  occ. eigenvalues --   -0.35921  -0.33811  -0.33167  -0.11428
 Alpha virt. eigenvalues --    0.12774   0.14658   0.15654   0.16458   0.17187
 Alpha virt. eigenvalues --    0.18017   0.19597   0.20027   0.21608   0.21788
 Alpha virt. eigenvalues --    0.23104   0.23409   0.25127   0.25554   0.26140

 Mulliken charges:
               1
     1  C   -0.622229
     2  C   -1.666443
     3  Cl   0.148471
     4  H    0.105692
     5  H    0.228297
     6  N    2.962826
     7  O   -1.451921
     8  O   -1.533824
     9  N    3.217826
    10  O   -1.613569
    11  O   -1.480510
    12  N    0.732153
    13  H    0.422155
    14  H    0.273035
    15  H   -0.721960
 Sum of Mulliken charges =  -1.00000

 Dipole moment (field-independent basis, Debye):
    X=              5.1782    Y=              6.7687    Z=             -6.0698  Tot=             10.4628

 Test job not archived.
 1\1\GINC-SE105\SP\RHF\Aug-CC-pVDZ\C2H5Cl1N3O4(1-)\OHZDE\09-Apr-2025\0\
 \#t hf aug-cc-pvdz iop(5/13=1,5/36=2,99/5=2) pseudo=read geom=check gu
 ess=(read,tcheck) scf=(maxcycle=1)\\title\\-1,1\C,0,-0.319972,-0.14787
 1,-1.578375\C,0,0.197519,-0.065726,-0.147455\Cl,0,0.988866,-0.021509,-
 2.738018\H,0,1.109375,-0.660645,-0.023394\H,0,-0.860448,-1.0743,-1.762
 298\N,0,-1.337543,0.955912,-1.784388\O,0,-1.173909,1.819307,-2.631754\
 O,0,-2.299065,0.866034,-1.022237\N,0,-0.822156,-0.807124,0.728699\O,0,
 -1.129135,-1.946133,0.375781\O,0,-1.237877,-0.250045,1.737341\N,0,0.51

 Normal termination of Gaussian 16 at Wed Apr  9 02:42:11 2025.
