 Gaussian 16, Revision C.01,

 ----------------------------------------------------------------------
 #t hf aug-cc-pvdz symm=none int=(grid=ultrafine) guess=(read,tcheck) s
 table=(opt,rrhf)
 ----------------------------------------------------------------------
 -----
 title
 -----
 Symbolic Z-matrix:
 Charge = -1 Multiplicity = 1

 SCF Done:  E(RHF) =  -891.259469701     A.U. after   17 cycles
 Normal termination of Gaussian 16 at Wed Apr  9 02:56:53 2025.
 Gaussian 16:  ES64L-G16RevC.01  3-Jul-2019

 ----------------------------------------------------------------------
 #t hf aug-cc-pvdz iop(5/13=1,5/36=2,99/5=2) pseudo=read geom=check gue
 ss=(read,tcheck) scf=(maxcycle=1)
 ----------------------------------------------------------------------
 -----
 title
 -----
 Structure from the checkpoint file:  "E2SN2_364_mol1.chk"
 Charge = -1 Multiplicity = 1

                         Standard orientation:
 ---------------------------------------------------------------------
 Center     Atomic      Atomic             Coordinates (Angstroms)
 Number     Number       Type             X           Y           Z
 ---------------------------------------------------------------------
      1          6           0       -0.998302    0.252218    0.295019
      2          1           0        0.525930    1.246648    1.421139
      3         17           0       -0.615694   -1.385932   -0.946621
      4          1           0       -1.426971    1.968084    1.366220
      5          6           0        0.403047    0.917656    0.396384
      6          6           0       -1.484539   -0.472289    1.552275
      7          1           0       -1.279704   -1.544582    1.503366
      8          1           0       -1.000728   -0.057963    2.434494
      9          1           0       -2.558680   -0.318065    1.661776
     10          7           0       -1.916923    0.858004   -0.662585
     11          1           0       -2.461708    1.523616   -0.134581
     12          1           0       -2.496870    0.134081   -1.068301
     13          7           0        0.641186    2.006518   -0.500557
     14          1           0       -0.031303    2.700551   -0.182858
     15          1           0        0.316649    1.713200   -1.417325
     16          7           0        1.539962   -0.089818    0.241787
     17          8           0        2.232182   -0.086476   -0.768292
     18          8           0        1.706490   -0.840169    1.205297
 ---------------------------------------------------------------------

 SCF Done:  E(RHF) =  -891.778820892     A.U. after    2 cycles

 The electronic state is 1-A.
 Alpha  occ. eigenvalues -- -105.37153 -20.45168 -20.44584 -15.63894 -15.36293
 Alpha  occ. eigenvalues --  -15.36040 -11.24115 -11.19879 -11.10563 -10.42057
 Alpha  occ. eigenvalues --   -7.58910  -7.58689  -7.58666  -1.51936  -1.35838
 Alpha  occ. eigenvalues --   -1.10854  -1.05760  -0.93896  -0.88119  -0.83444
 Alpha  occ. eigenvalues --   -0.75083  -0.68508  -0.63735  -0.60997  -0.59361
 Alpha  occ. eigenvalues --   -0.57230  -0.54530  -0.53050  -0.49551  -0.46616
 Alpha  occ. eigenvalues --   -0.43460  -0.42421  -0.36401  -0.34957  -0.33520
 Alpha  occ. eigenvalues --   -0.32141  -0.31442  -0.30152  -0.28918  -0.27909
 Alpha  occ. eigenvalues --   -0.12971
 Alpha virt. eigenvalues --    0.13212   0.13643   0.14742   0.15284   0.15613
 Alpha virt. eigenvalues --    0.16325   0.16718   0.18349   0.18840   0.20343
 Alpha virt. eigenvalues --    0.22629   0.23696   0.23985   0.24824   0.24900

 Mulliken charges:
               1
     1  C   -2.391458
     2  H    0.136653
     3  Cl  -0.447604
     4  H   -0.555829
     5  C   -1.451870
     6  C   -0.026705
     7  H    0.271618
     8  H    0.195819
     9  H    0.142182
    10  N    0.839657
    11  H    0.384956
    12  H    0.240473
    13  N    0.820664
    14  H    0.359923
    15  H    0.360142
    16  N    3.154219
    17  O   -1.484466
    18  O   -1.548375
 Sum of Mulliken charges =  -1.00000

 Dipole moment (field-independent basis, Debye):
    X=             -1.0513    Y=             -1.8123    Z=             -0.8244  Tot=              2.2515

 Test job not archived.
 1\1\GINC-SE336\SP\RHF\Aug-CC-pVDZ\C3H9Cl1N3O2(1-)\OHZDE\09-Apr-2025\0\
 \#t hf aug-cc-pvdz iop(5/13=1,5/36=2,99/5=2) pseudo=read geom=check gu
 ess=(read,tcheck) scf=(maxcycle=1)\\title\\-1,1\C,0,0.43810828,-0.0273
 7536,-0.0465318\H,0,1.54532181,1.62385557,-0.83889383\Cl,0,-1.64007428
 ,-0.19125006,-0.20745451\H,0,2.46899756,0.14588776,0.30116947\C,0,0.65
 881759,1.50069049,-0.22864849\C,0,0.86814451,-0.90762942,-1.2222235\H,
 0,0.02537303,-1.14613803,-1.87568469\H,0,1.63825787,-0.40560563,-1.804
 41522\H,0,1.29622488,-1.83432288,-0.83811294\N,0,0.44367002,-0.5061189

 Normal termination of Gaussian 16 at Wed Apr  9 02:57:02 2025.
