 Gaussian 16, Revision C.01,

 ----------------------------------------------------------------------
 #t hf aug-cc-pvdz symm=none int=(grid=ultrafine) guess=(read,tcheck) s
 table=(opt,rrhf)
 ----------------------------------------------------------------------
 -----
 title
 -----
 Symbolic Z-matrix:
 Charge = -1 Multiplicity = 1

 SCF Done:  E(RHF) =  -366.722753758     A.U. after   15 cycles
 Normal termination of Gaussian 16 at Wed Apr  9 02:45:02 2025.
 Gaussian 16:  ES64L-G16RevC.01  3-Jul-2019

 ----------------------------------------------------------------------
 #t hf aug-cc-pvdz iop(5/13=1,5/36=2,99/5=2) pseudo=read geom=check gue
 ss=(read,tcheck) scf=(maxcycle=1)
 ----------------------------------------------------------------------
 -----
 title
 -----
 Structure from the checkpoint file:  "E2SN2_23_mol1.chk"
 Charge = -1 Multiplicity = 1

                         Standard orientation:
 ---------------------------------------------------------------------
 Center     Atomic      Atomic             Coordinates (Angstroms)
 Number     Number       Type             X           Y           Z
 ---------------------------------------------------------------------
      1          6           0       -0.599965   -0.001541   -0.085371
      2          6           0        0.858499    0.017159   -0.265345
      3          9           0       -0.963931   -0.140516    1.387979
      4          1           0        1.479105   -1.124425   -2.330574
      5          1           0        1.159644   -0.485216   -1.634117
      6          7           0       -1.205204   -1.140767   -0.724778
      7          1           0       -1.929932   -1.506960   -0.119482
      8          1           0       -0.494027   -1.849892   -0.856177
      9          7           0        1.521157   -1.101859    0.385385
     10          1           0        1.729583   -1.820153   -0.318521
     11          1           0        0.937398   -1.501334    1.110981
     12          6           0        1.559064    1.318965    0.045898
     13          1           0        1.485840    1.622257    1.106641
     14          1           0        2.624298    1.193041   -0.175912
     15          1           0        1.193513    2.151502   -0.568004
     16          6           0       -1.339939    1.262959   -0.467766
     17          1           0       -1.137153    1.498044   -1.514749
     18          1           0       -2.415210    1.102495   -0.345219
     19          1           0       -1.035299    2.098407    0.164583
 ---------------------------------------------------------------------

 SCF Done:  E(RHF) =  -367.114437326     A.U. after    2 cycles

 The electronic state is 1-A.
 Alpha  occ. eigenvalues --  -26.25049 -15.34101 -15.30885 -11.17916 -11.08790
 Alpha  occ. eigenvalues --  -11.06058 -11.03486  -1.35361  -1.05395  -0.99240
 Alpha  occ. eigenvalues --   -0.87419  -0.80721  -0.71539  -0.60702  -0.55427
 Alpha  occ. eigenvalues --   -0.54547  -0.50837  -0.48552  -0.46726  -0.42300
 Alpha  occ. eigenvalues --   -0.41247  -0.40481  -0.39317  -0.37858  -0.36388
 Alpha  occ. eigenvalues --   -0.34946  -0.32435  -0.29547  -0.25637  -0.08017
 Alpha virt. eigenvalues --    0.12916   0.13491   0.14135   0.14514   0.15490
 Alpha virt. eigenvalues --    0.15695   0.16632   0.17065   0.18791   0.19412
 Alpha virt. eigenvalues --    0.19854   0.22209   0.23616   0.24775   0.25266

 Mulliken charges:
               1
     1  C   -0.082102
     2  C   -2.331376
     3  F   -1.047045
     4  H   -0.616544
     5  H    0.522630
     6  N    0.528034
     7  H    0.254935
     8  H    0.180977
     9  N    0.702019
    10  H    0.162887
    11  H    0.192182
    12  C   -0.428638
    13  H    0.176399
    14  H    0.073747
    15  H    0.200109
    16  C   -0.158948
    17  H    0.299918
    18  H    0.088964
    19  H    0.281851
 Sum of Mulliken charges =  -1.00000

 Dipole moment (field-independent basis, Debye):
    X=             -4.5850    Y=              1.9741    Z=              3.8728  Tot=              6.3180

 Test job not archived.
 1\1\GINC-SE340\SP\RHF\Aug-CC-pVDZ\C4H12F1N2(1-)\OHZDE\09-Apr-2025\0\\#
 t hf aug-cc-pvdz iop(5/13=1,5/36=2,99/5=2) pseudo=read geom=check gues
 s=(read,tcheck) scf=(maxcycle=1)\\title\\-1,1\C,0,-0.15573843,0.041351
 09,-0.31991294\C,0,-0.20407159,-0.13616694,1.13817063\F,0,1.2177954,0.
 53138698,-0.76242436\H,0,-2.40588246,0.46670957,1.99962547\H,0,-1.6182
 7438,0.02535129,1.57468724\N,0,-1.07262948,1.05711089,-0.76772455\H,0,
 -0.62288366,1.60602408,-1.49031315\H,0,-1.29227075,1.65897687,0.016757
 17\N,0,0.24573273,1.04063793,1.86451231\H,0,-0.57538914,1.5663232,2.18

 Normal termination of Gaussian 16 at Wed Apr  9 02:45:08 2025.
