 Gaussian 16, Revision C.01,

 ----------------------------------------------------------------------
 #t hf aug-cc-pvdz symm=none int=(grid=ultrafine) guess=(read,tcheck) s
 table=(opt,rrhf)
 ----------------------------------------------------------------------
 -----
 title
 -----
 Symbolic Z-matrix:
 Charge = -1 Multiplicity = 1

 SCF Done:  E(RHF) =  -531.201317022     A.U. after   17 cycles
 Normal termination of Gaussian 16 at Wed Apr  9 02:36:30 2025.
 Gaussian 16:  ES64L-G16RevC.01  3-Jul-2019

 ----------------------------------------------------------------------
 #t hf aug-cc-pvdz iop(5/13=1,5/36=2,99/5=2) pseudo=read geom=check gue
 ss=(read,tcheck) scf=(maxcycle=1)
 ----------------------------------------------------------------------
 -----
 title
 -----
 Structure from the checkpoint file:  "E2SN2_126_mol1.chk"
 Charge = -1 Multiplicity = 1

                         Standard orientation:
 ---------------------------------------------------------------------
 Center     Atomic      Atomic             Coordinates (Angstroms)
 Number     Number       Type             X           Y           Z
 ---------------------------------------------------------------------
      1          6           0        0.016021   -0.473866   -0.179757
      2          6           0        1.040187    0.444999    0.319597
      3          9           0       -0.023288   -0.626058   -1.600405
      4          1           0        1.529210   -0.497172    2.500486
      5          1           0        1.167103    0.030664    1.739916
      6          7           0        0.054568   -1.815858    0.329168
      7          1           0        0.472999   -1.767965    1.258381
      8          1           0        0.679962   -2.340605   -0.267423
      9          7           0       -1.368248    0.093359    0.159109
     10          8           0       -2.000103    0.685648   -0.712369
     11          8           0       -1.732767   -0.045596    1.322532
     12          6           0        0.825115    1.916442    0.056321
     13          1           0       -0.105836    2.286578    0.500758
     14          1           0        1.651958    2.465033    0.517494
     15          1           0        0.809323    2.183184   -1.013860
     16          7           0        2.378484    0.001412   -0.021591
     17          1           0        2.406594   -0.520979   -0.891192
     18          1           0        2.719662   -0.602460    0.734008
 ---------------------------------------------------------------------

 SCF Done:  E(RHF) =  -531.736449455     A.U. after    2 cycles

 The electronic state is 1-A.
 Alpha  occ. eigenvalues --  -26.31784 -20.45261 -20.45152 -15.64003 -15.36947
 Alpha  occ. eigenvalues --  -15.33758 -11.26432 -11.07719 -11.06294  -1.52353
 Alpha  occ. eigenvalues --   -1.43768  -1.36062  -1.09350  -1.02255  -0.93425
 Alpha  occ. eigenvalues --   -0.83740  -0.74201  -0.68029  -0.64632  -0.61739
 Alpha  occ. eigenvalues --   -0.59963  -0.56589  -0.56158  -0.53273  -0.50663
 Alpha  occ. eigenvalues --   -0.47276  -0.45716  -0.42698  -0.41611  -0.39203
 Alpha  occ. eigenvalues --   -0.36068  -0.35347  -0.33939  -0.32923  -0.30809
 Alpha  occ. eigenvalues --   -0.28373  -0.10942
 Alpha virt. eigenvalues --    0.13222   0.14023   0.14557   0.15188   0.16080
 Alpha virt. eigenvalues --    0.16839   0.18062   0.18736   0.19968   0.20878
 Alpha virt. eigenvalues --    0.22162   0.23719   0.24100   0.24836   0.26240

 Mulliken charges:
               1
     1  C   -0.090299
     2  C   -2.114152
     3  F   -1.104705
     4  H   -0.614017
     5  H    0.597107
     6  N    0.512809
     7  H    0.288767
     8  H    0.307202
     9  N    2.982732
    10  O   -1.462884
    11  O   -1.535994
    12  C   -0.325816
    13  H    0.200472
    14  H    0.107923
    15  H    0.175529
    16  N    0.722842
    17  H    0.164545
    18  H    0.187941
 Sum of Mulliken charges =  -1.00000

 Dipole moment (field-independent basis, Debye):
    X=             -0.6580    Y=             -1.0325    Z=             -4.1972  Tot=              4.3721

 Test job not archived.
 1\1\GINC-SE132\SP\RHF\Aug-CC-pVDZ\C3H9F1N3O2(1-)\OHZDE\09-Apr-2025\0\\
 #t hf aug-cc-pvdz iop(5/13=1,5/36=2,99/5=2) pseudo=read geom=check gue
 ss=(read,tcheck) scf=(maxcycle=1)\\title\\-1,1\C,0,-0.03342077,-0.0293
 3499,-0.33220612\C,0,-0.08838453,0.06135573,1.12770458\F,0,1.27849971,
 -0.16142756,-0.88389872\H,0,-2.25434519,-0.9212947,1.60322337\H,0,-1.4
 9962302,-0.30342948,1.41129882\N,0,-0.79149812,-1.08720284,-0.93856235
 \H,0,-1.57327449,-1.28642898,-0.31410306\H,0,-0.19493778,-1.90329723,-
 0.96101112\N,0,-0.54412379,1.28707381,-0.93139315\O,0,0.2698648,2.1207

 Normal termination of Gaussian 16 at Wed Apr  9 02:36:38 2025.
