 Gaussian 16, Revision C.01,

 ----------------------------------------------------------------------
 #t hf aug-cc-pvdz symm=none int=(grid=ultrafine) guess=(read,tcheck) s
 table=(opt,rrhf)
 ----------------------------------------------------------------------
 -----
 title
 -----
 Symbolic Z-matrix:
 Charge = -1 Multiplicity = 1

 SCF Done:  E(RHF) =  -456.133603069     A.U. after   17 cycles
 Normal termination of Gaussian 16 at Wed Apr  9 02:58:32 2025.
 Gaussian 16:  ES64L-G16RevC.01  3-Jul-2019

 ----------------------------------------------------------------------
 #t hf aug-cc-pvdz iop(5/13=1,5/36=2,99/5=2) pseudo=read geom=check gue
 ss=(read,tcheck) scf=(maxcycle=1)
 ----------------------------------------------------------------------
 -----
 title
 -----
 Structure from the checkpoint file:  "E2SN2_391_mol1.chk"
 Charge = -1 Multiplicity = 1

                         Standard orientation:
 ---------------------------------------------------------------------
 Center     Atomic      Atomic             Coordinates (Angstroms)
 Number     Number       Type             X           Y           Z
 ---------------------------------------------------------------------
      1          6           0       -0.520634   -0.404450    0.285501
      2          1           0        0.804383    0.496569    1.701466
      3          9           0       -0.081230   -0.718088   -1.265472
      4          1           0       -1.229752    0.107366    1.911878
      5          6           0        0.664079    0.516550    0.622626
      6          7           0       -0.428556   -1.768850    0.747373
      7          1           0       -0.679501   -2.357609   -0.037920
      8          1           0       -1.067228   -1.891190    1.517704
      9          6           0       -1.805791    0.188084   -0.015413
     10          7           0       -2.825530    0.603237   -0.446062
     11          6           0        0.399277    1.946792    0.162843
     12          1           0        0.207817    1.957500   -0.911033
     13          1           0       -0.480377    2.324892    0.688101
     14          1           0        1.254017    2.591323    0.383093
     15          6           0        1.909151    0.009641    0.027239
     16          7           0        2.974831   -0.306639   -0.352855
 ---------------------------------------------------------------------

 SCF Done:  E(RHF) =  -456.582367303     A.U. after    2 cycles

 The electronic state is 1-A.
 Alpha  occ. eigenvalues --  -26.24026 -15.37973 -15.37390 -15.35837 -11.26700
 Alpha  occ. eigenvalues --  -11.16087 -11.15757 -11.15047 -11.12094  -1.33614
 Alpha  occ. eigenvalues --   -1.09131  -1.08172  -1.05601  -0.97068  -0.82290
 Alpha  occ. eigenvalues --   -0.77947  -0.61506  -0.60294  -0.56695  -0.55854
 Alpha  occ. eigenvalues --   -0.48369  -0.46471  -0.45221  -0.44213  -0.43522
 Alpha  occ. eigenvalues --   -0.42507  -0.39468  -0.38280  -0.36713  -0.35254
 Alpha  occ. eigenvalues --   -0.35133  -0.33492  -0.33079  -0.14448
 Alpha virt. eigenvalues --    0.12639   0.13625   0.14335   0.15266   0.15712
 Alpha virt. eigenvalues --    0.16499   0.18388   0.19114   0.19480   0.22678
 Alpha virt. eigenvalues --    0.23478   0.24341   0.24803   0.25099   0.25932

 Mulliken charges:
               1
     1  C   -0.299186
     2  H    0.168313
     3  F   -0.927508
     4  H   -0.268479
     5  C    0.044746
     6  N    0.769754
     7  H    0.297035
     8  H    0.278845
     9  C   -2.192981
    10  N    1.084926
    11  C    0.191959
    12  H    0.373624
    13  H    0.303041
    14  H    0.070746
    15  C   -1.944869
    16  N    1.050035
 Sum of Mulliken charges =  -1.00000

 Dipole moment (field-independent basis, Debye):
    X=              1.6690    Y=              0.5253    Z=              0.7329  Tot=              1.8970

 Test job not archived.
 1\1\GINC-SE195\SP\RHF\Aug-CC-pVDZ\C5H7F1N3(1-)\OHZDE\09-Apr-2025\0\\#t
  hf aug-cc-pvdz iop(5/13=1,5/36=2,99/5=2) pseudo=read geom=check guess
 =(read,tcheck) scf=(maxcycle=1)\\title\\-1,1\C,0,0.44112461,-0.0857641
 9,-0.05183482\H,0,1.58629954,1.68932694,-0.38363223\F,0,-1.17692859,-0
 .16087605,-0.32243808\H,0,2.19507131,-0.08153502,0.52571154\C,0,0.5604
 1291,1.44632429,-0.11439669\N,0,0.82651486,-0.81158877,-1.23844526\H,0
 ,0.08921184,-1.48234603,-1.41945529\H,0,1.70655756,-1.27083282,-1.0626
 6412\C,0,0.43057605,-0.73595313,1.24061111\N,0,0.23259258,-1.31290954,

 Normal termination of Gaussian 16 at Wed Apr  9 02:58:40 2025.
