 Gaussian 16, Revision C.01,

 ----------------------------------------------------------------------
 #t hf aug-cc-pvdz symm=none int=(grid=ultrafine) guess=(read,tcheck) s
 table=(opt,rrhf)
 ----------------------------------------------------------------------
 -----
 title
 -----
 Symbolic Z-matrix:
 Charge = -1 Multiplicity = 1

 SCF Done:  E(RHF) =  -1175.37011388     A.U. after   18 cycles
 Normal termination of Gaussian 16 at Wed Apr  9 02:51:12 2025.
 Gaussian 16:  ES64L-G16RevC.01  3-Jul-2019

 ----------------------------------------------------------------------
 #t hf aug-cc-pvdz iop(5/13=1,5/36=2,99/5=2) pseudo=read geom=check gue
 ss=(read,tcheck) scf=(maxcycle=1)
 ----------------------------------------------------------------------
 -----
 title
 -----
 Structure from the checkpoint file:  "E2SN2_280_mol2.chk"
 Charge = -1 Multiplicity = 1

                         Standard orientation:
 ---------------------------------------------------------------------
 Center     Atomic      Atomic             Coordinates (Angstroms)
 Number     Number       Type             X           Y           Z
 ---------------------------------------------------------------------
      1          6           0        0.888935   -0.414008   -0.238051
      2          6           0       -0.471192    0.222533   -0.510346
      3         17           0        2.029487    0.797677   -1.094751
      4          1           0       -0.504757    0.510063   -1.560959
      5          6           0        1.367666   -0.486398    1.142174
      6          7           0        2.118291   -0.444807    2.050926
      7          6           0        1.077632   -1.742905   -0.954106
      8          1           0        2.131264   -2.019586   -0.883147
      9          1           0        0.795960   -1.659559   -2.004772
     10          1           0        0.453057   -2.459488   -0.429335
     11          7           0       -0.706032    1.502682    0.229469
     12          8           0       -0.307692    1.607882    1.380480
     13          8           0       -1.324777    2.357723   -0.405871
     14          7           0       -1.717041   -0.617753   -0.339488
     15          8           0       -2.593616   -0.209001    0.402653
     16          8           0       -1.811992   -1.535506   -1.144233
     17          9           0       -0.457439   -1.584102    1.266707
 ---------------------------------------------------------------------

 SCF Done:  E(RHF) =  -1176.12230873     A.U. after    2 cycles

 The electronic state is 1-A.
 Alpha  occ. eigenvalues -- -105.46627 -26.13054 -20.50171 -20.49335 -20.48019
 Alpha  occ. eigenvalues --  -20.47425 -15.69584 -15.69165 -15.36767 -11.28252
 Alpha  occ. eigenvalues --  -11.27019 -11.16802 -11.13734 -10.51456  -7.68378
 Alpha  occ. eigenvalues --   -7.68039  -7.68021  -1.57184  -1.55477  -1.40893
 Alpha  occ. eigenvalues --   -1.39819  -1.20869  -1.11388  -1.07319  -1.00973
 Alpha  occ. eigenvalues --   -0.91181  -0.89113  -0.80563  -0.76229  -0.70677
 Alpha  occ. eigenvalues --   -0.70249  -0.66676  -0.63444  -0.62839  -0.61890
 Alpha  occ. eigenvalues --   -0.53836  -0.53183  -0.50539  -0.47396  -0.45771
 Alpha  occ. eigenvalues --   -0.44195  -0.41315  -0.39900  -0.39056  -0.37621
 Alpha  occ. eigenvalues --   -0.36744  -0.36084  -0.35433  -0.35298  -0.34332
 Alpha  occ. eigenvalues --   -0.33272  -0.29679  -0.29160  -0.27143
 Alpha virt. eigenvalues --    0.12230   0.12934   0.14533   0.14980   0.16147
 Alpha virt. eigenvalues --    0.16924   0.18221   0.19696   0.20983   0.22243
 Alpha virt. eigenvalues --    0.22766   0.23467   0.24359   0.24511   0.25106

 Mulliken charges:
               1
     1  C   -0.985772
     2  C   -0.622831
     3  Cl  -0.089110
     4  H    0.186539
     5  C   -1.475178
     6  N    1.162944
     7  C    0.152214
     8  H    0.188685
     9  H    0.240385
    10  H    0.521591
    11  N    3.370334
    12  O   -1.480100
    13  O   -1.557562
    14  N    3.436473
    15  O   -1.555176
    16  O   -1.610770
    17  F   -0.882667
 Sum of Mulliken charges =  -1.00000

 Dipole moment (field-independent basis, Debye):
    X=              0.5628    Y=              1.8772    Z=             -7.5574  Tot=              7.8074

 Test job not archived.
 1\1\GINC-SE080\SP\RHF\Aug-CC-pVDZ\C4H4Cl1F1N3O4(1-)\OHZDE\09-Apr-2025\
 0\\#t hf aug-cc-pvdz iop(5/13=1,5/36=2,99/5=2) pseudo=read geom=check
 guess=(read,tcheck) scf=(maxcycle=1)\\title\\-1,1\C,0,-0.053528,-0.030
 899,-0.003929\C,0,-0.332185,-0.122234,-1.501689\Cl,0,1.809116,0.152061
 ,0.003405\H,0,0.38732,-0.815368,-1.936966\C,0,-0.558773,1.125249,0.735
 999\N,0,-0.580066,2.01037,1.51517\C,0,-0.348725,-1.326933,0.735979\H,0
 ,0.072055,-1.247391,1.740142\H,0,0.101793,-2.177122,0.221783\H,0,-1.43
 0477,-1.412038,0.775194\N,0,-0.106293,1.157739,-2.244588\O,0,-0.429246

 Normal termination of Gaussian 16 at Wed Apr  9 02:51:25 2025.
