 Gaussian 16, Revision C.01,

 ----------------------------------------------------------------------
 #t hf aug-cc-pvdz symm=none int=(grid=ultrafine) guess=(read,tcheck) s
 table=(opt,rrhf)
 ----------------------------------------------------------------------
 -----
 title
 -----
 Symbolic Z-matrix:
 Charge = -1 Multiplicity = 1

 SCF Done:  E(RHF) =  -823.530197054     A.U. after   14 cycles
 Normal termination of Gaussian 16 at Wed Apr  9 02:58:14 2025.
 Gaussian 16:  ES64L-G16RevC.01  3-Jul-2019

 ----------------------------------------------------------------------
 #t hf aug-cc-pvdz iop(5/13=1,5/36=2,99/5=2) pseudo=read geom=check gue
 ss=(read,tcheck) scf=(maxcycle=1)
 ----------------------------------------------------------------------
 -----
 title
 -----
 Structure from the checkpoint file:  "E2SN2_398_mol2.chk"
 Charge = -1 Multiplicity = 1

                         Standard orientation:
 ---------------------------------------------------------------------
 Center     Atomic      Atomic             Coordinates (Angstroms)
 Number     Number       Type             X           Y           Z
 ---------------------------------------------------------------------
      1          6           0        0.513076    0.809931   -0.036129
      2          6           0        0.577787   -0.572655   -0.684016
      3          9           0        1.738034    1.456488   -0.296020
      4          1           0       -0.372577   -1.084741   -0.489540
      5          1           0        0.672953   -0.425421   -1.762661
      6          7           0       -0.514379    1.545820   -0.712775
      7          1           0       -0.694577    2.400349   -0.195697
      8          1           0       -1.372910    0.988063   -0.667143
      9          6           0        0.372424    0.737823    1.472568
     10          1           0        1.201850    0.188118    1.924207
     11          1           0       -0.576367    0.252595    1.709804
     12          1           0        0.369218    1.754536    1.876269
     13          6           0        1.705162   -1.363013   -0.203487
     14          7           0        2.613110   -2.000663    0.179765
     15         17           0       -2.857159   -0.686501    0.041553
 ---------------------------------------------------------------------

 SCF Done:  E(RHF) =  -823.974778449     A.U. after    2 cycles

 The electronic state is 1-A.
 Alpha  occ. eigenvalues -- -105.29133 -26.32781 -15.40404 -15.36696 -11.24260
 Alpha  occ. eigenvalues --  -11.17940 -11.15635 -11.11714 -10.33729  -7.50495
 Alpha  occ. eigenvalues --   -7.50465  -7.50455  -1.45331  -1.11207  -1.08622
 Alpha  occ. eigenvalues --   -0.94523  -0.87169  -0.74609  -0.71844  -0.62827
 Alpha  occ. eigenvalues --   -0.59325  -0.56436  -0.54448  -0.52164  -0.49568
 Alpha  occ. eigenvalues --   -0.48452  -0.46525  -0.44793  -0.42725  -0.41031
 Alpha  occ. eigenvalues --   -0.37372  -0.36995  -0.32947  -0.21904  -0.21505
 Alpha  occ. eigenvalues --   -0.21424
 Alpha virt. eigenvalues --    0.12438   0.13581   0.13828   0.16015   0.16317
 Alpha virt. eigenvalues --    0.16970   0.18143   0.19418   0.19734   0.22749
 Alpha virt. eigenvalues --    0.23567   0.24371   0.25532   0.25718   0.26003

 Mulliken charges:
               1
     1  C   -0.841487
     2  C    0.443501
     3  F   -1.007179
     4  H    0.311686
     5  H    0.223700
     6  N    0.623577
     7  H    0.225755
     8  H    0.230358
     9  C   -0.206837
    10  H    0.249962
    11  H    0.272566
    12  H    0.129373
    13  C   -1.531749
    14  N    0.842051
    15  Cl  -0.965277
 Sum of Mulliken charges =  -1.00000

 Dipole moment (field-independent basis, Debye):
    X=              4.8575    Y=              4.1734    Z=              0.2902  Tot=              6.4107

 Test job not archived.
 1\1\GINC-SE366\SP\RHF\Aug-CC-pVDZ\C4H7Cl1F1N2(1-)\OHZDE\09-Apr-2025\0\
 \#t hf aug-cc-pvdz iop(5/13=1,5/36=2,99/5=2) pseudo=read geom=check gu
 ess=(read,tcheck) scf=(maxcycle=1)\\title\\-1,1\C,0,-0.011412,-0.01142
 8,0.002811\C,0,-0.486992,0.037056,-1.448727\F,0,1.39357,0.098092,-0.00
 8624\H,0,-1.580808,-0.045413,-1.451694\H,0,-0.216377,1.016782,-1.85011
 7\N,0,-0.529006,1.15493,0.656073\H,0,-0.373198,1.06266,1.654707\H,0,-1
 .544227,1.160618,0.516268\C,0,-0.337981,-1.330646,0.676731\H,0,0.10992
 5,-2.172362,0.142882\H,0,-1.423426,-1.441557,0.714668\H,0,0.059496,-1.

 Normal termination of Gaussian 16 at Wed Apr  9 02:58:19 2025.
