 Gaussian 16, Revision C.01,

 ----------------------------------------------------------------------
 #t hf aug-cc-pvdz symm=none int=(grid=ultrafine) guess=(read,tcheck) s
 table=(opt,rrhf)
 ----------------------------------------------------------------------
 -----
 title
 -----
 Symbolic Z-matrix:
 Charge = -1 Multiplicity = 1

 SCF Done:  E(RHF) =  -836.245143954     A.U. after   16 cycles
 Normal termination of Gaussian 16 at Wed Apr  9 02:49:11 2025.
 Gaussian 16:  ES64L-G16RevC.01  3-Jul-2019

 ----------------------------------------------------------------------
 #t hf aug-cc-pvdz iop(5/13=1,5/36=2,99/5=2) pseudo=read geom=check gue
 ss=(read,tcheck) scf=(maxcycle=1)
 ----------------------------------------------------------------------
 -----
 title
 -----
 Structure from the checkpoint file:  "E2SN2_27_mol2.chk"
 Charge = -1 Multiplicity = 1

                         Standard orientation:
 ---------------------------------------------------------------------
 Center     Atomic      Atomic             Coordinates (Angstroms)
 Number     Number       Type             X           Y           Z
 ---------------------------------------------------------------------
      1          6           0       -0.194015   -0.143524   -0.572758
      2          6           0        1.262715   -0.358807   -0.201234
      3         17           0       -1.249035   -1.561218   -0.287273
      4          1           0        1.619573   -1.136084   -0.895983
      5          1           0       -0.261148    0.108710   -1.627475
      6          7           0       -0.807582    1.026335    0.144132
      7          8           0       -1.246711    1.936536   -0.553881
      8          8           0       -0.834709    0.998397    1.371902
      9          6           0        1.534861   -0.801480    1.227615
     10          1           0        2.590656   -1.078824    1.288099
     11          1           0        1.340301    0.005956    1.935884
     12          1           0        0.932665   -1.664996    1.520257
     13          7           0        1.918219    0.882582   -0.576792
     14          1           0        2.547371    0.583676   -1.375273
     15          1           0        2.516215    1.188931    0.183182
     16          1           0        3.203494   -0.485675   -2.382337
 ---------------------------------------------------------------------

 SCF Done:  E(RHF) =  -836.705759517     A.U. after    2 cycles

 The electronic state is 1-A.
 Alpha  occ. eigenvalues -- -105.47424 -20.48800 -20.48352 -15.67958 -15.33489
 Alpha  occ. eigenvalues --  -11.24865 -11.14827 -11.11421 -10.52275  -7.69226
 Alpha  occ. eigenvalues --   -7.68844  -7.68830  -1.55650  -1.39585  -1.09101
 Alpha  occ. eigenvalues --   -1.02527  -0.92546  -0.87810  -0.78527  -0.71698
 Alpha  occ. eigenvalues --   -0.65424  -0.63555  -0.61192  -0.55789  -0.53276
 Alpha  occ. eigenvalues --   -0.51487  -0.46757  -0.43539  -0.41602  -0.40241
 Alpha  occ. eigenvalues --   -0.38616  -0.37328  -0.36294  -0.36015  -0.33912
 Alpha  occ. eigenvalues --   -0.29890  -0.09883
 Alpha virt. eigenvalues --    0.12777   0.13639   0.14269   0.15468   0.15613
 Alpha virt. eigenvalues --    0.16371   0.17469   0.18648   0.21406   0.21644
 Alpha virt. eigenvalues --    0.22162   0.23407   0.24401   0.25642   0.25962

 Mulliken charges:
               1
     1  C   -0.067922
     2  C   -1.624126
     3  Cl  -0.088375
     4  H    0.137689
     5  H    0.182316
     6  N    2.963999
     7  O   -1.419926
     8  O   -1.511483
     9  C   -0.331776
    10  H    0.137880
    11  H    0.244822
    12  H    0.174452
    13  N    0.511502
    14  H    0.215194
    15  H    0.263977
    16  H   -0.788224
 Sum of Mulliken charges =  -1.00000

 Dipole moment (field-independent basis, Debye):
    X=             -8.7763    Y=             -0.6834    Z=              7.8667  Tot=             11.8057

 Test job not archived.
 1\1\GINC-SE453\SP\RHF\Aug-CC-pVDZ\C3H8Cl1N2O2(1-)\OHZDE\09-Apr-2025\0\
 \#t hf aug-cc-pvdz iop(5/13=1,5/36=2,99/5=2) pseudo=read geom=check gu
 ess=(read,tcheck) scf=(maxcycle=1)\\title\\-1,1\C,0,-0.478001,-0.12700
 2,-1.479649\C,0,0.033735,-0.147764,-0.049917\Cl,0,-0.36474,-1.697992,-
 2.330288\H,0,1.111843,-0.357468,-0.138742\H,0,0.091532,0.598936,-2.053
 412\N,0,-1.904398,0.336468,-1.577394\O,0,-2.116573,1.340171,-2.252734\
 O,0,-2.761899,-0.31304,-0.984295\C,0,-0.600626,-1.172031,0.877497\H,0,
 -0.016069,-1.182351,1.80133\H,0,-1.632205,-0.90563,1.114827\H,0,-0.596

 Normal termination of Gaussian 16 at Wed Apr  9 02:49:18 2025.
