 Gaussian 16, Revision C.01,

 ----------------------------------------------------------------------
 #t hf aug-cc-pvdz symm=none int=(grid=ultrafine) guess=(read,tcheck) s
 table=(opt,rrhf)
 ----------------------------------------------------------------------
 -----
 title
 -----
 Symbolic Z-matrix:
 Charge = -1 Multiplicity = 1

 SCF Done:  E(RHF) =  -891.283369034     A.U. after   18 cycles
 Normal termination of Gaussian 16 at Wed Apr  9 03:00:48 2025.
 Gaussian 16:  ES64L-G16RevC.01  3-Jul-2019

 ----------------------------------------------------------------------
 #t hf aug-cc-pvdz iop(5/13=1,5/36=2,99/5=2) pseudo=read geom=check gue
 ss=(read,tcheck) scf=(maxcycle=1)
 ----------------------------------------------------------------------
 -----
 title
 -----
 Structure from the checkpoint file:  "E2SN2_49_mol2.chk"
 Charge = -1 Multiplicity = 1

                         Standard orientation:
 ---------------------------------------------------------------------
 Center     Atomic      Atomic             Coordinates (Angstroms)
 Number     Number       Type             X           Y           Z
 ---------------------------------------------------------------------
      1          6           0       -0.116385    0.193984    0.282471
      2          6           0        1.218350   -0.209186   -0.320201
      3         17           0       -0.718589    1.782994   -0.498240
      4          1           0        1.116804   -0.177092   -1.410385
      5          7           0       -1.193529   -0.802178   -0.142538
      6          8           0       -1.234743   -1.098505   -1.323910
      7          8           0       -1.972334   -1.189356    0.725726
      8          7           0       -0.098191    0.262787    1.679883
      9          1           0        0.527179    0.996185    1.982113
     10          1           0       -1.024622    0.386355    2.064278
     11          7           0        1.435768   -1.597415    0.035989
     12          1           0        2.230013   -1.888507   -0.595668
     13          1           0        1.793348   -1.626978    0.987006
     14          6           0        2.352740    0.729073    0.087247
     15          1           0        3.235267    0.355001   -0.438693
     16          1           0        2.168671    1.774881   -0.179702
     17          1           0        2.550257    0.655488    1.163349
     18          1           0        3.539144   -1.808924   -1.627188
 ---------------------------------------------------------------------

 SCF Done:  E(RHF) =  -891.802750702     A.U. after    2 cycles

 The electronic state is 1-A.
 Alpha  occ. eigenvalues -- -105.46625 -20.48874 -20.48830 -15.68535 -15.42876
 Alpha  occ. eigenvalues --  -15.33344 -11.29749 -11.15402 -11.11062 -10.51486
 Alpha  occ. eigenvalues --   -7.68405  -7.68059  -7.68047  -1.56342  -1.40382
 Alpha  occ. eigenvalues --   -1.17436  -1.05609  -0.99523  -0.92224  -0.88036
 Alpha  occ. eigenvalues --   -0.78024  -0.71988  -0.68738  -0.64797  -0.63818
 Alpha  occ. eigenvalues --   -0.61521  -0.56066  -0.54781  -0.49073  -0.48423
 Alpha  occ. eigenvalues --   -0.45063  -0.44055  -0.39871  -0.39315  -0.38160
 Alpha  occ. eigenvalues --   -0.37841  -0.36094  -0.35291  -0.34091  -0.30131
 Alpha  occ. eigenvalues --   -0.08926
 Alpha virt. eigenvalues --    0.11016   0.12610   0.13446   0.14883   0.15124
 Alpha virt. eigenvalues --    0.16136   0.16998   0.17388   0.19737   0.20042
 Alpha virt. eigenvalues --    0.22163   0.22584   0.23026   0.23570   0.24148

 Mulliken charges:
               1
     1  C   -2.449966
     2  C   -1.236591
     3  Cl  -0.063034
     4  H    0.196222
     5  N    3.439617
     6  O   -1.638108
     7  O   -1.546107
     8  N    0.849826
     9  H    0.298428
    10  H    0.307949
    11  N    0.676100
    12  H    0.127946
    13  H    0.306188
    14  C    0.057766
    15  H    0.121334
    16  H    0.224676
    17  H    0.139361
    18  H   -0.811608
 Sum of Mulliken charges =  -1.00000

 Dipole moment (field-independent basis, Debye):
    X=             -9.6111    Y=              9.2925    Z=              7.8806  Tot=             15.5186

 Test job not archived.
 1\1\GINC-SE455\SP\RHF\Aug-CC-pVDZ\C3H9Cl1N3O2(1-)\OHZDE\09-Apr-2025\0\
 \#t hf aug-cc-pvdz iop(5/13=1,5/36=2,99/5=2) pseudo=read geom=check gu
 ess=(read,tcheck) scf=(maxcycle=1)\\title\\-1,1\C,0,-0.732316,0.08552,
 -1.489189\C,0,0.12702,0.086337,-0.236664\Cl,0,-0.179267,1.445872,-2.64
 7072\H,0,1.17635,0.10064,-0.550583\N,0,-0.444892,-1.171351,-2.308258\O
 ,0,0.726354,-1.453595,-2.491746\O,0,-1.412483,-1.774316,-2.767091\N,0,
 -2.104823,0.140656,-1.222716\H,0,-2.336294,1.018343,-0.779557\H,0,-2.6
 57763,-0.009303,-2.055227\N,0,-0.092222,-1.186362,0.421738\H,0,0.69041

 Normal termination of Gaussian 16 at Wed Apr  9 03:00:58 2025.
