 Gaussian 16, Revision C.01,

 ----------------------------------------------------------------------
 #t hf aug-cc-pvdz symm=none int=(grid=ultrafine) guess=(read,tcheck) s
 table=(opt,rrhf)
 ----------------------------------------------------------------------
 -----
 title
 -----
 Symbolic Z-matrix:
 Charge = -1 Multiplicity = 1

 SCF Done:  E(RHF) =  -1042.92126786     A.U. after   17 cycles
 Normal termination of Gaussian 16 at Wed Apr  9 02:47:02 2025.
 Gaussian 16:  ES64L-G16RevC.01  3-Jul-2019

 ----------------------------------------------------------------------
 #t hf aug-cc-pvdz iop(5/13=1,5/36=2,99/5=2) pseudo=read geom=check gue
 ss=(read,tcheck) scf=(maxcycle=1)
 ----------------------------------------------------------------------
 -----
 title
 -----
 Structure from the checkpoint file:  "E2SN2_243_mol1.chk"
 Charge = -1 Multiplicity = 1

                         Standard orientation:
 ---------------------------------------------------------------------
 Center     Atomic      Atomic             Coordinates (Angstroms)
 Number     Number       Type             X           Y           Z
 ---------------------------------------------------------------------
      1          6           0       -0.132230    0.092059   -0.294252
      2          1           0        0.900795    1.366589    1.087652
      3          9           0        0.742423   -1.542305   -0.690947
      4         17           0       -1.423069    1.782022    0.357942
      5          6           0        1.031025    0.365833    0.675115
      6          7           0       -1.296500   -0.856795   -0.006289
      7          8           0       -1.438278   -1.314781    1.112887
      8          8           0       -2.019976   -1.080490   -0.968822
      9          7           0        0.024407    0.555877   -1.609122
     10          1           0       -0.869882    0.850546   -1.973665
     11          1           0        0.383324   -0.233270   -2.134198
     12          6           0        2.276107    0.415036   -0.131584
     13          7           0        3.348303    0.505259   -0.604614
     14          7           0        1.139216   -0.574466    1.777163
     15          1           0        2.012661   -0.390654    2.257780
     16          1           0        1.192104   -1.491360    1.347785
 ---------------------------------------------------------------------

 SCF Done:  E(RHF) =  -1043.56648572     A.U. after    2 cycles

 The electronic state is 1-A.
 Alpha  occ. eigenvalues -- -105.36785 -26.19918 -20.45906 -20.45696 -15.66860
 Alpha  occ. eigenvalues --  -15.39413 -15.39310 -15.38319 -11.32872 -11.21257
 Alpha  occ. eigenvalues --  -11.16949 -10.41635  -7.58475  -7.58281  -7.58265
 Alpha  occ. eigenvalues --   -1.53908  -1.37759  -1.28795  -1.13283  -1.10541
 Alpha  occ. eigenvalues --   -1.08168  -0.95048  -0.88257  -0.83255  -0.72117
 Alpha  occ. eigenvalues --   -0.66717  -0.63654  -0.62412  -0.61178  -0.60374
 Alpha  occ. eigenvalues --   -0.59561  -0.52968  -0.49865  -0.48876  -0.42478
 Alpha  occ. eigenvalues --   -0.39905  -0.39014  -0.37268  -0.36759  -0.36131
 Alpha  occ. eigenvalues --   -0.35238  -0.34360  -0.33122  -0.31984  -0.28704
 Alpha  occ. eigenvalues --   -0.28632  -0.28382
 Alpha virt. eigenvalues --    0.12878   0.14028   0.14532   0.16614   0.16649
 Alpha virt. eigenvalues --    0.17752   0.18275   0.20534   0.21766   0.22623
 Alpha virt. eigenvalues --    0.23261   0.24310   0.24812   0.25486   0.26515

 Mulliken charges:
               1
     1  C   -1.876152
     2  H    0.212022
     3  F   -0.882625
     4  Cl  -0.505438
     5  C   -0.281945
     6  N    3.549712
     7  O   -1.607314
     8  O   -1.575977
     9  N    0.911632
    10  H    0.320069
    11  H    0.398633
    12  C   -1.842463
    13  N    1.079944
    14  N    0.646918
    15  H    0.144169
    16  H    0.308813
 Sum of Mulliken charges =  -1.00000

 Dipole moment (field-independent basis, Debye):
    X=              0.0371    Y=              0.1124    Z=              0.7915  Tot=              0.8003

 Test job not archived.
 1\1\GINC-SE229\SP\RHF\Aug-CC-pVDZ\C3H5Cl1F1N4O2(1-)\OHZDE\09-Apr-2025\
 0\\#t hf aug-cc-pvdz iop(5/13=1,5/36=2,99/5=2) pseudo=read geom=check
 guess=(read,tcheck) scf=(maxcycle=1)\\title\\-1,1\C,0,0.76651651,-0.02
 43716,0.0030107\H,0,1.74474561,1.87385162,0.20560303\F,0,-1.12038793,0
 .05531831,-0.16060369\Cl,0,2.97303584,-0.23458938,-0.18322011\C,0,0.73
 093714,1.51375854,0.02900809\N,0,0.61847011,-0.87437285,-1.25966549\O,
 0,0.64020134,-0.33880193,-2.3528708\O,0,0.48905078,-2.07444849,-1.0523
 0875\N,0,0.68418973,-0.67488763,1.24341222\H,0,1.24355297,-1.51523848,

 Normal termination of Gaussian 16 at Wed Apr  9 02:47:13 2025.
