 Gaussian 16, Revision C.01,

 ----------------------------------------------------------------------
 #t hf aug-cc-pvdz symm=none int=(grid=ultrafine) guess=(read,tcheck) s
 table=(opt,rrhf)
 ----------------------------------------------------------------------
 -----
 title
 -----
 Symbolic Z-matrix:
 Charge = -1 Multiplicity = 1

 SCF Done:  E(RHF) =  -852.257228304     A.U. after   17 cycles
 Normal termination of Gaussian 16 at Wed Apr  9 02:35:08 2025.
 Gaussian 16:  ES64L-G16RevC.01  3-Jul-2019

 ----------------------------------------------------------------------
 #t hf aug-cc-pvdz iop(5/13=1,5/36=2,99/5=2) pseudo=read geom=check gue
 ss=(read,tcheck) scf=(maxcycle=1)
 ----------------------------------------------------------------------
 -----
 title
 -----
 Structure from the checkpoint file:  "E2SN2_119_mol1.chk"
 Charge = -1 Multiplicity = 1

                         Standard orientation:
 ---------------------------------------------------------------------
 Center     Atomic      Atomic             Coordinates (Angstroms)
 Number     Number       Type             X           Y           Z
 ---------------------------------------------------------------------
      1          6           0        0.868072    0.080825    0.605254
      2          6           0       -0.393659    0.694366    0.056173
      3         17           0        1.478503   -1.250658   -0.509462
      4          1           0       -0.320005    2.847596    1.264558
      5          1           0       -0.555081    1.653847    0.812141
      6          1           0        0.666885   -0.422023    1.546788
      7          7           0        1.932392    1.042190    0.774147
      8          1           0        1.493196    1.816810    1.286459
      9          1           0        2.135272    1.429721   -0.143042
     10          7           0       -0.317136    1.320829   -1.207890
     11          1           0        0.360219    0.903951   -1.831438
     12          1           0       -0.146365    2.312634   -1.065550
     13          7           0       -1.539028   -0.217109    0.188350
     14          8           0       -2.444795   -0.203199   -0.648503
     15          8           0       -1.573798   -0.916034    1.216019
 ---------------------------------------------------------------------

 SCF Done:  E(RHF) =  -852.734204585     A.U. after    2 cycles

 The electronic state is 1-A.
 Alpha  occ. eigenvalues -- -105.43218 -20.44190 -20.43512 -15.63350 -15.37474
 Alpha  occ. eigenvalues --  -15.36729 -11.21150 -11.16132 -10.48106  -7.65022
 Alpha  occ. eigenvalues --   -7.64693  -7.64688  -1.50556  -1.34214  -1.12059
 Alpha  occ. eigenvalues --   -1.06353  -0.95098  -0.92198  -0.78112  -0.68941
 Alpha  occ. eigenvalues --   -0.63608  -0.62031  -0.60523  -0.57950  -0.56370
 Alpha  occ. eigenvalues --   -0.53923  -0.49754  -0.43999  -0.38748  -0.36433
 Alpha  occ. eigenvalues --   -0.35991  -0.34007  -0.33337  -0.32767  -0.30882
 Alpha  occ. eigenvalues --   -0.30335  -0.12951
 Alpha virt. eigenvalues --    0.13471   0.14875   0.15113   0.16144   0.17397
 Alpha virt. eigenvalues --    0.17708   0.19257   0.20214   0.21312   0.22929
 Alpha virt. eigenvalues --    0.24377   0.26136   0.26446   0.26900   0.27261

 Mulliken charges:
               1
     1  C   -0.742723
     2  C   -2.522333
     3  Cl  -0.118321
     4  H   -0.446745
     5  H    0.079871
     6  H    0.190157
     7  N    0.468804
     8  H    0.202497
     9  H    0.263441
    10  N    1.012234
    11  H    0.185435
    12  H    0.303295
    13  N    3.150597
    14  O   -1.453302
    15  O   -1.572907
 Sum of Mulliken charges =  -1.00000

 Dipole moment (field-independent basis, Debye):
    X=              3.4375    Y=             -3.8785    Z=             -3.3264  Tot=              6.1583

 Test job not archived.
 1\1\GINC-SE165\SP\RHF\Aug-CC-pVDZ\C2H7Cl1N3O2(1-)\OHZDE\09-Apr-2025\0\
 \#t hf aug-cc-pvdz iop(5/13=1,5/36=2,99/5=2) pseudo=read geom=check gu
 ess=(read,tcheck) scf=(maxcycle=1)\\title\\-1,1\C,0,-0.21058346,0.0263
 4739,-0.37150823\C,0,-0.04475323,0.05884734,1.1255997\Cl,0,1.41790298,
 -0.20317219,-1.19819795\H,0,-2.35820662,-0.51796213,1.77154426\H,0,-1.
 21596329,0.03941751,1.50774842\H,0,-0.56845036,0.98549638,-0.73452826\
 N,0,-1.08807126,-1.03086457,-0.81630688\H,0,-1.92302661,-0.93016778,-0
 .22630531\H,0,-0.67394365,-1.90984585,-0.51887321\N,0,0.49037181,-1.09

 Normal termination of Gaussian 16 at Wed Apr  9 02:35:17 2025.
