 Gaussian 16, Revision C.01,

 ----------------------------------------------------------------------
 #t hf aug-cc-pvdz symm=none int=(grid=ultrafine) guess=(read,tcheck) s
 table=(opt,rrhf)
 ----------------------------------------------------------------------
 -----
 title
 -----
 Symbolic Z-matrix:
 Charge = -1 Multiplicity = 1

 SCF Done:  E(RHF) =  -1083.65188018     A.U. after   16 cycles
 Normal termination of Gaussian 16 at Wed Apr  9 02:40:01 2025.
 Gaussian 16:  ES64L-G16RevC.01  3-Jul-2019

 ----------------------------------------------------------------------
 #t hf aug-cc-pvdz iop(5/13=1,5/36=2,99/5=2) pseudo=read geom=check gue
 ss=(read,tcheck) scf=(maxcycle=1)
 ----------------------------------------------------------------------
 -----
 title
 -----
 Structure from the checkpoint file:  "E2SN2_171_mol1.chk"
 Charge = -1 Multiplicity = 1

                         Standard orientation:
 ---------------------------------------------------------------------
 Center     Atomic      Atomic             Coordinates (Angstroms)
 Number     Number       Type             X           Y           Z
 ---------------------------------------------------------------------
      1          6           0        0.599084    0.299029   -0.482873
      2          1           0       -0.362551    1.400995    1.023264
      3         17           0       -0.035276   -1.679560   -1.081863
      4          9           0        1.370081    1.984450   -0.198011
      5          6           0       -0.665247    0.882743    0.117602
      6          1           0        0.891010    0.487625   -1.496480
      7          7           0        1.692595   -0.178434    0.391441
      8          8           0        1.485406   -0.212587    1.598715
      9          8           0        2.735695   -0.492886   -0.166741
     10          7           0       -1.690852   -0.120754    0.608528
     11          8           0       -2.717768   -0.279009   -0.048275
     12          8           0       -1.457899   -0.667038    1.682624
     13          6           0       -1.310168    1.816197   -0.886332
     14          1           0       -0.570194    2.575320   -1.125103
     15          1           0       -1.602437    1.266833   -1.781903
     16          1           0       -2.204557    2.280359   -0.466776
 ---------------------------------------------------------------------

 SCF Done:  E(RHF) =  -1084.32930441     A.U. after    2 cycles

 The electronic state is 1-A.
 Alpha  occ. eigenvalues -- -105.37481 -26.18849 -20.46672 -20.46595 -20.45979
 Alpha  occ. eigenvalues --  -20.45747 -15.66735 -15.66137 -11.28912 -11.20838
 Alpha  occ. eigenvalues --  -11.13107 -10.42310  -7.59164  -7.58943  -7.58933
 Alpha  occ. eigenvalues --   -1.53868  -1.53600  -1.37707  -1.37430  -1.27036
 Alpha  occ. eigenvalues --   -1.05318  -0.97586  -0.86439  -0.84361  -0.77216
 Alpha  occ. eigenvalues --   -0.71389  -0.67453  -0.64979  -0.63158  -0.62072
 Alpha  occ. eigenvalues --   -0.60850  -0.59856  -0.51300  -0.47811  -0.46739
 Alpha  occ. eigenvalues --   -0.43206  -0.40396  -0.37764  -0.37376  -0.36268
 Alpha  occ. eigenvalues --   -0.35242  -0.34450  -0.34351  -0.32737  -0.31624
 Alpha  occ. eigenvalues --   -0.29243  -0.28825  -0.27325
 Alpha virt. eigenvalues --    0.12256   0.13576   0.14852   0.15528   0.16366
 Alpha virt. eigenvalues --    0.17771   0.18417   0.20513   0.21627   0.22110
 Alpha virt. eigenvalues --    0.23214   0.24464   0.25708   0.26023   0.26715

 Mulliken charges:
               1
     1  C   -0.144716
     2  H    0.353884
     3  Cl  -0.585029
     4  F   -0.880422
     5  C   -0.586298
     6  H    0.001645
     7  N    3.262506
     8  O   -1.479790
     9  O   -1.565718
    10  N    2.949433
    11  O   -1.476764
    12  O   -1.467308
    13  C   -0.150584
    14  H    0.302422
    15  H    0.313628
    16  H    0.153111
 Sum of Mulliken charges =  -1.00000

 Dipole moment (field-independent basis, Debye):
    X=             -2.9370    Y=              2.4651    Z=             -0.7960  Tot=              3.9161

 Test job not archived.
 1\1\GINC-SE461\SP\RHF\Aug-CC-pVDZ\C3H5Cl1F1N2O4(1-)\OHZDE\09-Apr-2025\
 0\\#t hf aug-cc-pvdz iop(5/13=1,5/36=2,99/5=2) pseudo=read geom=check
 guess=(read,tcheck) scf=(maxcycle=1)\\title\\-1,1\C,0,0.33436877,-0.03
 031295,0.07415322\H,0,1.52611575,1.59199163,0.67029603\Cl,0,-1.7375208
 2,-0.2456467,0.65460119\F,0,2.0828829,-0.11552812,-0.59790446\C,0,0.55
 699907,1.46482725,0.19587445\H,0,0.09791837,-0.49938458,-0.85979044\N,
 0,0.85175348,-0.95160035,1.1093847\O,0,1.33707067,-0.45951009,2.121274
 43\O,0,0.76495778,-2.14769198,0.86375586\N,0,-0.39097757,2.20334112,1.

 Normal termination of Gaussian 16 at Wed Apr  9 02:40:10 2025.
