 Gaussian 16, Revision C.01,

 ----------------------------------------------------------------------
 #t hf aug-cc-pvdz symm=none int=(grid=ultrafine) guess=(read,tcheck) s
 table=(opt,rrhf)
 ----------------------------------------------------------------------
 -----
 title
 -----
 Symbolic Z-matrix:
 Charge = -1 Multiplicity = 1

 SCF Done:  E(RHF) =  -583.953666789     A.U. after   18 cycles
 Normal termination of Gaussian 16 at Wed Apr  9 02:59:46 2025.
 Gaussian 16:  ES64L-G16RevC.01  3-Jul-2019

 ----------------------------------------------------------------------
 #t hf aug-cc-pvdz iop(5/13=1,5/36=2,99/5=2) pseudo=read geom=check gue
 ss=(read,tcheck) scf=(maxcycle=1)
 ----------------------------------------------------------------------
 -----
 title
 -----
 Structure from the checkpoint file:  "E2SN2_408_mol2.chk"
 Charge = -1 Multiplicity = 1

                         Standard orientation:
 ---------------------------------------------------------------------
 Center     Atomic      Atomic             Coordinates (Angstroms)
 Number     Number       Type             X           Y           Z
 ---------------------------------------------------------------------
      1          6           0       -1.059114   -0.324062    0.177289
      2          6           0        0.203197    0.203793   -0.544706
      3          9           0       -0.942931   -0.024942    1.530724
      4          1           0        0.007361   -0.079997   -1.611983
      5          7           0       -2.241338    0.310581   -0.313561
      6          1           0       -2.178854    1.317873   -0.198487
      7          1           0       -2.250882    0.081185   -1.323587
      8          7           0       -1.080225   -1.735448   -0.004004
      9          1           0       -1.078797   -1.861448   -1.028002
     10          1           0       -1.992920   -2.041973    0.320728
     11          7           0        1.443965   -0.479136   -0.064702
     12          8           0        1.991462   -0.026909    0.941260
     13          8           0        1.821867   -1.456729   -0.702989
     14          6           0        0.348439    1.639196   -0.376653
     15          7           0        0.421982    2.808271   -0.285104
     16          1           0       -1.291983   -0.765505   -2.705343
 ---------------------------------------------------------------------

 SCF Done:  E(RHF) =  -584.523614860     A.U. after    2 cycles

 The electronic state is 1-A.
 Alpha  occ. eigenvalues --  -26.34145 -20.48542 -20.48266 -15.68196 -15.42757
 Alpha  occ. eigenvalues --  -15.37735 -15.37472 -11.28464 -11.22088 -11.19796
 Alpha  occ. eigenvalues --   -1.55459  -1.47437  -1.39397  -1.14578  -1.12540
 Alpha  occ. eigenvalues --   -1.03921  -1.02973  -0.83166  -0.75600  -0.69773
 Alpha  occ. eigenvalues --   -0.67360  -0.65169  -0.62653  -0.60286  -0.59472
 Alpha  occ. eigenvalues --   -0.55992  -0.54085  -0.51549  -0.50675  -0.46560
 Alpha  occ. eigenvalues --   -0.45623  -0.41679  -0.39891  -0.39015  -0.37860
 Alpha  occ. eigenvalues --   -0.35999  -0.34271  -0.33569  -0.13398
 Alpha virt. eigenvalues --    0.13653   0.14619   0.15641   0.16766   0.17440
 Alpha virt. eigenvalues --    0.18061   0.19116   0.19463   0.20537   0.21975
 Alpha virt. eigenvalues --    0.22808   0.23394   0.24047   0.24575   0.25290

 Mulliken charges:
               1
     1  C   -1.584703
     2  C    0.221459
     3  F   -0.995086
     4  H    0.320785
     5  N    0.579419
     6  H    0.273984
     7  H    0.293200
     8  N    0.780233
     9  H    0.369710
    10  H    0.259832
    11  N    2.817079
    12  O   -1.420930
    13  O   -1.429871
    14  C   -1.758478
    15  N    1.012828
    16  H   -0.739460
 Sum of Mulliken charges =  -1.00000

 Dipole moment (field-independent basis, Debye):
    X=              0.9067    Y=              0.2676    Z=              5.0106  Tot=              5.0990

 Test job not archived.
 1\1\GINC-SE342\SP\RHF\Aug-CC-pVDZ\C3H6F1N4O2(1-)\OHZDE\09-Apr-2025\0\\
 #t hf aug-cc-pvdz iop(5/13=1,5/36=2,99/5=2) pseudo=read geom=check gue
 ss=(read,tcheck) scf=(maxcycle=1)\\title\\-1,1\C,0,-0.00803,-0.019052,
 0.007338\C,0,-0.49604,-0.076426,-1.459595\F,0,1.382906,-0.013151,0.002
 903\H,0,-1.611579,-0.071487,-1.343333\N,0,-0.450915,1.174808,0.655343\
 H,0,-0.122184,1.994984,0.154314\H,0,-1.483832,1.127447,0.594462\N,0,-0
 .482673,-1.197782,0.648145\H,0,-1.506587,-1.159464,0.527395\H,0,-0.306
 259,-1.063195,1.639702\N,0,-0.069009,-1.338857,-2.137985\O,0,1.051283,

 Normal termination of Gaussian 16 at Wed Apr  9 02:59:54 2025.
