 Gaussian 16, Revision C.01,

 ----------------------------------------------------------------------
 #t hf aug-cc-pvdz symm=none int=(grid=ultrafine) guess=(read,tcheck) s
 table=(opt,rrhf)
 ----------------------------------------------------------------------
 -----
 title
 -----
 Symbolic Z-matrix:
 Charge = -1 Multiplicity = 1

 SCF Done:  E(RHF) =  -575.115566325     A.U. after   16 cycles
 Normal termination of Gaussian 16 at Wed Apr  9 02:58:54 2025.
 Gaussian 16:  ES64L-G16RevC.01  3-Jul-2019

 ----------------------------------------------------------------------
 #t hf aug-cc-pvdz iop(5/13=1,5/36=2,99/5=2) pseudo=read geom=check gue
 ss=(read,tcheck) scf=(maxcycle=1)
 ----------------------------------------------------------------------
 -----
 title
 -----
 Structure from the checkpoint file:  "E2SN2_400_mol1.chk"
 Charge = -1 Multiplicity = 1

                         Standard orientation:
 ---------------------------------------------------------------------
 Center     Atomic      Atomic             Coordinates (Angstroms)
 Number     Number       Type             X           Y           Z
 ---------------------------------------------------------------------
      1          6           0       -0.904003    0.095114    0.003061
      2          1           0        0.176195   -1.665632   -0.595201
      3          9           0        0.184639    1.521476    0.442933
      4          9           0       -1.908653   -1.286467   -0.560325
      5          6           0        0.274647   -0.587253   -0.681483
      6          1           0        0.277811   -0.266085   -1.718447
      7          7           0       -1.695784    0.992526   -0.798321
      8          1           0       -1.614590    1.903726   -0.371584
      9          1           0       -2.642628    0.642826   -0.782174
     10          6           0       -1.209429   -0.150478    1.466446
     11          1           0       -2.133778   -0.720080    1.552780
     12          1           0       -0.392465   -0.705565    1.928431
     13          1           0       -1.290426    0.809330    1.973328
     14          7           0        1.627027   -0.274868   -0.137956
     15          8           0        2.429544    0.305065   -0.865803
     16          8           0        1.901708   -0.715253    0.977701
 ---------------------------------------------------------------------

 SCF Done:  E(RHF) =  -575.678345754     A.U. after    2 cycles

 The electronic state is 1-A.
 Alpha  occ. eigenvalues --  -26.17088 -26.15057 -20.43756 -20.43371 -15.63259
 Alpha  occ. eigenvalues --  -15.34320 -11.23557 -11.15012 -11.08134  -1.50763
 Alpha  occ. eigenvalues --   -1.34492  -1.26248  -1.23759  -1.04129  -0.97077
 Alpha  occ. eigenvalues --   -0.85467  -0.75808  -0.67118  -0.60405  -0.60209
 Alpha  occ. eigenvalues --   -0.57543  -0.56194  -0.52017  -0.47030  -0.45316
 Alpha  occ. eigenvalues --   -0.43983  -0.39025  -0.37202  -0.34149  -0.33103
 Alpha  occ. eigenvalues --   -0.32936  -0.31962  -0.31504  -0.31156  -0.30241
 Alpha  occ. eigenvalues --   -0.29127  -0.28032
 Alpha virt. eigenvalues --    0.13741   0.14354   0.15042   0.15624   0.16146
 Alpha virt. eigenvalues --    0.16847   0.17608   0.21434   0.22840   0.23252
 Alpha virt. eigenvalues --    0.24640   0.25923   0.26444   0.27330   0.27483

 Mulliken charges:
               1
     1  C   -0.896562
     2  H    0.258904
     3  F   -0.945043
     4  F   -0.930034
     5  C   -0.355331
     6  H    0.165930
     7  N    0.663863
     8  H    0.325422
     9  H    0.304814
    10  C   -0.206317
    11  H    0.216387
    12  H    0.226562
    13  H    0.206803
    14  N    2.956944
    15  O   -1.484977
    16  O   -1.507366
 Sum of Mulliken charges =  -1.00000

 Dipole moment (field-independent basis, Debye):
    X=             -1.2343    Y=             -0.9040    Z=              0.5085  Tot=              1.6122

 Test job not archived.
 1\1\GINC-SE023\SP\RHF\Aug-CC-pVDZ\C3H7F2N2O2(1-)\OHZDE\09-Apr-2025\0\\
 #t hf aug-cc-pvdz iop(5/13=1,5/36=2,99/5=2) pseudo=read geom=check gue
 ss=(read,tcheck) scf=(maxcycle=1)\\title\\-1,1\C,0,0.68405497,-0.08707
 977,0.06753812\H,0,1.81131036,1.62621669,0.71474855\F,0,-1.1448853,0.1
 265046,0.21753498\F,0,2.46394708,-0.18394191,-0.17348752\C,0,0.8675087
 ,1.41856463,0.21860625\H,0,0.83342575,1.8509449,-0.77655165\N,0,0.4800
 1092,-0.59056595,-1.26638317\H,0,-0.43247702,-1.0222047,-1.27233819\H,
 0,1.22032425,-1.25273623,-1.44674633\C,0,0.69744981,-1.0029078,1.27425

 Normal termination of Gaussian 16 at Wed Apr  9 02:59:01 2025.
