 Gaussian 16, Revision C.01,

 ----------------------------------------------------------------------
 #t hf aug-cc-pvdz symm=none int=(grid=ultrafine) guess=(read,tcheck) s
 table=(opt,rrhf)
 ----------------------------------------------------------------------
 -----
 title
 -----
 Symbolic Z-matrix:
 Charge = -1 Multiplicity = 1

 SCF Done:  E(RHF) =  -821.107410432     A.U. after   15 cycles
 Normal termination of Gaussian 16 at Wed Apr  9 02:46:06 2025.
 Gaussian 16:  ES64L-G16RevC.01  3-Jul-2019

 ----------------------------------------------------------------------
 #t hf aug-cc-pvdz iop(5/13=1,5/36=2,99/5=2) pseudo=read geom=check gue
 ss=(read,tcheck) scf=(maxcycle=1)
 ----------------------------------------------------------------------
 -----
 title
 -----
 Structure from the checkpoint file:  "E2SN2_248_mol2.chk"
 Charge = -1 Multiplicity = 1

                         Standard orientation:
 ---------------------------------------------------------------------
 Center     Atomic      Atomic             Coordinates (Angstroms)
 Number     Number       Type             X           Y           Z
 ---------------------------------------------------------------------
      1          6           0       -0.328941   -0.138488   -0.248306
      2          6           0        0.583333    0.684005    0.650888
      3         17           0        0.097063   -1.905917   -0.290913
      4          1           0        0.173680    1.709017    0.331762
      5          1           0       -0.258005    0.255714   -1.257239
      6          1           0        0.413053    0.455153    1.705691
      7          6           0       -1.714387   -0.020635    0.198330
      8          7           0       -2.816361   -0.059232    0.601427
      9          6           0        1.987175    0.528168    0.325234
     10          7           0        3.132060    0.435888    0.074840
     11          9           0       -0.816864    2.336202   -0.680605
 ---------------------------------------------------------------------

 SCF Done:  E(RHF) =  -821.528459424     A.U. after    2 cycles

 The electronic state is 1-A.
 Alpha  occ. eigenvalues -- -105.45758 -26.11156 -15.39583 -15.39537 -11.23157
 Alpha  occ. eigenvalues --  -11.17297 -11.17241 -11.14640 -10.50593  -7.67532
 Alpha  occ. eigenvalues --   -7.67163  -7.67156  -1.17968  -1.10592  -1.09940
 Alpha  occ. eigenvalues --   -1.02739  -0.91209  -0.81151  -0.61816  -0.57956
 Alpha  occ. eigenvalues --   -0.53858  -0.49673  -0.48902  -0.47235  -0.44849
 Alpha  occ. eigenvalues --   -0.38445  -0.37428  -0.37290  -0.36646  -0.34844
 Alpha  occ. eigenvalues --   -0.34052  -0.27559  -0.27445  -0.25324
 Alpha virt. eigenvalues --    0.13544   0.15218   0.16768   0.17569   0.17805
 Alpha virt. eigenvalues --    0.19773   0.21484   0.22858   0.23907   0.24047
 Alpha virt. eigenvalues --    0.24889   0.25495   0.26294   0.26869   0.27256

 Mulliken charges:
               1
     1  C   -0.305982
     2  C    0.214747
     3  Cl  -0.133383
     4  H    0.623285
     5  H    0.362064
     6  H    0.188276
     7  C   -1.222028
     8  N    0.876178
     9  C   -1.493923
    10  N    0.829231
    11  F   -0.938464
 Sum of Mulliken charges =  -1.00000

 Dipole moment (field-independent basis, Debye):
    X=              1.5778    Y=             -5.4803    Z=              1.5096  Tot=              5.8993

 Test job not archived.
 1\1\GINC-SE015\SP\RHF\Aug-CC-pVDZ\C4H3Cl1F1N2(1-)\OHZDE\09-Apr-2025\0\
 \#t hf aug-cc-pvdz iop(5/13=1,5/36=2,99/5=2) pseudo=read geom=check gu
 ess=(read,tcheck) scf=(maxcycle=1)\\title\\-1,1\C,0,-0.034895,0.006976
 ,0.010933\C,0,-0.567744,-0.22062,-1.396746\Cl,0,1.774975,-0.12379,0.13
 0813\H,0,-1.678428,-0.239097,-1.102901\H,0,-0.476582,-0.736936,0.66658
 6\H,0,-0.305431,0.607473,-2.059642\C,0,-0.422398,1.332106,0.48707\N,0,
 -0.598397,2.433034,0.854909\C,0,-0.130374,-1.47822,-1.969685\N,0,0.193
 572,-2.498551,-2.45544\F,0,-2.581112,-0.205012,0.155441\\Version=ES64L

 Normal termination of Gaussian 16 at Wed Apr  9 02:46:11 2025.
