 Gaussian 16, Revision C.01,

 ----------------------------------------------------------------------
 #t hf aug-cc-pvdz symm=none int=(grid=ultrafine) guess=(read,tcheck) s
 table=(opt,rrhf)
 ----------------------------------------------------------------------
 -----
 title
 -----
 Symbolic Z-matrix:
 Charge = -1 Multiplicity = 1

 SCF Done:  E(RHF) =  -1099.64295270     A.U. after   16 cycles
 Normal termination of Gaussian 16 at Wed Apr  9 02:56:57 2025.
 Gaussian 16:  ES64L-G16RevC.01  3-Jul-2019

 ----------------------------------------------------------------------
 #t hf aug-cc-pvdz iop(5/13=1,5/36=2,99/5=2) pseudo=read geom=check gue
 ss=(read,tcheck) scf=(maxcycle=1)
 ----------------------------------------------------------------------
 -----
 title
 -----
 Structure from the checkpoint file:  "E2SN2_366_mol1.chk"
 Charge = -1 Multiplicity = 1

                         Standard orientation:
 ---------------------------------------------------------------------
 Center     Atomic      Atomic             Coordinates (Angstroms)
 Number     Number       Type             X           Y           Z
 ---------------------------------------------------------------------
      1          6           0        1.029721   -0.546022    0.356955
      2          1           0        0.156657    1.087900    1.357085
      3         17           0        0.033025   -1.948465   -1.030055
      4          9           0        1.938805    0.375966    1.777609
      5          6           0       -0.089615    0.472788    0.496691
      6          1           0        1.039536   -1.340470    1.079768
      7          7           0        2.091441   -0.181187   -0.521550
      8          1           0        2.324799   -0.956392   -1.122465
      9          1           0        2.852685    0.076545    0.091756
     10          7           0       -1.432602   -0.116311    0.785301
     11          8           0       -2.418876    0.353097    0.229270
     12          8           0       -1.439200   -0.964313    1.669469
     13          7           0       -0.157999    1.406943   -0.666756
     14          8           0        0.228247    2.552805   -0.426641
     15          8           0       -0.561527    1.001650   -1.746413
 ---------------------------------------------------------------------

 SCF Done:  E(RHF) =  -1100.33488297     A.U. after    2 cycles

 The electronic state is 1-A.
 Alpha  occ. eigenvalues -- -105.35470 -26.17467 -20.49228 -20.48872 -20.48198
 Alpha  occ. eigenvalues --  -20.47878 -15.69274 -15.68020 -15.38276 -11.27381
 Alpha  occ. eigenvalues --  -11.25743 -10.40336  -7.57172  -7.57000  -7.56967
 Alpha  occ. eigenvalues --   -1.56755  -1.55029  -1.40572  -1.39106  -1.25786
 Alpha  occ. eigenvalues --   -1.10974  -1.06206  -0.90492  -0.85672  -0.80048
 Alpha  occ. eigenvalues --   -0.73499  -0.70573  -0.67243  -0.64952  -0.63017
 Alpha  occ. eigenvalues --   -0.62576  -0.59856  -0.58879  -0.57424  -0.50692
 Alpha  occ. eigenvalues --   -0.41842  -0.39546  -0.38334  -0.37548  -0.36221
 Alpha  occ. eigenvalues --   -0.35730  -0.34630  -0.33595  -0.33232  -0.32800
 Alpha  occ. eigenvalues --   -0.28038  -0.27613  -0.26529
 Alpha virt. eigenvalues --    0.13723   0.14742   0.15350   0.16217   0.16675
 Alpha virt. eigenvalues --    0.17021   0.20489   0.21855   0.22337   0.23329
 Alpha virt. eigenvalues --    0.23851   0.24770   0.25835   0.26520   0.27640

 Mulliken charges:
               1
     1  C   -0.736229
     2  H    0.442307
     3  Cl  -0.643468
     4  F   -0.936716
     5  C   -0.539796
     6  H    0.106677
     7  N    0.376565
     8  H    0.291612
     9  H    0.344854
    10  N    3.003037
    11  O   -1.427927
    12  O   -1.515002
    13  N    3.108219
    14  O   -1.438437
    15  O   -1.435694
 Sum of Mulliken charges =  -1.00000

 Dipole moment (field-independent basis, Debye):
    X=             -0.1361    Y=              0.6369    Z=              0.0999  Tot=              0.6589

 Test job not archived.
 1\1\GINC-SE435\SP\RHF\Aug-CC-pVDZ\C2H4Cl1F1N3O4(1-)\OHZDE\09-Apr-2025\
 0\\#t hf aug-cc-pvdz iop(5/13=1,5/36=2,99/5=2) pseudo=read geom=check
 guess=(read,tcheck) scf=(maxcycle=1)\\title\\-1,1\C,0,0.53267517,-0.10
 333336,-0.02762686\H,0,1.65005389,1.66849145,0.18285505\Cl,0,-1.644301
 66,-0.34996407,0.26218484\F,0,2.45443409,-0.11559773,0.01040584\C,0,0.
 6034924,1.41325641,0.0455406\H,0,0.66881255,-0.62874445,0.89925589\N,0
 ,0.58289381,-0.66192114,-1.33819281\H,0,-0.12540206,-1.3723688,-1.4385
 8302\H,0,1.51930147,-1.03384293,-1.42112535\N,0,-0.12024833,2.01304323

 Normal termination of Gaussian 16 at Wed Apr  9 02:57:05 2025.
