 Gaussian 16, Revision C.01,

 ----------------------------------------------------------------------
 #t hf aug-cc-pvdz symm=none int=(grid=ultrafine) guess=(read,tcheck) s
 table=(opt,rrhf)
 ----------------------------------------------------------------------
 -----
 title
 -----
 Symbolic Z-matrix:
 Charge = -1 Multiplicity = 1

 SCF Done:  E(RHF) =  -364.421148677     A.U. after   17 cycles
 Normal termination of Gaussian 16 at Wed Apr  9 03:03:04 2025.
 Gaussian 16:  ES64L-G16RevC.01  3-Jul-2019

 ----------------------------------------------------------------------
 #t hf aug-cc-pvdz iop(5/13=1,5/36=2,99/5=2) pseudo=read geom=check gue
 ss=(read,tcheck) scf=(maxcycle=1)
 ----------------------------------------------------------------------
 -----
 title
 -----
 Structure from the checkpoint file:  "E2SN2_97_mol1.chk"
 Charge = -1 Multiplicity = 1

                         Standard orientation:
 ---------------------------------------------------------------------
 Center     Atomic      Atomic             Coordinates (Angstroms)
 Number     Number       Type             X           Y           Z
 ---------------------------------------------------------------------
      1          6           0       -0.727166   -0.512532   -0.367055
      2          6           0        0.356347    0.508748   -0.174427
      3          9           0       -0.812893   -1.399822    0.752155
      4          1           0       -0.269608    2.371188   -1.656569
      5          1           0        0.183894    1.340965   -1.114421
      6          1           0       -0.476809   -1.154897   -1.219060
      7          6           0       -2.091863    0.109255   -0.546316
      8          1           0       -2.035168    0.881283   -1.319230
      9          1           0       -2.830896   -0.652197   -0.809115
     10          1           0       -2.405286    0.587920    0.383407
     11          6           0        1.671320   -0.090373   -0.213305
     12          7           0        2.744604   -0.571524   -0.301993
     13          7           0        0.191866    1.414033    0.948456
     14          1           0       -0.280189    2.241118    0.573324
     15          1           0       -0.377017    0.994856    1.673638
 ---------------------------------------------------------------------

 SCF Done:  E(RHF) =  -364.792078236     A.U. after    2 cycles

 The electronic state is 1-A.
 Alpha  occ. eigenvalues --  -26.30828 -15.35757 -15.35060 -11.19209 -11.13464
 Alpha  occ. eigenvalues --  -11.11937 -11.10582  -1.42313  -1.07312  -1.04501
 Alpha  occ. eigenvalues --   -0.91864  -0.82391  -0.69968  -0.58731  -0.58463
 Alpha  occ. eigenvalues --   -0.55306  -0.51320  -0.50533  -0.45499  -0.45250
 Alpha  occ. eigenvalues --   -0.42650  -0.41345  -0.39249  -0.37574  -0.33835
 Alpha  occ. eigenvalues --   -0.32426  -0.30671  -0.11250
 Alpha virt. eigenvalues --    0.12175   0.13245   0.14736   0.16190   0.16483
 Alpha virt. eigenvalues --    0.17502   0.18453   0.19886   0.20477   0.22723
 Alpha virt. eigenvalues --    0.24468   0.24893   0.25389   0.25772   0.26840

 Mulliken charges:
               1
     1  C    1.135726
     2  C   -1.036202
     3  F   -0.894116
     4  H   -0.454865
     5  H    0.236143
     6  H    0.053974
     7  C   -0.235795
     8  H    0.214772
     9  H    0.155319
    10  H    0.161930
    11  C   -2.225240
    12  N    0.898739
    13  N    0.594727
    14  H    0.233109
    15  H    0.161779
 Sum of Mulliken charges =  -1.00000

 Dipole moment (field-independent basis, Debye):
    X=             -5.5912    Y=             -4.5609    Z=              3.3077  Tot=              7.9375

 Test job not archived.
 1\1\GINC-SE090\SP\RHF\Aug-CC-pVDZ\C4H8F1N2(1-)\OHZDE\09-Apr-2025\0\\#t
  hf aug-cc-pvdz iop(5/13=1,5/36=2,99/5=2) pseudo=read geom=check guess
 =(read,tcheck) scf=(maxcycle=1)\\title\\-1,1\C,0,-0.14531334,0.1689947
 1,-0.46186315\C,0,-0.0093688,0.14956397,1.03321577\F,0,1.12736491,0.31
 272003,-1.09974712\H,0,-2.04086319,-0.98805895,1.83076924\H,0,-1.15452
 147,-0.19158549,1.45530121\H,0,-0.71580272,1.05414973,-0.76561676\C,0,
 -0.77622431,-1.08980647,-1.00823568\H,0,-1.69899306,-1.29602866,-0.458
 13713\H,0,-0.97455573,-0.98837903,-2.07847837\H,0,-0.10187415,-1.93555

 Normal termination of Gaussian 16 at Wed Apr  9 03:03:10 2025.
