 Gaussian 16, Revision C.01,

 ----------------------------------------------------------------------
 #t hf aug-cc-pvdz symm=none int=(grid=ultrafine) guess=(read,tcheck) s
 table=(opt,rrhf)
 ----------------------------------------------------------------------
 -----
 title
 -----
 Symbolic Z-matrix:
 Charge = -1 Multiplicity = 1

 SCF Done:  E(RHF) =  -453.805267662     A.U. after   18 cycles
 Normal termination of Gaussian 16 at Wed Apr  9 03:00:54 2025.
 Gaussian 16:  ES64L-G16RevC.01  3-Jul-2019

 ----------------------------------------------------------------------
 #t hf aug-cc-pvdz iop(5/13=1,5/36=2,99/5=2) pseudo=read geom=check gue
 ss=(read,tcheck) scf=(maxcycle=1)
 ----------------------------------------------------------------------
 -----
 title
 -----
 Structure from the checkpoint file:  "E2SN2_62_mol1.chk"
 Charge = -1 Multiplicity = 1

                         Standard orientation:
 ---------------------------------------------------------------------
 Center     Atomic      Atomic             Coordinates (Angstroms)
 Number     Number       Type             X           Y           Z
 ---------------------------------------------------------------------
      1          6           0       -0.704876   -0.241826   -0.474031
      2          6           0        0.571603    0.160184    0.230993
      3          9           0       -0.730334   -1.621206   -0.639080
      4          1           0       -1.135724    0.180753    1.686467
      5          1           0       -0.027017    0.208414    1.399060
      6          6           0       -1.924292    0.137050    0.437551
      7          7           0       -3.091646    0.340479    0.274410
      8          6           0        1.000268    1.493667   -0.092888
      9          7           0        1.312617    2.607235   -0.320066
     10          6           0        1.634853   -0.802246    0.262210
     11          7           0        2.508600   -1.590672    0.322162
     12          1           0       -0.836590    0.221423   -1.452362
 ---------------------------------------------------------------------

 SCF Done:  E(RHF) =  -454.235780256     A.U. after    2 cycles

 The electronic state is 1-A.
 Alpha  occ. eigenvalues --  -26.34423 -15.41304 -15.40688 -15.32065 -11.23614
 Alpha  occ. eigenvalues --  -11.19088 -11.18781 -11.18634 -11.13586  -1.46792
 Alpha  occ. eigenvalues --   -1.12164  -1.10745  -1.04071  -0.99201  -0.82300
 Alpha  occ. eigenvalues --   -0.68358  -0.65935  -0.60032  -0.56714  -0.52212
 Alpha  occ. eigenvalues --   -0.50780  -0.49473  -0.47482  -0.44682  -0.41490
 Alpha  occ. eigenvalues --   -0.40172  -0.39344  -0.38302  -0.37813  -0.33387
 Alpha  occ. eigenvalues --   -0.31359  -0.17772
 Alpha virt. eigenvalues --    0.13924   0.14762   0.16267   0.17448   0.18592
 Alpha virt. eigenvalues --    0.20138   0.21546   0.22053   0.22136   0.23108
 Alpha virt. eigenvalues --    0.23679   0.24048   0.24774   0.25209   0.25788

 Mulliken charges:
               1
     1  C    1.384525
     2  C   -0.064440
     3  F   -0.863931
     4  H    0.072938
     5  H    0.555722
     6  C   -1.854121
     7  N    0.867013
     8  C   -1.331827
     9  N    0.812221
    10  C   -1.529409
    11  N    0.832461
    12  H    0.118848
 Sum of Mulliken charges =  -1.00000

 Dipole moment (field-independent basis, Debye):
    X=              3.1041    Y=             -1.1467    Z=             -1.3540  Tot=              3.5755

 Test job not archived.
 1\1\GINC-SE284\SP\RHF\Aug-CC-pVDZ\C5H3F1N3(1-)\OHZDE\09-Apr-2025\0\\#t
  hf aug-cc-pvdz iop(5/13=1,5/36=2,99/5=2) pseudo=read geom=check guess
 =(read,tcheck) scf=(maxcycle=1)\\title\\-1,1\C,0,0.27429061,-0.3977575
 4,-0.17563399\C,0,0.11343976,-0.15815417,1.30921786\F,0,0.82558968,-1.
 65558168,-0.38665151\H,0,-1.87014376,-0.69776399,0.41032588\H,0,-1.150
 65244,-0.51370693,1.28271051\C,0,-1.14592485,-0.39795755,-0.84233681\N
 ,0,-1.58104644,-0.22593934,-1.94315083\C,0,0.16591987,1.23350511,1.666
 09276\N,0,0.15319285,2.3793434,1.94195373\C,0,0.84724952,-1.01499878,2

 Normal termination of Gaussian 16 at Wed Apr  9 03:01:00 2025.
