 Gaussian 16, Revision C.01,

 ----------------------------------------------------------------------
 #t hf aug-cc-pvdz symm=none int=(grid=ultrafine) guess=(read,tcheck) s
 table=(opt,rrhf)
 ----------------------------------------------------------------------
 -----
 title
 -----
 Symbolic Z-matrix:
 Charge = -1 Multiplicity = 1

 SCF Done:  E(RHF) =  -1144.53311107     A.U. after   14 cycles
 Normal termination of Gaussian 16 at Wed Apr  9 02:38:35 2025.
 Gaussian 16:  ES64L-G16RevC.01  3-Jul-2019

 ----------------------------------------------------------------------
 #t hf aug-cc-pvdz iop(5/13=1,5/36=2,99/5=2) pseudo=read geom=check gue
 ss=(read,tcheck) scf=(maxcycle=1)
 ----------------------------------------------------------------------
 -----
 title
 -----
 Structure from the checkpoint file:  "E2SN2_166_mol2.chk"
 Charge = -1 Multiplicity = 1

                         Standard orientation:
 ---------------------------------------------------------------------
 Center     Atomic      Atomic             Coordinates (Angstroms)
 Number     Number       Type             X           Y           Z
 ---------------------------------------------------------------------
      1          6           0       -0.272149    0.662879   -0.688337
      2          6           0       -0.218851   -0.726670   -0.055297
      3         17           0       -1.472436    1.714628    0.136861
      4          1           0        0.544872   -1.262149   -0.630631
      5          1           0       -0.563054    0.612719   -1.738393
      6          1           0        0.714420    1.109940   -0.580792
      7          6           0       -1.506609   -1.422045   -0.230739
      8          7           0       -2.535268   -1.964530   -0.391446
      9          7           0        0.202707   -0.778818    1.332303
     10          1           0       -0.273444   -0.050177    1.852054
     11          1           0        1.200501   -0.566062    1.312897
     12         17           0        3.042453   -0.051441   -0.193032
 ---------------------------------------------------------------------

 SCF Done:  E(RHF) =  -1144.91864710     A.U. after    2 cycles

 The electronic state is 1-A.
 Alpha  occ. eigenvalues -- -105.45451-105.29112 -15.40633 -15.37283 -11.19679
 Alpha  occ. eigenvalues --  -11.19376 -11.17663 -10.50322 -10.33705  -7.67260
 Alpha  occ. eigenvalues --   -7.66913  -7.66893  -7.50465  -7.50440  -7.50432
 Alpha  occ. eigenvalues --   -1.12058  -1.08776  -0.99327  -0.88091  -0.76499
 Alpha  occ. eigenvalues --   -0.74283  -0.62780  -0.57213  -0.53866  -0.51381
 Alpha  occ. eigenvalues --   -0.50417  -0.47417  -0.43095  -0.38785  -0.37718
 Alpha  occ. eigenvalues --   -0.35921  -0.34359  -0.32823  -0.21857  -0.21510
 Alpha  occ. eigenvalues --   -0.21418
 Alpha virt. eigenvalues --    0.13302   0.14335   0.15493   0.16712   0.17385
 Alpha virt. eigenvalues --    0.18107   0.18830   0.22070   0.23145   0.23872
 Alpha virt. eigenvalues --    0.24400   0.25574   0.25816   0.26471   0.26848

 Mulliken charges:
               1
     1  C   -0.134614
     2  C   -0.880926
     3  Cl  -0.103257
     4  H    0.249122
     5  H    0.266643
     6  H    0.294290
     7  C   -1.645653
     8  N    0.876444
     9  N    0.591031
    10  H    0.225796
    11  H    0.228503
    12  Cl  -0.967379
 Sum of Mulliken charges =  -1.00000

 Dipole moment (field-independent basis, Debye):
    X=             -5.7263    Y=              2.7558    Z=             -0.1986  Tot=              6.3580

 Test job not archived.
 1\1\GINC-SE208\SP\RHF\Aug-CC-pVDZ\C3H5Cl2N2(1-)\OHZDE\09-Apr-2025\0\\#
 t hf aug-cc-pvdz iop(5/13=1,5/36=2,99/5=2) pseudo=read geom=check gues
 s=(read,tcheck) scf=(maxcycle=1)\\title\\-1,1\C,0,-0.039268,-0.226788,
 0.008035\C,0,-0.512482,-0.357679,-1.43881\Cl,0,1.685049,0.270649,0.092
 332\H,0,-1.565318,-0.651146,-1.358594\H,0,-0.122883,-1.173658,0.543018
 \H,0,-0.646684,0.541353,0.48317\C,0,0.220688,-1.436934,-2.124607\N,0,0
 .806042,-2.308469,-2.650007\N,0,-0.485789,0.858349,-2.230281\H,0,0.392
 247,1.339474,-2.071064\H,0,-1.243464,1.43174,-1.858278\Cl,0,-3.019664,

 Normal termination of Gaussian 16 at Wed Apr  9 02:38:41 2025.
