 Gaussian 16, Revision C.01,

 ----------------------------------------------------------------------
 #t hf aug-cc-pvdz symm=none int=(grid=ultrafine) guess=(read,tcheck) s
 table=(opt,rrhf)
 ----------------------------------------------------------------------
 -----
 title
 -----
 Symbolic Z-matrix:
 Charge = -1 Multiplicity = 1

 SCF Done:  E(RHF) =  -875.257089533     A.U. after   17 cycles
 Normal termination of Gaussian 16 at Wed Apr  9 02:55:31 2025.
 Gaussian 16:  ES64L-G16RevC.01  3-Jul-2019

 ----------------------------------------------------------------------
 #t hf aug-cc-pvdz iop(5/13=1,5/36=2,99/5=2) pseudo=read geom=check gue
 ss=(read,tcheck) scf=(maxcycle=1)
 ----------------------------------------------------------------------
 -----
 title
 -----
 Structure from the checkpoint file:  "E2SN2_344_mol1.chk"
 Charge = -1 Multiplicity = 1

                         Standard orientation:
 ---------------------------------------------------------------------
 Center     Atomic      Atomic             Coordinates (Angstroms)
 Number     Number       Type             X           Y           Z
 ---------------------------------------------------------------------
      1          6           0        0.982898    0.172560   -0.459084
      2          1           0       -0.541321   -0.236112   -1.897085
      3         17           0        0.702522   -0.037446    1.629536
      4          1           0        1.199406    0.169716   -2.640609
      5          6           0       -0.372455   -0.455676   -0.848588
      6          6           0        2.247314   -0.676974   -0.611709
      7          1           0        2.740121   -0.800539    0.360431
      8          1           0        1.997130   -1.652303   -1.020729
      9          1           0        2.922903   -0.188370   -1.304849
     10          6           0        1.187501    1.681667   -0.460043
     11          1           0        1.206098    2.049527   -1.479939
     12          1           0        0.416820    2.192291    0.110769
     13          1           0        2.150429    1.879435    0.019765
     14          7           0       -1.571608    0.261389   -0.165521
     15          8           0       -2.386502   -0.421815    0.455346
     16          8           0       -1.722648    1.457292   -0.411804
     17          7           0       -0.405429   -1.853180   -0.607205
     18          1           0       -1.297178   -2.228408   -0.898564
     19          1           0       -0.296359   -2.019398    0.385992
 ---------------------------------------------------------------------

 SCF Done:  E(RHF) =  -875.760750887     A.U. after    2 cycles

 The electronic state is 1-A.
 Alpha  occ. eigenvalues -- -105.37365 -20.46001 -20.45758 -15.64611 -15.38144
 Alpha  occ. eigenvalues --  -11.22000 -11.20720 -11.09821 -11.09733 -10.42255
 Alpha  occ. eigenvalues --   -7.59102  -7.58899  -7.58887  -1.52708  -1.36612
 Alpha  occ. eigenvalues --   -1.11212  -0.97336  -0.91259  -0.83294  -0.81847
 Alpha  occ. eigenvalues --   -0.75817  -0.67680  -0.64411  -0.61994  -0.59329
 Alpha  occ. eigenvalues --   -0.57863  -0.52236  -0.48145  -0.46028  -0.44701
 Alpha  occ. eigenvalues --   -0.42966  -0.40974  -0.38670  -0.38000  -0.35664
 Alpha  occ. eigenvalues --   -0.32944  -0.32105  -0.30243  -0.28906  -0.28591
 Alpha  occ. eigenvalues --   -0.09828
 Alpha virt. eigenvalues --    0.13039   0.13370   0.13882   0.15196   0.15447
 Alpha virt. eigenvalues --    0.16056   0.16341   0.17783   0.18250   0.19227
 Alpha virt. eigenvalues --    0.20441   0.22382   0.23216   0.23754   0.24595

 Mulliken charges:
               1
     1  C   -1.158273
     2  H    0.092339
     3  Cl  -0.548550
     4  H   -0.645769
     5  C   -1.458088
     6  C   -0.159047
     7  H    0.264023
     8  H    0.262005
     9  H    0.179585
    10  C    0.029675
    11  H    0.243038
    12  H    0.263347
    13  H    0.270165
    14  N    3.012502
    15  O   -1.443430
    16  O   -1.547053
    17  N    0.661281
    18  H    0.304303
    19  H    0.377949
 Sum of Mulliken charges =  -1.00000

 Dipole moment (field-independent basis, Debye):
    X=             -1.4308    Y=             -1.4082    Z=              4.2243  Tot=              4.6771

 Test job not archived.
 1\1\GINC-SE049\SP\RHF\Aug-CC-pVDZ\C4H10Cl1N2O2(1-)\OHZDE\09-Apr-2025\0
 \\#t hf aug-cc-pvdz iop(5/13=1,5/36=2,99/5=2) pseudo=read geom=check g
 uess=(read,tcheck) scf=(maxcycle=1)\\title\\-1,1\C,0,0.43665259,-0.070
 27767,0.02261201\H,0,1.7218879,1.62201872,0.22853529\Cl,0,-1.67604375,
 0.05299895,0.10240635\H,0,2.61445874,-0.03458962,-0.22602032\C,0,0.668
 74019,1.45597747,0.03008874\C,0,0.57703843,-0.81931958,-1.30516029\H,0
 ,-0.36931437,-1.30899349,-1.56558279\H,0,0.8615444,-0.13068889,-2.0963
 632\H,0,1.36058146,-1.56308651,-1.21314112\C,0,0.61361472,-0.90598907,

 Normal termination of Gaussian 16 at Wed Apr  9 02:55:43 2025.
