 Gaussian 16, Revision C.01,

 ----------------------------------------------------------------------
 #t hf aug-cc-pvdz symm=none int=(grid=ultrafine) guess=(read,tcheck) s
 table=(opt,rrhf)
 ----------------------------------------------------------------------
 -----
 title
 -----
 Symbolic Z-matrix:
 Charge = -1 Multiplicity = 1

 SCF Done:  E(RHF) =  -518.437349322     A.U. after   15 cycles
 Normal termination of Gaussian 16 at Wed Apr  9 02:50:24 2025.
 Gaussian 16:  ES64L-G16RevC.01  3-Jul-2019

 ----------------------------------------------------------------------
 #t hf aug-cc-pvdz iop(5/13=1,5/36=2,99/5=2) pseudo=read geom=check gue
 ss=(read,tcheck) scf=(maxcycle=1)
 ----------------------------------------------------------------------
 -----
 title
 -----
 Structure from the checkpoint file:  "E2SN2_288_mol2.chk"
 Charge = -1 Multiplicity = 1

                         Standard orientation:
 ---------------------------------------------------------------------
 Center     Atomic      Atomic             Coordinates (Angstroms)
 Number     Number       Type             X           Y           Z
 ---------------------------------------------------------------------
      1          6           0       -0.703351    0.391137    0.124587
      2          6           0        0.342813    0.121305   -0.967945
      3          9           0       -1.379537    1.586331   -0.186722
      4          1           0       -0.175713    0.319712   -1.915665
      5          6           0       -1.745736   -0.656675    0.086564
      6          7           0       -2.658889   -1.395153    0.093216
      7          6           0       -0.093437    0.528287    1.504997
      8          1           0        0.356561    1.521332    1.540552
      9          1           0        0.726214   -0.186405    1.638115
     10          1           0       -0.857410    0.442387    2.280821
     11          7           0        0.690724   -1.293772   -0.891339
     12          1           0        1.132600   -1.551839   -1.767219
     13          1           0        1.429260   -1.335373   -0.158934
     14          7           0        1.433980    1.076592   -0.804660
     15          1           0        2.053202    0.624721   -0.104673
     16          1           0        1.950268    1.096641   -1.678391
     17          9           0        2.526489   -0.691794    0.952906
 ---------------------------------------------------------------------

 SCF Done:  E(RHF) =  -518.949569406     A.U. after    2 cycles

 The electronic state is 1-A.
 Alpha  occ. eigenvalues --  -26.32916 -26.11044 -15.39180 -15.33287 -15.32911
 Alpha  occ. eigenvalues --  -11.22752 -11.16228 -11.16153 -11.09359  -1.45068
 Alpha  occ. eigenvalues --   -1.17855  -1.09865  -1.08180  -0.97963  -0.93121
 Alpha  occ. eigenvalues --   -0.79988  -0.71840  -0.61323  -0.59923  -0.54316
 Alpha  occ. eigenvalues --   -0.52390  -0.51211  -0.50787  -0.49045  -0.45452
 Alpha  occ. eigenvalues --   -0.43597  -0.41136  -0.40685  -0.39399  -0.37099
 Alpha  occ. eigenvalues --   -0.36834  -0.32981  -0.28906  -0.27027  -0.26970
 Alpha  occ. eigenvalues --   -0.26593
 Alpha virt. eigenvalues --    0.13016   0.13745   0.14375   0.14739   0.15829
 Alpha virt. eigenvalues --    0.17575   0.18254   0.18946   0.20270   0.21914
 Alpha virt. eigenvalues --    0.22753   0.23982   0.24761   0.25548   0.25878

 Mulliken charges:
               1
     1  C    1.468352
     2  C   -2.178245
     3  F   -1.000507
     4  H   -0.095680
     5  C   -2.111109
     6  N    1.002058
     7  C    0.002465
     8  H    0.274613
     9  H    0.276530
    10  H    0.079312
    11  N    0.714954
    12  H    0.214249
    13  H    0.241865
    14  N    0.636317
    15  H    0.315782
    16  H    0.198820
    17  F   -1.039777
 Sum of Mulliken charges =  -1.00000

 Dipole moment (field-independent basis, Debye):
    X=             -1.8197    Y=              3.1283    Z=             -3.0167  Tot=              4.7115

 Test job not archived.
 1\1\GINC-SE340\SP\RHF\Aug-CC-pVDZ\C4H8F2N3(1-)\OHZDE\09-Apr-2025\0\\#t
  hf aug-cc-pvdz iop(5/13=1,5/36=2,99/5=2) pseudo=read geom=check guess
 =(read,tcheck) scf=(maxcycle=1)\\title\\-1,1\C,0,0.08749,-0.008145,0.0
 03053\C,0,-0.553806,0.402612,-1.331455\F,0,1.36859,-0.531499,-0.256779
 \H,0,0.23911,0.928986,-1.879744\C,0,0.327936,1.192735,0.831302\N,0,0.6
 26373,2.084796,1.534441\C,0,-0.71787,-1.053492,0.748025\H,0,-0.527217,
 -2.000825,0.24195\H,0,-1.791326,-0.859866,0.645393\H,0,-0.400105,-1.12
 2722,1.790699\N,0,-1.632394,1.335525,-1.022139\H,0,-1.861027,1.837726,

 Normal termination of Gaussian 16 at Wed Apr  9 02:50:30 2025.
