 Gaussian 16, Revision C.01,

 ----------------------------------------------------------------------
 #t hf aug-cc-pvdz symm=none int=(grid=ultrafine) guess=(read,tcheck) s
 table=(opt,rrhf)
 ----------------------------------------------------------------------
 -----
 title
 -----
 Symbolic Z-matrix:
 Charge = -1 Multiplicity = 1

 SCF Done:  E(RHF) =  -836.247986087     A.U. after   17 cycles
 Normal termination of Gaussian 16 at Wed Apr  9 02:36:06 2025.
 Gaussian 16:  ES64L-G16RevC.01  3-Jul-2019

 ----------------------------------------------------------------------
 #t hf aug-cc-pvdz iop(5/13=1,5/36=2,99/5=2) pseudo=read geom=check gue
 ss=(read,tcheck) scf=(maxcycle=1)
 ----------------------------------------------------------------------
 -----
 title
 -----
 Structure from the checkpoint file:  "E2SN2_129_mol2.chk"
 Charge = -1 Multiplicity = 1

                         Standard orientation:
 ---------------------------------------------------------------------
 Center     Atomic      Atomic             Coordinates (Angstroms)
 Number     Number       Type             X           Y           Z
 ---------------------------------------------------------------------
      1          6           0        0.255645   -0.253426    0.370762
      2          6           0        0.364754    1.184481    0.874137
      3         17           0        1.414107   -0.504374   -0.963861
      4          1           0        1.376038    1.250590    1.286819
      5          1           0       -0.321707    1.253445    1.723640
      6          7           0        0.440557   -1.269275    1.329812
      7          1           0       -0.261563   -1.118760    2.050764
      8          1           0        1.389485   -1.049598    1.833621
      9          7           0       -1.182100   -0.386870   -0.217257
     10          8           0       -2.069167   -0.355023    0.635954
     11          8           0       -1.379081   -0.463085   -1.423854
     12          6           0        0.058888    2.274897   -0.144314
     13          1           0       -0.971212    2.209601   -0.507066
     14          1           0        0.186732    3.260765    0.311779
     15          1           0        0.724782    2.211046   -1.006118
     16          1           0        2.538690   -0.540564    2.604001
 ---------------------------------------------------------------------

 SCF Done:  E(RHF) =  -836.710026932     A.U. after    2 cycles

 The electronic state is 1-A.
 Alpha  occ. eigenvalues -- -105.44110 -20.48279 -20.47628 -15.66574 -15.34769
 Alpha  occ. eigenvalues --  -11.27054 -11.12905 -11.12799 -10.49051  -7.65999
 Alpha  occ. eigenvalues --   -7.65601  -7.65595  -1.54926  -1.38878  -1.11763
 Alpha  occ. eigenvalues --   -0.97227  -0.92304  -0.89790  -0.77832  -0.71215
 Alpha  occ. eigenvalues --   -0.63508  -0.63316  -0.62154  -0.54346  -0.52414
 Alpha  occ. eigenvalues --   -0.49895  -0.47376  -0.45099  -0.41410  -0.39848
 Alpha  occ. eigenvalues --   -0.38670  -0.37226  -0.34275  -0.33404  -0.33249
 Alpha  occ. eigenvalues --   -0.31226  -0.10419
 Alpha virt. eigenvalues --    0.11750   0.13413   0.13899   0.15127   0.16588
 Alpha virt. eigenvalues --    0.17947   0.18575   0.19152   0.21335   0.21778
 Alpha virt. eigenvalues --    0.22725   0.22956   0.23268   0.24738   0.25367

 Mulliken charges:
               1
     1  C   -2.688459
     2  C    0.332110
     3  Cl   0.056357
     4  H    0.220959
     5  H    0.208088
     6  N    0.854775
     7  H    0.360433
     8  H    0.133986
     9  N    3.059972
    10  O   -1.536346
    11  O   -1.421176
    12  C   -0.302781
    13  H    0.194617
    14  H    0.110241
    15  H    0.197018
    16  H   -0.779792
 Sum of Mulliken charges =  -1.00000

 Dipole moment (field-independent basis, Debye):
    X=             -6.7349    Y=              4.4461    Z=             -6.6701  Tot=             10.4698

 Test job not archived.
 1\1\GINC-SE249\SP\RHF\Aug-CC-pVDZ\C3H8Cl1N2O2(1-)\OHZDE\09-Apr-2025\0\
 \#t hf aug-cc-pvdz iop(5/13=1,5/36=2,99/5=2) pseudo=read geom=check gu
 ess=(read,tcheck) scf=(maxcycle=1)\\title\\-1,1\C,0,-0.14113,0.238655,
 -1.390964\C,0,0.058227,0.051039,0.111676\Cl,0,0.134786,1.949965,-1.817
 011\H,0,1.117215,0.273736,0.273922\H,0,-0.064611,-1.020871,0.294863\N,
 0,0.64535,-0.571811,-2.233884\H,0,0.430902,-1.536471,-1.991314\H,0,1.6
 84002,-0.440753,-1.90743\N,0,-1.642926,-0.081499,-1.660767\O,0,-1.9269
 86,-1.271159,-1.519734\O,0,-2.449087,0.798963,-1.935318\C,0,-0.869677,

 Normal termination of Gaussian 16 at Wed Apr  9 02:36:13 2025.
