 Gaussian 16, Revision C.01,

 ----------------------------------------------------------------------
 #t hf aug-cc-pvdz symm=none int=(grid=ultrafine) guess=(read,tcheck) s
 table=(opt,rrhf)
 ----------------------------------------------------------------------
 -----
 title
 -----
 Symbolic Z-matrix:
 Charge = -1 Multiplicity = 1

 SCF Done:  E(RHF) =  -417.093924566     A.U. after   17 cycles
 Normal termination of Gaussian 16 at Wed Apr  9 02:38:47 2025.
 Gaussian 16:  ES64L-G16RevC.01  3-Jul-2019

 ----------------------------------------------------------------------
 #t hf aug-cc-pvdz iop(5/13=1,5/36=2,99/5=2) pseudo=read geom=check gue
 ss=(read,tcheck) scf=(maxcycle=1)
 ----------------------------------------------------------------------
 -----
 title
 -----
 Structure from the checkpoint file:  "E2SN2_164_mol1.chk"
 Charge = -1 Multiplicity = 1

                         Standard orientation:
 ---------------------------------------------------------------------
 Center     Atomic      Atomic             Coordinates (Angstroms)
 Number     Number       Type             X           Y           Z
 ---------------------------------------------------------------------
      1          6           0        0.647642   -0.295171   -0.204427
      2          1           0       -0.715189   -0.904296   -1.790795
      3          9           0        0.260674   -0.479353    1.378590
      4          1           0        1.124535    0.107177   -1.955073
      5          6           0       -0.674553   -0.882165   -0.706095
      6          1           0       -0.685521   -1.904929   -0.322661
      7          7           0        1.784402   -1.191140   -0.155316
      8          1           0        2.196891   -1.075757    0.763958
      9          1           0        2.425638   -0.918341   -0.883572
     10          6           0        0.836197    1.137275   -0.224956
     11          7           0        0.980837    2.294314   -0.031800
     12          6           0       -1.847641   -0.175129   -0.190172
     13          7           0       -2.831280    0.368464    0.149221
 ---------------------------------------------------------------------

 SCF Done:  E(RHF) =  -417.500376578     A.U. after    2 cycles

 The electronic state is 1-A.
 Alpha  occ. eigenvalues --  -26.24132 -15.38730 -15.37460 -15.35739 -11.26958
 Alpha  occ. eigenvalues --  -11.16355 -11.15861 -11.14731  -1.33718  -1.09439
 Alpha  occ. eigenvalues --   -1.08190  -1.05380  -0.93947  -0.79827  -0.64351
 Alpha  occ. eigenvalues --   -0.59755  -0.55073  -0.53552  -0.50331  -0.47322
 Alpha  occ. eigenvalues --   -0.45678  -0.43753  -0.40075  -0.38797  -0.37170
 Alpha  occ. eigenvalues --   -0.35998  -0.35054  -0.33837  -0.33074  -0.14141
 Alpha virt. eigenvalues --    0.13300   0.14025   0.15028   0.16095   0.17775
 Alpha virt. eigenvalues --    0.18516   0.19755   0.22440   0.23630   0.24358
 Alpha virt. eigenvalues --    0.24526   0.25388   0.25709   0.26504   0.27231

 Mulliken charges:
               1
     1  C   -0.707342
     2  H    0.218070
     3  F   -0.879366
     4  H   -0.355194
     5  C    0.593604
     6  H    0.328437
     7  N    0.791106
     8  H    0.270475
     9  H    0.252865
    10  C   -1.973495
    11  N    1.005138
    12  C   -1.351915
    13  N    0.807618
 Sum of Mulliken charges =  -1.00000

 Dipole moment (field-independent basis, Debye):
    X=              0.9765    Y=             -5.5623    Z=              0.5023  Tot=              5.6697

 Test job not archived.
 1\1\GINC-SE108\SP\RHF\Aug-CC-pVDZ\C4H5F1N3(1-)\OHZDE\09-Apr-2025\0\\#t
  hf aug-cc-pvdz iop(5/13=1,5/36=2,99/5=2) pseudo=read geom=check guess
 =(read,tcheck) scf=(maxcycle=1)\\title\\-1,1\C,0,0.50256005,-0.0709592
 9,0.00657801\H,0,1.71192036,1.74074714,-0.00180953\F,0,-1.13566975,-0.
 01029182,0.05276976\H,0,2.34797722,-0.26343725,0.11362381\C,0,0.666094
 85,1.45122384,0.03196592\H,0,0.16526949,1.79771696,-0.87484377\N,0,0.5
 6252776,-0.71386724,-1.28975051\H,0,-0.23959802,-1.33266315,-1.3367615
 1\H,0,1.42789147,-1.2281603,-1.34082592\C,0,0.73416996,-0.82543471,1.2

 Normal termination of Gaussian 16 at Wed Apr  9 02:38:51 2025.
