 Gaussian 16, Revision C.01,

 ----------------------------------------------------------------------
 #t hf aug-cc-pvdz symm=none int=(grid=ultrafine) guess=(read,tcheck) s
 table=(opt,rrhf)
 ----------------------------------------------------------------------
 -----
 title
 -----
 Symbolic Z-matrix:
 Charge = -1 Multiplicity = 1

 SCF Done:  E(RHF) =  -878.454539906     A.U. after   16 cycles
 Normal termination of Gaussian 16 at Wed Apr  9 02:53:40 2025.
 Gaussian 16:  ES64L-G16RevC.01  3-Jul-2019

 ----------------------------------------------------------------------
 #t hf aug-cc-pvdz iop(5/13=1,5/36=2,99/5=2) pseudo=read geom=check gue
 ss=(read,tcheck) scf=(maxcycle=1)
 ----------------------------------------------------------------------
 -----
 title
 -----
 Structure from the checkpoint file:  "E2SN2_319_mol1.chk"
 Charge = -1 Multiplicity = 1

                         Standard orientation:
 ---------------------------------------------------------------------
 Center     Atomic      Atomic             Coordinates (Angstroms)
 Number     Number       Type             X           Y           Z
 ---------------------------------------------------------------------
      1          6           0       -0.102808    0.087061    0.306667
      2          1           0        0.266446   -1.370265   -1.212059
      3          9           0        1.418570    1.217898    0.875553
      4         17           0       -2.023535   -1.010628   -0.299997
      5          6           0        0.858310   -0.682243   -0.609697
      6          6           0       -0.671426    1.337232   -0.171588
      7          7           0       -1.164353    2.362113   -0.474459
      8          7           0       -0.255115   -0.288641    1.679559
      9          1           0       -1.226124   -0.195219    1.941918
     10          1           0        0.325370    0.374678    2.181046
     11          6           0        1.843385   -1.503305    0.219526
     12          1           0        2.441594   -0.829916    0.831166
     13          1           0        1.321214   -2.209447    0.867027
     14          1           0        2.496231   -2.061528   -0.461629
     15          7           0        1.469700    0.268078   -1.533418
     16          1           0        2.103826   -0.232095   -2.145280
     17          1           0        1.988023    0.920064   -0.953437
 ---------------------------------------------------------------------

 SCF Done:  E(RHF) =  -878.954516865     A.U. after    2 cycles

 The electronic state is 1-A.
 Alpha  occ. eigenvalues -- -105.34114 -26.17044 -15.37439 -15.37160 -15.35000
 Alpha  occ. eigenvalues --  -11.27992 -11.15428 -11.14664 -11.09704 -10.38930
 Alpha  occ. eigenvalues --   -7.55753  -7.55591  -7.55575  -1.25364  -1.10083
 Alpha  occ. eigenvalues --   -1.06648  -1.05673  -0.89154  -0.84619  -0.79035
 Alpha  occ. eigenvalues --   -0.70775  -0.62041  -0.58733  -0.58261  -0.50537
 Alpha  occ. eigenvalues --   -0.47758  -0.47078  -0.46066  -0.42063  -0.41458
 Alpha  occ. eigenvalues --   -0.38481  -0.36167  -0.34612  -0.33788  -0.32233
 Alpha  occ. eigenvalues --   -0.31209  -0.30403  -0.26450  -0.25752  -0.25540
 Alpha virt. eigenvalues --    0.12015   0.13330   0.14039   0.14374   0.15886
 Alpha virt. eigenvalues --    0.16179   0.17578   0.17860   0.19876   0.20664
 Alpha virt. eigenvalues --    0.22431   0.23316   0.24193   0.24879   0.26226

 Mulliken charges:
               1
     1  C   -0.372108
     2  H    0.074316
     3  F   -0.872533
     4  Cl  -0.547218
     5  C   -1.526663
     6  C   -1.993616
     7  N    1.068431
     8  N    0.574463
     9  H    0.295613
    10  H    0.378060
    11  C    0.109534
    12  H    0.304811
    13  H    0.282608
    14  H    0.039317
    15  N    0.740414
    16  H    0.169337
    17  H    0.275234
 Sum of Mulliken charges =  -1.00000

 Dipole moment (field-independent basis, Debye):
    X=              4.0268    Y=             -3.8429    Z=              1.0888  Tot=              5.6717

 Test job not archived.
 1\1\GINC-SE208\SP\RHF\Aug-CC-pVDZ\C4H8Cl1F1N3(1-)\OHZDE\09-Apr-2025\0\
 \#t hf aug-cc-pvdz iop(5/13=1,5/36=2,99/5=2) pseudo=read geom=check gu
 ess=(read,tcheck) scf=(maxcycle=1)\\title\\-1,1\C,0,0.76877342,0.01159
 508,0.02173633\H,0,1.6702504,1.94637247,-0.08146849\F,0,-1.2053371,-0.
 0821959,-0.08363656\Cl,0,3.05897946,-0.11918226,0.0191371\C,0,0.661554
 62,1.54230227,-0.00545499\C,0,0.7303599,-0.7125229,-1.23888208\N,0,0.6
 9380156,-1.37561912,-2.21050755\N,0,0.67357784,-0.70178945,1.259154\H,
 0,1.32979757,-1.46970472,1.24915994\H,0,-0.28318454,-1.03762342,1.2754

 Normal termination of Gaussian 16 at Wed Apr  9 02:53:48 2025.
