 Gaussian 16, Revision C.01,

 ----------------------------------------------------------------------
 #t hf aug-cc-pvdz symm=none int=(grid=ultrafine) guess=(read,tcheck) s
 table=(opt,rrhf)
 ----------------------------------------------------------------------
 -----
 title
 -----
 Symbolic Z-matrix:
 Charge = -1 Multiplicity = 1

 SCF Done:  E(RHF) =  -862.545642790     A.U. after   15 cycles
 Normal termination of Gaussian 16 at Wed Apr  9 02:54:59 2025.
 Gaussian 16:  ES64L-G16RevC.01  3-Jul-2019

 ----------------------------------------------------------------------
 #t hf aug-cc-pvdz iop(5/13=1,5/36=2,99/5=2) pseudo=read geom=check gue
 ss=(read,tcheck) scf=(maxcycle=1)
 ----------------------------------------------------------------------
 -----
 title
 -----
 Structure from the checkpoint file:  "E2SN2_339_mol2.chk"
 Charge = -1 Multiplicity = 1

                         Standard orientation:
 ---------------------------------------------------------------------
 Center     Atomic      Atomic             Coordinates (Angstroms)
 Number     Number       Type             X           Y           Z
 ---------------------------------------------------------------------
      1          6           0       -1.150318    0.086692   -0.368843
      2          6           0       -0.506386    0.836717    0.823368
      3          9           0       -2.187969    0.899062   -0.873345
      4          1           0       -1.363857    1.160815    1.430791
      5          6           0       -0.210304   -0.249171   -1.503589
      6          1           0        0.701155   -0.728788   -1.139069
      7          1           0        0.085209    0.678221   -1.995341
      8          1           0       -0.712345   -0.890391   -2.231520
      9          6           0       -1.814349   -1.127810    0.148327
     10          7           0       -2.356403   -2.076025    0.580286
     11          6           0        0.257816    2.061392    0.339101
     12          1           0        1.192920    1.751880   -0.133310
     13          1           0        0.509415    2.679384    1.203175
     14          1           0       -0.338272    2.652178   -0.360490
     15          7           0        0.368949    0.032693    1.648390
     16          1           0        1.225548   -0.208255    1.145501
     17          1           0       -0.083300   -0.819860    1.955748
     18         17           0        3.113451   -0.571196   -0.249782
 ---------------------------------------------------------------------

 SCF Done:  E(RHF) =  -863.031271351     A.U. after    2 cycles

 The electronic state is 1-A.
 Alpha  occ. eigenvalues -- -105.28178 -26.36111 -15.42802 -15.35813 -11.25835
 Alpha  occ. eigenvalues --  -11.19259 -11.16731 -11.12471 -11.11349 -10.32762
 Alpha  occ. eigenvalues --   -7.49529  -7.49500  -7.49493  -1.48163  -1.13112
 Alpha  occ. eigenvalues --   -1.08043  -0.96393  -0.88385  -0.81989  -0.73485
 Alpha  occ. eigenvalues --   -0.71794  -0.64333  -0.59594  -0.59060  -0.56438
 Alpha  occ. eigenvalues --   -0.52805  -0.50414  -0.49078  -0.46430  -0.45050
 Alpha  occ. eigenvalues --   -0.43904  -0.42847  -0.41957  -0.40289  -0.39499
 Alpha  occ. eigenvalues --   -0.38633  -0.31011  -0.20864  -0.20487  -0.20455
 Alpha virt. eigenvalues --    0.12017   0.12440   0.12958   0.14092   0.15500
 Alpha virt. eigenvalues --    0.15961   0.17323   0.17947   0.19054   0.19685
 Alpha virt. eigenvalues --    0.20931   0.21995   0.22922   0.23709   0.24232

 Mulliken charges:
               1
     1  C    1.680944
     2  C   -1.888556
     3  F   -1.014268
     4  H   -0.026383
     5  C    0.035133
     6  H    0.302268
     7  H    0.207735
     8  H    0.112483
     9  C   -2.342126
    10  N    1.101554
    11  C    0.142755
    12  H    0.207618
    13  H    0.077986
    14  H    0.156662
    15  N    0.920885
    16  H    0.045496
    17  H    0.263779
    18  Cl  -0.983967
 Sum of Mulliken charges =  -1.00000

 Dipole moment (field-independent basis, Debye):
    X=             -8.3106    Y=              4.2883    Z=             -1.0888  Tot=              9.4149

 Test job not archived.
 1\1\GINC-SE424\SP\RHF\Aug-CC-pVDZ\C5H9Cl1F1N2(1-)\OHZDE\09-Apr-2025\0\
 \#t hf aug-cc-pvdz iop(5/13=1,5/36=2,99/5=2) pseudo=read geom=check gu
 ess=(read,tcheck) scf=(maxcycle=1)\\title\\-1,1\C,0,0.057321,-0.030247
 ,-0.013756\C,0,-0.393621,0.15126,-1.484219\F,0,1.415064,0.345862,0.065
 372\H,0,0.399139,-0.336443,-2.069827\C,0,-0.721651,0.771016,1.003721\H
 ,0,-1.798959,0.648888,0.868973\H,0,-0.494339,1.82794,0.860739\H,0,-0.4
 29709,0.480777,2.015464\C,0,0.026548,-1.471951,0.308672\N,0,0.018484,-
 2.623487,0.539803\C,0,-0.452686,1.627977,-1.850507\H,0,-1.331233,2.088

 Normal termination of Gaussian 16 at Wed Apr  9 02:55:08 2025.
