 Gaussian 16, Revision C.01,

 ----------------------------------------------------------------------
 #t hf aug-cc-pvdz symm=none int=(grid=ultrafine) guess=(read,tcheck) s
 table=(opt,rrhf)
 ----------------------------------------------------------------------
 -----
 title
 -----
 Symbolic Z-matrix:
 Charge = -1 Multiplicity = 1

 SCF Done:  E(RHF) =  -931.190307861     A.U. after   16 cycles
 Normal termination of Gaussian 16 at Wed Apr  9 02:38:28 2025.
 Gaussian 16:  ES64L-G16RevC.01  3-Jul-2019

 ----------------------------------------------------------------------
 #t hf aug-cc-pvdz iop(5/13=1,5/36=2,99/5=2) pseudo=read geom=check gue
 ss=(read,tcheck) scf=(maxcycle=1)
 ----------------------------------------------------------------------
 -----
 title
 -----
 Structure from the checkpoint file:  "E2SN2_150_mol2.chk"
 Charge = -1 Multiplicity = 1

                         Standard orientation:
 ---------------------------------------------------------------------
 Center     Atomic      Atomic             Coordinates (Angstroms)
 Number     Number       Type             X           Y           Z
 ---------------------------------------------------------------------
      1          6           0       -0.439583   -0.035245   -0.385324
      2          6           0        0.686710    0.029354    0.667596
      3         17           0       -1.980457    0.675687    0.480061
      4          1           0        0.821752    1.107619    0.808514
      5          7           0       -0.048717    0.662991   -1.509878
      6          1           0        0.390718    1.604288   -1.161434
      7          1           0       -0.787729    0.739326   -2.195523
      8          6           0       -0.841068   -1.424386   -0.651870
      9          7           0       -1.117057   -2.545217   -0.875196
     10          6           0        1.927779   -0.477547    0.052792
     11          7           0        2.939997   -0.949019   -0.315104
     12          7           0        0.355027   -0.682241    1.890232
     13          1           0        0.575672   -1.666885    1.797791
     14          1           0        0.905252   -0.306131    2.650626
     15          9           0        0.983816    2.564050   -0.276728
 ---------------------------------------------------------------------

 SCF Done:  E(RHF) =  -931.725149727     A.U. after    2 cycles

 The electronic state is 1-A.
 Alpha  occ. eigenvalues -- -105.42632 -26.13202 -15.41817 -15.40179 -15.39791
 Alpha  occ. eigenvalues --  -15.36019 -11.26463 -11.19386 -11.18743 -11.16936
 Alpha  occ. eigenvalues --  -10.47466  -7.64373  -7.64039  -7.64028  -1.20743
 Alpha  occ. eigenvalues --   -1.14618  -1.11567  -1.09451  -1.08366  -0.93407
 Alpha  occ. eigenvalues --   -0.88069  -0.79496  -0.65493  -0.62769  -0.61755
 Alpha  occ. eigenvalues --   -0.55376  -0.51800  -0.51162  -0.50147  -0.48932
 Alpha  occ. eigenvalues --   -0.46175  -0.40837  -0.39953  -0.38083  -0.37341
 Alpha  occ. eigenvalues --   -0.35644  -0.33679  -0.32839  -0.30927  -0.29631
 Alpha  occ. eigenvalues --   -0.29139  -0.28137
 Alpha virt. eigenvalues --    0.12233   0.13786   0.15057   0.16650   0.17733
 Alpha virt. eigenvalues --    0.18274   0.18728   0.19688   0.21381   0.22160
 Alpha virt. eigenvalues --    0.22983   0.23011   0.23536   0.24964   0.25234

 Mulliken charges:
               1
     1  C   -1.208006
     2  C   -0.378221
     3  Cl  -0.025287
     4  H    0.243237
     5  N    0.849704
     6  H    0.412936
     7  H    0.148182
     8  C   -1.459139
     9  N    1.018010
    10  C   -1.722834
    11  N    1.043045
    12  N    0.719294
    13  H    0.200892
    14  H    0.219638
    15  F   -1.061450
 Sum of Mulliken charges =  -1.00000

 Dipole moment (field-independent basis, Debye):
    X=             -3.1750    Y=             -2.1174    Z=              2.9852  Tot=              4.8451

 Test job not archived.
 1\1\GINC-SE188\SP\RHF\Aug-CC-pVDZ\C4H5Cl1F1N4(1-)\OHZDE\09-Apr-2025\0\
 \#t hf aug-cc-pvdz iop(5/13=1,5/36=2,99/5=2) pseudo=read geom=check gu
 ess=(read,tcheck) scf=(maxcycle=1)\\title\\-1,1\C,0,-0.021537,-0.01415
 8,-1.513395\C,0,0.082904,0.101573,0.021873\Cl,0,0.39039,1.722356,-2.17
 9312\H,0,1.14971,0.299259,0.175482\N,0,0.832082,-1.006158,-1.951805\H,
 0,1.782615,-0.861089,-1.426451\H,0,0.88011,-1.058956,-2.96026\C,0,-1.4
 17071,-0.192321,-1.940818\N,0,-2.535952,-0.372247,-2.253932\C,0,-0.192
 398,-1.22352,0.607979\N,0,-0.487699,-2.211352,1.17296\N,0,-0.786078,1.

 Normal termination of Gaussian 16 at Wed Apr  9 02:38:36 2025.
