 Gaussian 16, Revision C.01,

 ----------------------------------------------------------------------
 #t hf aug-cc-pvdz symm=none int=(grid=ultrafine) guess=(read,tcheck) s
 table=(opt,rrhf)
 ----------------------------------------------------------------------
 -----
 title
 -----
 Symbolic Z-matrix:
 Charge = -1 Multiplicity = 1

 SCF Done:  E(RHF) =  -403.486907029     A.U. after   15 cycles
 Normal termination of Gaussian 16 at Wed Apr  9 02:38:08 2025.
 Gaussian 16:  ES64L-G16RevC.01  3-Jul-2019

 ----------------------------------------------------------------------
 #t hf aug-cc-pvdz iop(5/13=1,5/36=2,99/5=2) pseudo=read geom=check gue
 ss=(read,tcheck) scf=(maxcycle=1)
 ----------------------------------------------------------------------
 -----
 title
 -----
 Structure from the checkpoint file:  "E2SN2_155_mol2.chk"
 Charge = -1 Multiplicity = 1

                         Standard orientation:
 ---------------------------------------------------------------------
 Center     Atomic      Atomic             Coordinates (Angstroms)
 Number     Number       Type             X           Y           Z
 ---------------------------------------------------------------------
      1          6           0       -0.759284   -0.268677   -0.103081
      2          6           0        0.447645    0.492925    0.484781
      3          9           0       -0.544054   -0.378735   -1.495954
      4          1           0        0.273353    0.413386    1.564988
      5          7           0       -0.892235   -1.585798    0.442857
      6          1           0       -0.004207   -2.069943    0.333666
      7          1           0       -1.012278   -1.420027    1.464675
      8          6           0       -2.049809    0.483500    0.121994
      9          1           0       -2.051576    1.438290   -0.407276
     10          1           0       -2.164715    0.631106    1.200781
     11          1           0       -2.866801   -0.137099   -0.249346
     12          6           0        0.571507    1.954276    0.047561
     13          1           0       -0.243643    2.539305    0.476121
     14          1           0        0.538553    2.037781   -1.041558
     15          1           0        1.512622    2.383249    0.400958
     16          6           0        1.676234   -0.229399    0.161921
     17          7           0        2.677278   -0.790104   -0.093653
     18          1           0       -0.897887   -0.371876    2.997084
 ---------------------------------------------------------------------

 SCF Done:  E(RHF) =  -403.901099897     A.U. after    2 cycles

 The electronic state is 1-A.
 Alpha  occ. eigenvalues --  -26.31588 -15.39215 -15.34597 -11.22541 -11.16552
 Alpha  occ. eigenvalues --  -11.14395 -11.13272 -11.10166  -1.43934  -1.10143
 Alpha  occ. eigenvalues --   -1.06927  -0.96226  -0.87161  -0.79978  -0.68978
 Alpha  occ. eigenvalues --   -0.61063  -0.59006  -0.55041  -0.54353  -0.49670
 Alpha  occ. eigenvalues --   -0.48318  -0.47193  -0.45746  -0.44021  -0.43008
 Alpha  occ. eigenvalues --   -0.42106  -0.41043  -0.39013  -0.36512  -0.35522
 Alpha  occ. eigenvalues --   -0.30671  -0.10215
 Alpha virt. eigenvalues --    0.12039   0.12525   0.13701   0.14221   0.16140
 Alpha virt. eigenvalues --    0.16664   0.17609   0.18123   0.19412   0.20189
 Alpha virt. eigenvalues --    0.21114   0.22201   0.23308   0.24339   0.25225

 Mulliken charges:
               1
     1  C   -0.732882
     2  C   -0.018435
     3  F   -1.070294
     4  H    0.222082
     5  N    0.702200
     6  H    0.238983
     7  H    0.264024
     8  C   -0.079358
     9  H    0.198443
    10  H    0.240794
    11  H    0.162900
    12  C   -0.055881
    13  H    0.197859
    14  H    0.267908
    15  H    0.085979
    16  C   -1.920276
    17  N    1.068616
    18  H   -0.772660
 Sum of Mulliken charges =  -1.00000

 Dipole moment (field-independent basis, Debye):
    X=             -0.0776    Y=              4.7783    Z=             -7.8621  Tot=              9.2006

 Test job not archived.
 1\1\GINC-SE335\SP\RHF\Aug-CC-pVDZ\C5H10F1N2(1-)\OHZDE\09-Apr-2025\0\\#
 t hf aug-cc-pvdz iop(5/13=1,5/36=2,99/5=2) pseudo=read geom=check gues
 s=(read,tcheck) scf=(maxcycle=1)\\title\\-1,1\C,0,-0.283825,0.003249,-
 1.452283\C,0,-0.026023,-0.00191,0.069495\F,0,-1.680995,0.113167,-1.637
 664\H,0,1.068436,0.050935,0.123508\N,0,0.351125,1.105516,-2.109838\H,0
 ,0.072496,1.963678,-1.639907\H,0,1.362812,0.970888,-1.899199\C,0,0.182
 95,-1.281207,-2.095848\H,0,-0.385153,-2.138853,-1.73053\H,0,1.249921,-
 1.393786,-1.877509\H,0,0.040211,-1.185571,-3.173341\C,0,-0.561272,-1.2

 Normal termination of Gaussian 16 at Wed Apr  9 02:38:16 2025.
