 Gaussian 16, Revision C.01,

 ----------------------------------------------------------------------
 #t hf aug-cc-pvdz symm=none int=(grid=ultrafine) guess=(read,tcheck) s
 table=(opt,rrhf)
 ----------------------------------------------------------------------
 -----
 title
 -----
 Symbolic Z-matrix:
 Charge = -1 Multiplicity = 1

 SCF Done:  E(RHF) =  -839.511055449     A.U. after   14 cycles
 Normal termination of Gaussian 16 at Wed Apr  9 02:39:56 2025.
 Gaussian 16:  ES64L-G16RevC.01  3-Jul-2019

 ----------------------------------------------------------------------
 #t hf aug-cc-pvdz iop(5/13=1,5/36=2,99/5=2) pseudo=read geom=check gue
 ss=(read,tcheck) scf=(maxcycle=1)
 ----------------------------------------------------------------------
 -----
 title
 -----
 Structure from the checkpoint file:  "E2SN2_181_mol2.chk"
 Charge = -1 Multiplicity = 1

                         Standard orientation:
 ---------------------------------------------------------------------
 Center     Atomic      Atomic             Coordinates (Angstroms)
 Number     Number       Type             X           Y           Z
 ---------------------------------------------------------------------
      1          6           0       -0.831090    0.053062   -0.526996
      2          6           0       -0.388906    0.994976    0.603337
      3          9           0       -1.479469    0.753980   -1.538585
      4          1           0       -1.279626    1.554412    0.918557
      5          1           0        0.051701   -0.446494   -0.938138
      6          6           0       -1.783291   -0.945710   -0.011024
      7          7           0       -2.568893   -1.707706    0.413634
      8          7           0        0.574639    1.918388    0.044143
      9          1           0        0.901357    2.495192    0.812200
     10          1           0        1.376102    1.361989   -0.255266
     11          7           0        0.136690    0.277288    1.757946
     12          1           0        0.945623   -0.260452    1.446002
     13          1           0       -0.552189   -0.361811    2.140019
     14         17           0        2.523231   -0.891671   -0.363416
 ---------------------------------------------------------------------

 SCF Done:  E(RHF) =  -839.968329215     A.U. after    2 cycles

 The electronic state is 1-A.
 Alpha  occ. eigenvalues -- -105.29320 -26.35266 -15.42272 -15.36568 -15.36191
 Alpha  occ. eigenvalues --  -11.24043 -11.18939 -11.18855 -10.33925  -7.50688
 Alpha  occ. eigenvalues --   -7.50659  -7.50656  -1.47517  -1.12909  -1.11280
 Alpha  occ. eigenvalues --   -1.01317  -0.91437  -0.75729  -0.74515  -0.65990
 Alpha  occ. eigenvalues --   -0.60795  -0.59478  -0.57691  -0.53920  -0.52528
 Alpha  occ. eigenvalues --   -0.51788  -0.46617  -0.45494  -0.43185  -0.40215
 Alpha  occ. eigenvalues --   -0.38983  -0.34058  -0.32216  -0.22032  -0.21782
 Alpha  occ. eigenvalues --   -0.21718
 Alpha virt. eigenvalues --    0.12997   0.14170   0.14698   0.16089   0.17852
 Alpha virt. eigenvalues --    0.18300   0.18802   0.19956   0.21757   0.23343
 Alpha virt. eigenvalues --    0.23999   0.24381   0.25540   0.25615   0.26228

 Mulliken charges:
               1
     1  C    2.214538
     2  C   -2.884685
     3  F   -0.861488
     4  H   -0.020135
     5  H    0.141760
     6  C   -1.809667
     7  N    0.845368
     8  N    0.787359
     9  H    0.225300
    10  H    0.188948
    11  N    0.728665
    12  H    0.204120
    13  H    0.205573
    14  Cl  -0.965656
 Sum of Mulliken charges =  -1.00000

 Dipole moment (field-independent basis, Debye):
    X=             -5.1450    Y=              3.7791    Z=              1.3185  Tot=              6.5185

 Test job not archived.
 1\1\GINC-SE332\SP\RHF\Aug-CC-pVDZ\C3H6Cl1F1N3(1-)\OHZDE\09-Apr-2025\0\
 \#t hf aug-cc-pvdz iop(5/13=1,5/36=2,99/5=2) pseudo=read geom=check gu
 ess=(read,tcheck) scf=(maxcycle=1)\\title\\-1,1\C,0,-0.234065,-0.09501
 7,0.006196\C,0,-0.474297,0.602259,-1.341571\F,0,0.839451,0.476227,0.68
 1649\H,0,0.480864,0.58667,-1.882994\H,0,-1.13768,-0.006454,0.617385\C,
 0,0.093902,-1.515047,-0.209238\N,0,0.390185,-2.6337,-0.406659\N,0,-0.8
 34322,1.975104,-1.059639\H,0,-1.04684,2.407201,-1.952661\H,0,-1.712276
 ,1.948366,-0.539975\N,0,-1.475381,-0.077562,-2.15405\H,0,-2.3497,-0.08

 Normal termination of Gaussian 16 at Wed Apr  9 02:40:00 2025.
