 Gaussian 16, Revision C.01,

 ----------------------------------------------------------------------
 #t hf aug-cc-pvdz symm=none int=(grid=ultrafine) guess=(read,tcheck) s
 table=(opt,rrhf)
 ----------------------------------------------------------------------
 -----
 title
 -----
 Symbolic Z-matrix:
 Charge = -1 Multiplicity = 1

 SCF Done:  E(RHF) =  -931.211296057     A.U. after   16 cycles
 Normal termination of Gaussian 16 at Wed Apr  9 03:00:44 2025.
 Gaussian 16:  ES64L-G16RevC.01  3-Jul-2019

 ----------------------------------------------------------------------
 #t hf aug-cc-pvdz iop(5/13=1,5/36=2,99/5=2) pseudo=read geom=check gue
 ss=(read,tcheck) scf=(maxcycle=1)
 ----------------------------------------------------------------------
 -----
 title
 -----
 Structure from the checkpoint file:  "E2SN2_417_mol2.chk"
 Charge = -1 Multiplicity = 1

                         Standard orientation:
 ---------------------------------------------------------------------
 Center     Atomic      Atomic             Coordinates (Angstroms)
 Number     Number       Type             X           Y           Z
 ---------------------------------------------------------------------
      1          6           0       -0.553214    0.554117   -0.041028
      2          6           0        0.294274   -0.750570   -0.028020
      3         17           0        0.568566    1.980536    0.056097
      4          1           0       -0.552875   -1.500825   -0.100435
      5          7           0       -1.237394    0.555709   -1.298548
      6          1           0       -1.817037   -0.297319   -1.224022
      7          1           0       -1.862881    1.355827   -1.284191
      8          7           0       -1.460999    0.621750    1.071332
      9          1           0       -0.954975    0.583084    1.950468
     10          1           0       -2.015852   -0.239981    0.949612
     11          6           0        0.999333   -0.925735    1.234313
     12          7           0        1.540298   -1.069223    2.267598
     13          6           0        1.209003   -0.869027   -1.155482
     14          7           0        1.965695   -1.009982   -2.043062
     15          9           0       -2.201287   -1.701155   -0.142778
 ---------------------------------------------------------------------

 SCF Done:  E(RHF) =  -931.748604621     A.U. after    2 cycles

 The electronic state is 1-A.
 Alpha  occ. eigenvalues -- -105.43953 -26.14813 -15.41714 -15.40723 -15.37220
 Alpha  occ. eigenvalues --  -15.36808 -11.26159 -11.19219 -11.19150 -11.18342
 Alpha  occ. eigenvalues --  -10.48898  -7.65825  -7.65472  -7.65462  -1.22036
 Alpha  occ. eigenvalues --   -1.15458  -1.11962  -1.10849  -1.02883  -0.97317
 Alpha  occ. eigenvalues --   -0.93254  -0.72313  -0.67166  -0.62458  -0.59572
 Alpha  occ. eigenvalues --   -0.56063  -0.54900  -0.52389  -0.50126  -0.49391
 Alpha  occ. eigenvalues --   -0.43041  -0.40210  -0.40088  -0.38863  -0.38340
 Alpha  occ. eigenvalues --   -0.35884  -0.34748  -0.34492  -0.33634  -0.30842
 Alpha  occ. eigenvalues --   -0.30536  -0.28995
 Alpha virt. eigenvalues --    0.13623   0.14529   0.15700   0.17199   0.17482
 Alpha virt. eigenvalues --    0.18016   0.18230   0.18724   0.22242   0.23301
 Alpha virt. eigenvalues --    0.23651   0.23931   0.24707   0.25337   0.25785

 Mulliken charges:
               1
     1  C   -3.566976
     2  C    1.273759
     3  Cl   0.003932
     4  H    0.481632
     5  N    0.860889
     6  H    0.293425
     7  H    0.277409
     8  N    0.866610
     9  H    0.262726
    10  H    0.318579
    11  C   -1.537593
    12  N    0.935751
    13  C   -1.393495
    14  N    0.916947
    15  F   -0.993596
 Sum of Mulliken charges =  -1.00000

 Dipole moment (field-independent basis, Debye):
    X=             -0.0981    Y=              3.8774    Z=              1.0068  Tot=              4.0072

 Test job not archived.
 1\1\GINC-SE195\SP\RHF\Aug-CC-pVDZ\C4H5Cl1F1N4(1-)\OHZDE\09-Apr-2025\0\
 \#t hf aug-cc-pvdz iop(5/13=1,5/36=2,99/5=2) pseudo=read geom=check gu
 ess=(read,tcheck) scf=(maxcycle=1)\\title\\-1,1\C,0,-0.009419,0.003407
 ,0.0071\C,0,-0.540726,0.199878,-1.441943\Cl,0,1.807332,-0.012076,-0.03
 377\H,0,-1.651727,0.190255,-1.215287\N,0,-0.471593,1.140675,0.743631\H
 ,0,-1.497722,1.032872,0.675549\H,0,-0.208402,0.982189,1.711744\N,0,-0.
 454946,-1.235255,0.584348\H,0,-0.145152,-2.023797,0.025183\H,0,-1.4812
 63,-1.145163,0.522594\C,0,-0.204331,-0.928159,-2.299641\N,0,0.049204,-

 Normal termination of Gaussian 16 at Wed Apr  9 03:00:52 2025.
