 Gaussian 16, Revision C.01,

 ----------------------------------------------------------------------
 #t hf aug-cc-pvdz symm=none int=(grid=ultrafine) guess=(read,tcheck) s
 table=(opt,rrhf)
 ----------------------------------------------------------------------
 -----
 title
 -----
 Symbolic Z-matrix:
 Charge = -1 Multiplicity = 1

 SCF Done:  E(RHF) =  -779.540294891     A.U. after   17 cycles
 Normal termination of Gaussian 16 at Wed Apr  9 02:35:17 2025.
 Gaussian 16:  ES64L-G16RevC.01  3-Jul-2019

 ----------------------------------------------------------------------
 #t hf aug-cc-pvdz iop(5/13=1,5/36=2,99/5=2) pseudo=read geom=check gue
 ss=(read,tcheck) scf=(maxcycle=1)
 ----------------------------------------------------------------------
 -----
 title
 -----
 Structure from the checkpoint file:  "E2SN2_114_mol2.chk"
 Charge = -1 Multiplicity = 1

                         Standard orientation:
 ---------------------------------------------------------------------
 Center     Atomic      Atomic             Coordinates (Angstroms)
 Number     Number       Type             X           Y           Z
 ---------------------------------------------------------------------
      1          6           0       -0.577066    0.383743    0.252916
      2          6           0        0.790114    0.392041   -0.455504
      3         17           0       -1.459795   -1.195016   -0.561628
      4          1           0        0.567733    0.397211   -1.535541
      5          6           0       -0.534248    0.026090    1.721725
      6          1           0       -0.133006   -0.974233    1.884685
      7          1           0       -1.540792    0.073315    2.145055
      8          1           0        0.101016    0.768983    2.210072
      9          7           0       -1.217959    1.555537   -0.023157
     10          1           0       -0.967631    2.030969   -0.925859
     11          1           0       -2.170892    1.634488    0.295981
     12          6           0        1.566009   -0.807790   -0.135131
     13          7           0        2.248740   -1.731428    0.111281
     14          7           0        1.529679    1.590599   -0.049796
     15          1           0        2.488383    1.476459   -0.370645
     16          1           0        1.116919    2.322267   -0.656998
     17          1           0       -0.037290    2.718357   -2.071396
 ---------------------------------------------------------------------

 SCF Done:  E(RHF) =  -779.953475132     A.U. after    2 cycles

 The electronic state is 1-A.
 Alpha  occ. eigenvalues -- -105.39660 -15.40227 -15.36646 -15.36349 -11.23046
 Alpha  occ. eigenvalues --  -11.18621 -11.17366 -11.12572 -10.44534  -7.61410
 Alpha  occ. eigenvalues --   -7.61151  -7.61139  -1.13135  -1.10334  -1.05574
 Alpha  occ. eigenvalues --   -0.93274  -0.85665  -0.84687  -0.71076  -0.63078
 Alpha  occ. eigenvalues --   -0.56995  -0.55962  -0.55225  -0.52000  -0.48572
 Alpha  occ. eigenvalues --   -0.47036  -0.45648  -0.43548  -0.40909  -0.38519
 Alpha  occ. eigenvalues --   -0.37419  -0.32187  -0.31404  -0.30623  -0.28291
 Alpha  occ. eigenvalues --   -0.12215
 Alpha virt. eigenvalues --    0.12253   0.13661   0.14058   0.14644   0.15470
 Alpha virt. eigenvalues --    0.16410   0.18699   0.19142   0.19457   0.20765
 Alpha virt. eigenvalues --    0.21196   0.23208   0.23816   0.24843   0.25089

 Mulliken charges:
               1
     1  C   -1.747226
     2  C   -0.203795
     3  Cl  -0.274183
     4  H    0.168249
     5  C    0.184860
     6  H    0.273863
     7  H    0.115284
     8  H    0.353516
     9  N    0.838757
    10  H    0.109290
    11  H    0.139370
    12  C   -2.274618
    13  N    1.057143
    14  N    0.539981
    15  H    0.185606
    16  H    0.248917
    17  H   -0.715014
 Sum of Mulliken charges =  -1.00000

 Dipole moment (field-independent basis, Debye):
    X=             -1.5235    Y=             -3.6331    Z=              5.9618  Tot=              7.1459

 Test job not archived.
 1\1\GINC-SE054\SP\RHF\Aug-CC-pVDZ\C4H9Cl1N3(1-)\OHZDE\09-Apr-2025\0\\#
 t hf aug-cc-pvdz iop(5/13=1,5/36=2,99/5=2) pseudo=read geom=check gues
 s=(read,tcheck) scf=(maxcycle=1)\\title\\-1,1\C,0,-0.316894,0.002992,-
 1.498137\C,0,0.004225,-0.10402,0.004041\Cl,0,-0.008127,-1.853788,-2.12
 44\H,0,1.019404,-0.530424,0.063624\C,0,-1.775523,0.23153,-1.825736\H,0
 ,-2.404951,-0.582645,-1.466378\H,0,-1.903515,0.322407,-2.907368\H,0,-2
 .064796,1.169222,-1.345124\N,0,0.535464,0.905683,-2.062668\H,0,1.46877
 5,1.031098,-1.597079\H,0,0.500455,0.99249,-3.066363\C,0,-0.929529,-1.0

 Normal termination of Gaussian 16 at Wed Apr  9 02:35:25 2025.
