 Gaussian 16, Revision C.01,

 ----------------------------------------------------------------------
 #t hf aug-cc-pvdz symm=none int=(grid=ultrafine) guess=(read,tcheck) s
 table=(opt,rrhf)
 ----------------------------------------------------------------------
 -----
 title
 -----
 Symbolic Z-matrix:
 Charge = -1 Multiplicity = 1

 SCF Done:  E(RHF) =  -931.267047513     A.U. after   14 cycles
 Normal termination of Gaussian 16 at Wed Apr  9 03:00:45 2025.
 Gaussian 16:  ES64L-G16RevC.01  3-Jul-2019

 ----------------------------------------------------------------------
 #t hf aug-cc-pvdz iop(5/13=1,5/36=2,99/5=2) pseudo=read geom=check gue
 ss=(read,tcheck) scf=(maxcycle=1)
 ----------------------------------------------------------------------
 -----
 title
 -----
 Structure from the checkpoint file:  "E2SN2_416_mol2.chk"
 Charge = -1 Multiplicity = 1

                         Standard orientation:
 ---------------------------------------------------------------------
 Center     Atomic      Atomic             Coordinates (Angstroms)
 Number     Number       Type             X           Y           Z
 ---------------------------------------------------------------------
      1          6           0       -0.140130   -0.128605    0.959331
      2          6           0       -0.576787    0.067381   -0.508446
      3          9           0       -1.273810   -0.231485    1.752615
      4          1           0        0.361991    0.139645   -1.084832
      5          7           0        0.533037   -1.394329    1.040909
      6          1           0        0.778558   -1.559765    2.011693
      7          1           0        1.400511   -1.299608    0.508695
      8          7           0        0.537722    1.069333    1.368954
      9          1           0        0.775737    0.977427    2.351294
     10          1           0        1.408966    1.110183    0.835999
     11          6           0       -1.352246    1.298946   -0.674195
     12          7           0       -2.000196    2.260990   -0.852713
     13          6           0       -1.362698   -1.072288   -0.987069
     14          7           0       -2.020481   -1.950598   -1.403175
     15         17           0        2.822301    0.107359   -0.835996
 ---------------------------------------------------------------------

 SCF Done:  E(RHF) =  -931.805788772     A.U. after    2 cycles

 The electronic state is 1-A.
 Alpha  occ. eigenvalues -- -105.31459 -26.35732 -15.42111 -15.42094 -15.38906
 Alpha  occ. eigenvalues --  -15.38795 -11.29600 -11.21847 -11.19590 -11.19576
 Alpha  occ. eigenvalues --  -10.36101  -7.52870  -7.52832  -7.52831  -1.49180
 Alpha  occ. eigenvalues --   -1.14891  -1.12437  -1.11898  -1.05256  -0.99062
 Alpha  occ. eigenvalues --   -0.77808  -0.76835  -0.69256  -0.67199  -0.61897
 Alpha  occ. eigenvalues --   -0.61286  -0.57268  -0.56081  -0.52767  -0.50996
 Alpha  occ. eigenvalues --   -0.50471  -0.48053  -0.48034  -0.41714  -0.40612
 Alpha  occ. eigenvalues --   -0.40157  -0.39321  -0.37269  -0.33868  -0.24474
 Alpha  occ. eigenvalues --   -0.24050  -0.23971
 Alpha virt. eigenvalues --    0.12020   0.13732   0.15225   0.16890   0.17684
 Alpha virt. eigenvalues --    0.17926   0.18321   0.19031   0.21782   0.22345
 Alpha virt. eigenvalues --    0.23377   0.24232   0.24294   0.24754   0.25007

 Mulliken charges:
               1
     1  C   -1.175013
     2  C    0.573915
     3  F   -0.978362
     4  H    0.307237
     5  N    0.603974
     6  H    0.249415
     7  H    0.277906
     8  N    0.603548
     9  H    0.251591
    10  H    0.276274
    11  C   -1.486498
    12  N    0.959695
    13  C   -1.486178
    14  N    0.960250
    15  Cl  -0.937754
 Sum of Mulliken charges =  -1.00000

 Dipole moment (field-independent basis, Debye):
    X=             -1.6469    Y=             -0.7271    Z=              5.3990  Tot=              5.6912

 Test job not archived.
 1\1\GINC-SE054\SP\RHF\Aug-CC-pVDZ\C4H5Cl1F1N4(1-)\OHZDE\09-Apr-2025\0\
 \#t hf aug-cc-pvdz iop(5/13=1,5/36=2,99/5=2) pseudo=read geom=check gu
 ess=(read,tcheck) scf=(maxcycle=1)\\title\\-1,1\C,0,-0.00871,0.007875,
 -0.007477\C,0,-0.468758,0.046308,-1.48068\F,0,1.378243,0.023024,0.0278
 3\H,0,-1.571989,0.034489,-1.442097\N,0,-0.447455,1.227476,0.610539\H,0
 ,-0.105061,1.23868,1.565898\H,0,-1.468346,1.188876,0.642598\N,0,-0.417
 394,-1.25666,0.53682\H,0,-0.066771,-1.319644,1.487181\H,0,-1.438605,-1
 .242014,0.577913\C,0,0.010533,-1.124024,-2.219708\N,0,0.392901,-2.0296

 Normal termination of Gaussian 16 at Wed Apr  9 03:00:53 2025.
