 Gaussian 16, Revision C.01,

 ----------------------------------------------------------------------
 #t hf aug-cc-pvdz symm=none int=(grid=ultrafine) guess=(read,tcheck) s
 table=(opt,rrhf)
 ----------------------------------------------------------------------
 -----
 title
 -----
 Symbolic Z-matrix:
 Charge = -1 Multiplicity = 1

 SCF Done:  E(RHF) =  -839.415933353     A.U. after   16 cycles
 Normal termination of Gaussian 16 at Wed Apr  9 02:39:57 2025.
 Gaussian 16:  ES64L-G16RevC.01  3-Jul-2019

 ----------------------------------------------------------------------
 #t hf aug-cc-pvdz iop(5/13=1,5/36=2,99/5=2) pseudo=read geom=check gue
 ss=(read,tcheck) scf=(maxcycle=1)
 ----------------------------------------------------------------------
 -----
 title
 -----
 Structure from the checkpoint file:  "E2SN2_181_mol1.chk"
 Charge = -1 Multiplicity = 1

                         Standard orientation:
 ---------------------------------------------------------------------
 Center     Atomic      Atomic             Coordinates (Angstroms)
 Number     Number       Type             X           Y           Z
 ---------------------------------------------------------------------
      1          6           0       -0.063945    0.197010   -0.534725
      2          1           0        0.281588   -1.875920   -0.286146
      3          9           0        1.459087    1.436297   -0.833294
      4         17           0       -1.999223   -0.785237   -0.446354
      5          6           0        0.757761   -0.956452    0.067667
      6          1           0       -0.107272    0.292692   -1.603444
      7          6           0       -0.461219    1.320956    0.279467
      8          7           0       -0.873370    2.172409    0.978135
      9          7           0        0.680530   -0.850151    1.532172
     10          1           0        0.988339   -1.737413    1.918393
     11          1           0       -0.295197   -0.749923    1.798635
     12          7           0        2.122040   -0.958042   -0.425119
     13          1           0        2.696098   -1.451467    0.249590
     14          1           0        2.391472    0.025795   -0.460138
 ---------------------------------------------------------------------

 SCF Done:  E(RHF) =  -839.871390277     A.U. after    2 cycles

 The electronic state is 1-A.
 Alpha  occ. eigenvalues -- -105.36805 -26.15386 -15.36947 -15.36599 -15.34326
 Alpha  occ. eigenvalues --  -11.23938 -11.18033 -11.15466 -10.41603  -7.58449
 Alpha  occ. eigenvalues --   -7.58243  -7.58237  -1.23260  -1.10560  -1.07026
 Alpha  occ. eigenvalues --   -1.00514  -0.92417  -0.80866  -0.73984  -0.60897
 Alpha  occ. eigenvalues --   -0.60393  -0.55534  -0.52432  -0.49085  -0.46266
 Alpha  occ. eigenvalues --   -0.44771  -0.41212  -0.34775  -0.34312  -0.33406
 Alpha  occ. eigenvalues --   -0.32142  -0.30593  -0.29637  -0.28421  -0.27711
 Alpha  occ. eigenvalues --   -0.26542
 Alpha virt. eigenvalues --    0.12274   0.14120   0.14829   0.15285   0.16829
 Alpha virt. eigenvalues --    0.18258   0.19718   0.20033   0.23061   0.23640
 Alpha virt. eigenvalues --    0.24325   0.25070   0.25552   0.26853   0.27493

 Mulliken charges:
               1
     1  C    1.096611
     2  H    0.070460
     3  F   -0.933432
     4  Cl  -0.525229
     5  C   -1.881766
     6  H   -0.066589
     7  C   -1.759159
     8  N    0.932452
     9  N    0.555812
    10  H    0.115183
    11  H    0.239482
    12  N    0.595581
    13  H    0.212531
    14  H    0.348064
 Sum of Mulliken charges =  -1.00000

 Dipole moment (field-independent basis, Debye):
    X=              1.1770    Y=             -5.8113    Z=              0.8373  Tot=              5.9881

 Test job not archived.
 1\1\GINC-SE250\SP\RHF\Aug-CC-pVDZ\C3H6Cl1F1N3(1-)\OHZDE\09-Apr-2025\0\
 \#t hf aug-cc-pvdz iop(5/13=1,5/36=2,99/5=2) pseudo=read geom=check gu
 ess=(read,tcheck) scf=(maxcycle=1)\\title\\-1,1\C,0,0.75151142,0.04566
 563,-0.01037551\H,0,1.68394225,1.89630996,-0.43922637\F,0,-1.11878819,
 -0.28981099,-0.58833487\Cl,0,2.82681888,-0.10478338,0.61282523\C,0,0.6
 9386601,1.5812106,-0.09599441\H,0,0.93093234,-0.51209402,-0.91032268\C
 ,0,0.22813305,-0.64713976,1.14291774\N,0,-0.09770306,-1.19017544,2.133
 83739\N,0,0.41103614,2.09903351,1.25081903\H,0,0.63285828,3.08996075,1

 Normal termination of Gaussian 16 at Wed Apr  9 02:40:03 2025.
