 Gaussian 16, Revision C.01,

 ----------------------------------------------------------------------
 #t hf aug-cc-pvdz symm=none int=(grid=ultrafine) guess=(read,tcheck) s
 table=(opt,rrhf)
 ----------------------------------------------------------------------
 -----
 title
 -----
 Symbolic Z-matrix:
 Charge = -1 Multiplicity = 1

 SCF Done:  E(RHF) =  -552.785677107     A.U. after   16 cycles
 Normal termination of Gaussian 16 at Wed Apr  9 03:00:39 2025.
 Gaussian 16:  ES64L-G16RevC.01  3-Jul-2019

 ----------------------------------------------------------------------
 #t hf aug-cc-pvdz iop(5/13=1,5/36=2,99/5=2) pseudo=read geom=check gue
 ss=(read,tcheck) scf=(maxcycle=1)
 ----------------------------------------------------------------------
 -----
 title
 -----
 Structure from the checkpoint file:  "E2SN2_53_mol2.chk"
 Charge = -1 Multiplicity = 1

                         Standard orientation:
 ---------------------------------------------------------------------
 Center     Atomic      Atomic             Coordinates (Angstroms)
 Number     Number       Type             X           Y           Z
 ---------------------------------------------------------------------
      1          6           0       -0.440515   -0.481860    0.663892
      2          6           0        0.573615   -0.012940   -0.380617
      3          9           0       -0.155767    0.049089    1.922934
      4          1           0        0.206345   -0.640473   -1.207163
      5          1           0       -0.385856   -1.566291    0.698822
      6          6           0       -1.802998   -0.079024    0.295184
      7          7           0       -2.900145    0.306874    0.138296
      8          6           0        1.920838   -0.403817    0.012109
      9          7           0        3.004948   -0.745095    0.310103
     10          6           0        0.502281    1.418768   -0.634634
     11          7           0        0.441013    2.568977   -0.868069
     12          9           0       -0.750958   -1.755232   -1.510663
 ---------------------------------------------------------------------

 SCF Done:  E(RHF) =  -553.301330943     A.U. after    2 cycles

 The electronic state is 1-A.
 Alpha  occ. eigenvalues --  -26.37145 -26.13447 -15.42412 -15.42256 -15.41350
 Alpha  occ. eigenvalues --  -11.27682 -11.19971 -11.19863 -11.19580 -11.18357
 Alpha  occ. eigenvalues --   -1.49449  -1.20616  -1.13409  -1.12119  -1.11320
 Alpha  occ. eigenvalues --   -1.01973  -0.87441  -0.70860  -0.64271  -0.63386
 Alpha  occ. eigenvalues --   -0.61164  -0.55895  -0.51581  -0.51234  -0.50857
 Alpha  occ. eigenvalues --   -0.48055  -0.46787  -0.41074  -0.40918  -0.39879
 Alpha  occ. eigenvalues --   -0.39312  -0.39038  -0.37363  -0.30035  -0.29797
 Alpha  occ. eigenvalues --   -0.27839
 Alpha virt. eigenvalues --    0.14183   0.15101   0.17008   0.17686   0.19265
 Alpha virt. eigenvalues --    0.20109   0.21178   0.21912   0.22601   0.22946
 Alpha virt. eigenvalues --    0.23333   0.24318   0.25062   0.25364   0.25913

 Mulliken charges:
               1
     1  C    1.755629
     2  C    0.078595
     3  F   -0.851000
     4  H    0.535697
     5  H    0.289412
     6  C   -1.889286
     7  N    0.959699
     8  C   -1.278288
     9  N    0.890456
    10  C   -1.422298
    11  N    0.880326
    12  F   -0.948942
 Sum of Mulliken charges =  -1.00000

 Dipole moment (field-independent basis, Debye):
    X=              1.7212    Y=              0.4406    Z=              3.8316  Tot=              4.2235

 Test job not archived.
 1\1\GINC-SE177\SP\RHF\Aug-CC-pVDZ\C5H2F2N3(1-)\OHZDE\09-Apr-2025\0\\#t
  hf aug-cc-pvdz iop(5/13=1,5/36=2,99/5=2) pseudo=read geom=check guess
 =(read,tcheck) scf=(maxcycle=1)\\title\\-1,1\C,0,-0.109041,-0.066178,-
 1.43364\C,0,0.007028,0.016009,0.089225\F,0,-1.43648,-0.226086,-1.83427
 9\H,0,1.106946,0.017544,0.134416\H,0,0.479505,-0.921336,-1.753822\C,0,
 0.41758,1.14738,-2.069666\N,0,0.704071,2.127199,-2.648578\C,0,-0.53847
 6,-1.18712,0.703174\N,0,-0.948729,-2.169708,1.199944\C,0,-0.619398,1.2
 09101,0.640154\N,0,-1.099909,2.179046,1.097911\F,0,2.326076,-0.16305,-

 Normal termination of Gaussian 16 at Wed Apr  9 03:00:46 2025.
