 Gaussian 16, Revision C.01,

 ----------------------------------------------------------------------
 #t hf aug-cc-pvdz symm=none int=(grid=ultrafine) guess=(read,tcheck) s
 table=(opt,rrhf)
 ----------------------------------------------------------------------
 -----
 title
 -----
 Symbolic Z-matrix:
 Charge = -1 Multiplicity = 1

 SCF Done:  E(RHF) =  -1387.01746716     A.U. after   18 cycles
 Normal termination of Gaussian 16 at Wed Apr  9 03:01:49 2025.
 Gaussian 16:  ES64L-G16RevC.01  3-Jul-2019

 ----------------------------------------------------------------------
 #t hf aug-cc-pvdz iop(5/13=1,5/36=2,99/5=2) pseudo=read geom=check gue
 ss=(read,tcheck) scf=(maxcycle=1)
 ----------------------------------------------------------------------
 -----
 title
 -----
 Structure from the checkpoint file:  "E2SN2_43_mol1.chk"
 Charge = -1 Multiplicity = 1

                         Standard orientation:
 ---------------------------------------------------------------------
 Center     Atomic      Atomic             Coordinates (Angstroms)
 Number     Number       Type             X           Y           Z
 ---------------------------------------------------------------------
      1          6           0        0.478109    0.005932   -0.405326
      2          6           0       -0.472916    0.699554    0.378425
      3         17           0        2.614278    0.623098    0.374232
      4         17           0       -2.989736   -0.840090   -0.121224
      5          1           0       -1.736127   -0.112520    0.042674
      6          7           0        0.746542   -1.431748   -0.077187
      7          8           0        1.284823   -2.106201   -0.951465
      8          8           0        0.397723   -1.846264    1.021481
      9          7           0        0.570750    0.214424   -1.748684
     10          1           0        0.608848    1.195666   -1.987319
     11          1           0        1.317509   -0.325192   -2.162781
     12          6           0       -0.473228    0.665326    1.895775
     13          1           0        0.552052    0.776248    2.260619
     14          1           0       -1.081884    1.491340    2.269982
     15          1           0       -0.885646   -0.268040    2.274055
     16          6           0       -0.791724    1.970121   -0.195317
     17          7           0       -1.073547    3.003821   -0.688391
 ---------------------------------------------------------------------

 SCF Done:  E(RHF) =  -1387.63357122     A.U. after    2 cycles

 The electronic state is 1-A.
 Alpha  occ. eigenvalues -- -105.39590-105.35766 -20.49916 -20.49687 -15.70013
 Alpha  occ. eigenvalues --  -15.44118 -15.40062 -11.31382 -11.17905 -11.15325
 Alpha  occ. eigenvalues --  -11.12787 -10.44389 -10.40499  -7.61291  -7.61050
 Alpha  occ. eigenvalues --   -7.61045  -7.57318  -7.57161  -7.57161  -1.57245
 Alpha  occ. eigenvalues --   -1.41168  -1.18611  -1.10563  -1.01333  -0.95271
 Alpha  occ. eigenvalues --   -0.87652  -0.82528  -0.81988  -0.75448  -0.69165
 Alpha  occ. eigenvalues --   -0.67868  -0.64738  -0.63019  -0.60224  -0.53769
 Alpha  occ. eigenvalues --   -0.50259  -0.47943  -0.46298  -0.45283  -0.43298
 Alpha  occ. eigenvalues --   -0.40736  -0.39521  -0.39104  -0.37508  -0.35369
 Alpha  occ. eigenvalues --   -0.31308  -0.31163  -0.30417  -0.27968  -0.27709
 Alpha  occ. eigenvalues --   -0.21774
 Alpha virt. eigenvalues --    0.11993   0.12747   0.13298   0.14957   0.15615
 Alpha virt. eigenvalues --    0.15805   0.17009   0.19099   0.20092   0.21711
 Alpha virt. eigenvalues --    0.22678   0.22863   0.23323   0.24174   0.25248

 Mulliken charges:
               1
     1  C   -1.641350
     2  C   -0.150480
     3  Cl  -0.632665
     4  Cl  -0.505158
     5  H    1.029585
     6  N    3.232282
     7  O   -1.531978
     8  O   -1.526786
     9  N    0.900722
    10  H    0.289435
    11  H    0.235442
    12  C   -0.046690
    13  H    0.247694
    14  H    0.130746
    15  H    0.211615
    16  C   -2.256016
    17  N    1.013601
 Sum of Mulliken charges =  -1.00000

 Dipole moment (field-independent basis, Debye):
    X=              0.7225    Y=             -1.7668    Z=             -0.2550  Tot=              1.9258

 Test job not archived.
 1\1\GINC-SE229\SP\RHF\Aug-CC-pVDZ\C4H6Cl2N3O2(1-)\OHZDE\09-Apr-2025\0\
 \#t hf aug-cc-pvdz iop(5/13=1,5/36=2,99/5=2) pseudo=read geom=check gu
 ess=(read,tcheck) scf=(maxcycle=1)\\title\\-1,1\C,0,-0.35989143,0.1283
 4456,-0.18294442\C,0,-0.10015845,0.01079031,1.20217146\Cl,0,1.6713847,
 -0.25702962,-1.31308947\Cl,0,-2.83492754,-0.36454272,2.35746467\H,0,-1
 .53816102,-0.13523505,1.73011107\N,0,-0.99740399,-1.03499408,-0.880710
 73\O,0,-1.53038423,-0.80471894,-1.96325378\O,0,-0.9667157,-2.12649725,
 -0.32550883\N,0,-0.79149273,1.30316387,-0.72162967\H,0,-0.23244499,2.0

 Normal termination of Gaussian 16 at Wed Apr  9 03:02:02 2025.
