 Gaussian 16, Revision C.01,

 ----------------------------------------------------------------------
 #t hf aug-cc-pvdz symm=none int=(grid=ultrafine) guess=(read,tcheck) s
 table=(opt,rrhf)
 ----------------------------------------------------------------------
 -----
 title
 -----
 Symbolic Z-matrix:
 Charge = -1 Multiplicity = 1

 SCF Done:  E(RHF) =  -1384.70701636     A.U. after   17 cycles
 Normal termination of Gaussian 16 at Wed Apr  9 02:40:55 2025.
 Gaussian 16:  ES64L-G16RevC.01  3-Jul-2019

 ----------------------------------------------------------------------
 #t hf aug-cc-pvdz iop(5/13=1,5/36=2,99/5=2) pseudo=read geom=check gue
 ss=(read,tcheck) scf=(maxcycle=1)
 ----------------------------------------------------------------------
 -----
 title
 -----
 Structure from the checkpoint file:  "E2SN2_176_mol2.chk"
 Charge = -1 Multiplicity = 1

                         Standard orientation:
 ---------------------------------------------------------------------
 Center     Atomic      Atomic             Coordinates (Angstroms)
 Number     Number       Type             X           Y           Z
 ---------------------------------------------------------------------
      1          6           0        0.115389    0.707970    0.572476
      2          6           0       -0.068732   -0.601023   -0.184914
      3         17           0       -1.322174    1.104182    1.568833
      4          1           0        0.910224   -0.788208   -0.675403
      5          1           0        0.957768    0.528479    1.244086
      6          6           0        0.454992    1.843538   -0.279138
      7          7           0        0.718178    2.806718   -0.896451
      8          7           0       -1.144722   -0.557629   -1.239960
      9          8           0       -1.549965    0.540822   -1.603528
     10          8           0       -1.490795   -1.641205   -1.699432
     11          6           0       -0.353539   -1.707508    0.718281
     12          7           0       -0.586604   -2.588686    1.458272
     13         17           0        3.008142   -0.517000   -0.060496
 ---------------------------------------------------------------------

 SCF Done:  E(RHF) =  -1385.30069905     A.U. after    2 cycles

 The electronic state is 1-A.
 Alpha  occ. eigenvalues -- -105.49688-105.31051 -20.51950 -20.51551 -15.71619
 Alpha  occ. eigenvalues --  -15.44595 -15.43082 -11.27971 -11.27043 -11.21453
 Alpha  occ. eigenvalues --  -11.20354 -10.54515 -10.35689  -7.71471  -7.71074
 Alpha  occ. eigenvalues --   -7.71052  -7.52469  -7.52423  -7.52405  -1.59083
 Alpha  occ. eigenvalues --   -1.43122  -1.15442  -1.13593  -1.09966  -1.01991
 Alpha  occ. eigenvalues --   -0.90021  -0.83364  -0.76846  -0.73691  -0.69036
 Alpha  occ. eigenvalues --   -0.68141  -0.63154  -0.60693  -0.58160  -0.53015
 Alpha  occ. eigenvalues --   -0.52142  -0.50000  -0.44480  -0.42856  -0.41506
 Alpha  occ. eigenvalues --   -0.40921  -0.40706  -0.40040  -0.38322  -0.37715
 Alpha  occ. eigenvalues --   -0.36699  -0.23960  -0.23548  -0.23380
 Alpha virt. eigenvalues --    0.13613   0.14125   0.15498   0.16524   0.16986
 Alpha virt. eigenvalues --    0.18600   0.20457   0.20791   0.20872   0.21961
 Alpha virt. eigenvalues --    0.22194   0.22469   0.23324   0.23794   0.24525

 Mulliken charges:
               1
     1  C    0.231683
     2  C    0.454062
     3  Cl  -0.026216
     4  H    0.268194
     5  H    0.351830
     6  C   -1.577375
     7  N    0.988825
     8  N    2.937720
     9  O   -1.411078
    10  O   -1.511607
    11  C   -1.852056
    12  N    1.054221
    13  Cl  -0.908204
 Sum of Mulliken charges =  -1.00000

 Dipole moment (field-independent basis, Debye):
    X=             -7.5975    Y=              1.4474    Z=              1.4068  Tot=              7.8610

 Test job not archived.
 1\1\GINC-SE188\SP\RHF\Aug-CC-pVDZ\C4H2Cl2N3O2(1-)\OHZDE\09-Apr-2025\0\
 \#t hf aug-cc-pvdz iop(5/13=1,5/36=2,99/5=2) pseudo=read geom=check gu
 ess=(read,tcheck) scf=(maxcycle=1)\\title\\-1,1\C,0,-0.072712,-0.05028
 5,0.026736\C,0,-0.60554,-0.013934,-1.40007\Cl,0,1.693005,0.258708,0.08
 2099\H,0,-1.707062,-0.113956,-1.297031\H,0,-0.579628,0.771311,0.537515
 \C,0,-0.381704,-1.283062,0.744284\N,0,-0.57943,-2.247634,1.383473\N,0,
 -0.092894,-1.126379,-2.278944\O,0,0.430559,-2.093255,-1.736592\O,0,-0.
 298139,-0.998958,-3.481714\C,0,-0.314377,1.257085,-2.048853\N,0,-0.068

 Normal termination of Gaussian 16 at Wed Apr  9 02:41:03 2025.
