 Gaussian 16, Revision C.01,

 ----------------------------------------------------------------------
 #t hf aug-cc-pvdz symm=none int=(grid=ultrafine) guess=(read,tcheck) s
 table=(opt,rrhf)
 ----------------------------------------------------------------------
 -----
 title
 -----
 Symbolic Z-matrix:
 Charge = -1 Multiplicity = 1

 SCF Done:  E(RHF) =  -536.073026363     A.U. after   16 cycles
 Normal termination of Gaussian 16 at Wed Apr  9 02:43:57 2025.
 Gaussian 16:  ES64L-G16RevC.01  3-Jul-2019

 ----------------------------------------------------------------------
 #t hf aug-cc-pvdz iop(5/13=1,5/36=2,99/5=2) pseudo=read geom=check gue
 ss=(read,tcheck) scf=(maxcycle=1)
 ----------------------------------------------------------------------
 -----
 title
 -----
 Structure from the checkpoint file:  "E2SN2_222_mol1.chk"
 Charge = -1 Multiplicity = 1

                         Standard orientation:
 ---------------------------------------------------------------------
 Center     Atomic      Atomic             Coordinates (Angstroms)
 Number     Number       Type             X           Y           Z
 ---------------------------------------------------------------------
      1          6           0       -0.155758    0.103207   -0.403923
      2          1           0       -1.088824    0.029221    1.471621
      3          9           0        0.483647    1.813185   -0.500420
      4          9           0       -0.507339   -1.577431   -0.383824
      5          6           0       -1.305792    0.473783    0.493992
      6          1           0       -0.207367    0.141944   -1.474274
      7          1           0       -1.332394    1.554968    0.586918
      8          7           0        1.177424   -0.191555    0.163686
      9          8           0        1.315213   -0.152974    1.383734
     10          8           0        2.066337   -0.483156   -0.627795
     11          7           0       -2.563601   -0.002565   -0.101618
     12          1           0       -3.306538    0.137470    0.573817
     13          1           0       -2.431512   -0.999449   -0.222282
 ---------------------------------------------------------------------

 SCF Done:  E(RHF) =  -536.592622146     A.U. after    2 cycles

 The electronic state is 1-A.
 Alpha  occ. eigenvalues --  -26.20533 -26.15432 -20.42952 -20.42899 -15.63473
 Alpha  occ. eigenvalues --  -15.35389 -11.24458 -11.12449  -1.50626  -1.34234
 Alpha  occ. eigenvalues --   -1.29435  -1.23617  -1.04969  -0.95070  -0.80422
 Alpha  occ. eigenvalues --   -0.68922  -0.62889  -0.59517  -0.58067  -0.56217
 Alpha  occ. eigenvalues --   -0.50133  -0.47008  -0.44828  -0.39518  -0.37315
 Alpha  occ. eigenvalues --   -0.35779  -0.34748  -0.32887  -0.32538  -0.31281
 Alpha  occ. eigenvalues --   -0.29202  -0.28585  -0.27652
 Alpha virt. eigenvalues --    0.12684   0.15508   0.15723   0.16339   0.17114
 Alpha virt. eigenvalues --    0.21914   0.22703   0.23466   0.24578   0.25618
 Alpha virt. eigenvalues --    0.26556   0.28140   0.28425   0.30026   0.30741

 Mulliken charges:
               1
     1  C    0.344466
     2  H    0.228419
     3  F   -0.921301
     4  F   -0.921612
     5  C   -0.510792
     6  H   -0.066678
     7  H    0.196397
     8  N    3.431049
     9  O   -1.622486
    10  O   -1.609759
    11  N    0.138621
    12  H    0.126371
    13  H    0.187305
 Sum of Mulliken charges =  -1.00000

 Dipole moment (field-independent basis, Debye):
    X=             -3.3483    Y=             -1.0934    Z=              1.7628  Tot=              3.9388

 Test job not archived.
 1\1\GINC-SE036\SP\RHF\Aug-CC-pVDZ\C2H5F2N2O2(1-)\OHZDE\09-Apr-2025\0\\
 #t hf aug-cc-pvdz iop(5/13=1,5/36=2,99/5=2) pseudo=read geom=check gue
 ss=(read,tcheck) scf=(maxcycle=1)\\title\\-1,1\C,0,0.35484939,0.019600
 73,-0.00784809\H,0,1.23619586,1.80469196,-0.66391748\F,0,-1.21462113,-
 0.05544313,-0.94235566\F,0,1.86787945,-0.1620156,0.78355233\C,0,0.4036
 761,1.52418367,-0.00917001\H,0,-0.15222004,-0.55306641,0.74364965\H,0,
 -0.52616292,1.89607569,-0.42797717\N,0,0.88603726,-0.75152416,-1.15224
 505\O,0,1.39073839,-0.13643431,-2.08815749\O,0,0.80999449,-1.97260538,

 Normal termination of Gaussian 16 at Wed Apr  9 02:44:03 2025.
