 Gaussian 16, Revision C.01,

 ----------------------------------------------------------------------
 #t hf aug-cc-pvdz symm=none int=(grid=ultrafine) guess=(read,tcheck) s
 table=(opt,rrhf)
 ----------------------------------------------------------------------
 -----
 title
 -----
 Symbolic Z-matrix:
 Charge = -1 Multiplicity = 1

 SCF Done:  E(RHF) =  -417.130342471     A.U. after   16 cycles
 Normal termination of Gaussian 16 at Wed Apr  9 03:02:00 2025.
 Gaussian 16:  ES64L-G16RevC.01  3-Jul-2019

 ----------------------------------------------------------------------
 #t hf aug-cc-pvdz iop(5/13=1,5/36=2,99/5=2) pseudo=read geom=check gue
 ss=(read,tcheck) scf=(maxcycle=1)
 ----------------------------------------------------------------------
 -----
 title
 -----
 Structure from the checkpoint file:  "E2SN2_86_mol1.chk"
 Charge = -1 Multiplicity = 1

                         Standard orientation:
 ---------------------------------------------------------------------
 Center     Atomic      Atomic             Coordinates (Angstroms)
 Number     Number       Type             X           Y           Z
 ---------------------------------------------------------------------
      1          6           0       -0.397555    0.232678    0.078664
      2          6           0        0.560093   -0.846421   -0.377889
      3          9           0       -0.260674    1.406311   -0.681424
      4          1           0        0.016270   -2.229322    1.674899
      5          1           0        0.356642   -1.685332    0.525991
      6          7           0       -0.254165    0.586815    1.463873
      7          1           0        0.692093    0.945135    1.570809
      8          1           0       -0.274388   -0.319824    1.959604
      9          6           0        1.927369   -0.407764   -0.300230
     10          7           0        3.052545   -0.078738   -0.179155
     11          6           0       -1.786113   -0.236154   -0.157055
     12          7           0       -2.881675   -0.589916   -0.384040
     13          1           0        0.315743   -1.248621   -1.364169
 ---------------------------------------------------------------------

 SCF Done:  E(RHF) =  -417.537909961     A.U. after    2 cycles

 The electronic state is 1-A.
 Alpha  occ. eigenvalues --  -26.34956 -15.41396 -15.38911 -15.38171 -11.28595
 Alpha  occ. eigenvalues --  -11.17857 -11.16714 -11.13160  -1.47497  -1.12305
 Alpha  occ. eigenvalues --   -1.10085  -1.08773  -0.93413  -0.82053  -0.66137
 Alpha  occ. eigenvalues --   -0.61298  -0.59670  -0.55109  -0.53415  -0.51215
 Alpha  occ. eigenvalues --   -0.49417  -0.47917  -0.46056  -0.44273  -0.39331
 Alpha  occ. eigenvalues --   -0.39128  -0.37280  -0.35459  -0.34306  -0.12737
 Alpha virt. eigenvalues --    0.13470   0.14743   0.16684   0.17902   0.18528
 Alpha virt. eigenvalues --    0.18651   0.19964   0.20648   0.22726   0.23287
 Alpha virt. eigenvalues --    0.23843   0.24234   0.25552   0.25897   0.26498

 Mulliken charges:
               1
     1  C    0.507578
     2  C    0.110211
     3  F   -0.980751
     4  H   -0.485262
     5  H    0.297372
     6  N    0.481655
     7  H    0.279811
     8  H    0.225481
     9  C   -1.515173
    10  N    0.843930
    11  C   -1.828029
    12  N    0.949187
    13  H    0.113991
 Sum of Mulliken charges =  -1.00000

 Dipole moment (field-independent basis, Debye):
    X=             -0.1796    Y=              4.5972    Z=             -3.8680  Tot=              6.0107

 Test job not archived.
 1\1\GINC-SE073\SP\RHF\Aug-CC-pVDZ\C4H5F1N3(1-)\OHZDE\09-Apr-2025\0\\#t
  hf aug-cc-pvdz iop(5/13=1,5/36=2,99/5=2) pseudo=read geom=check guess
 =(read,tcheck) scf=(maxcycle=1)\\title\\-1,1\C,0,-0.09885161,0.0954608
 7,-0.38770352\C,0,-0.08891982,0.02422359,1.12385569\F,0,1.20100648,0.1
 8256486,-0.91369529\H,0,-2.59662218,0.38528956,1.18003374\H,0,-1.31773
 19,0.11558936,1.33322744\N,0,-0.85960076,1.19637301,-0.91118412\H,0,-0
 .41469918,2.04250885,-0.56283242\H,0,-1.76845304,1.12962952,-0.4236536
 9\C,0,0.56348917,1.16736487,1.70306752\N,0,1.03940481,2.13095071,2.186

 Normal termination of Gaussian 16 at Wed Apr  9 03:02:05 2025.
