 Gaussian 16, Revision C.01,

 ----------------------------------------------------------------------
 #t hf aug-cc-pvdz symm=none int=(grid=ultrafine) guess=(read,tcheck) s
 table=(opt,rrhf)
 ----------------------------------------------------------------------
 -----
 title
 -----
 Symbolic Z-matrix:
 Charge = -1 Multiplicity = 1

 SCF Done:  E(RHF) =  -555.106363615     A.U. after   16 cycles
 Normal termination of Gaussian 16 at Wed Apr  9 02:49:46 2025.
 Gaussian 16:  ES64L-G16RevC.01  3-Jul-2019

 ----------------------------------------------------------------------
 #t hf aug-cc-pvdz iop(5/13=1,5/36=2,99/5=2) pseudo=read geom=check gue
 ss=(read,tcheck) scf=(maxcycle=1)
 ----------------------------------------------------------------------
 -----
 title
 -----
 Structure from the checkpoint file:  "E2SN2_273_mol2.chk"
 Charge = -1 Multiplicity = 1

                         Standard orientation:
 ---------------------------------------------------------------------
 Center     Atomic      Atomic             Coordinates (Angstroms)
 Number     Number       Type             X           Y           Z
 ---------------------------------------------------------------------
      1          6           0        0.204573    0.331116   -0.448236
      2          6           0       -0.608452   -1.003563   -0.598302
      3          9           0        0.264782    0.889319   -1.758354
      4          1           0       -0.462166   -1.251962   -1.657156
      5          6           0       -0.403789    1.377656    0.383785
      6          7           0       -0.945157    2.372770    0.706007
      7          6           0        1.596659    0.061935   -0.065936
      8          7           0        2.745800   -0.165002    0.027251
      9          6           0       -2.079285   -0.736772   -0.324242
     10          1           0       -2.458795    0.106535   -0.907859
     11          1           0       -2.653330   -1.634328   -0.563007
     12          1           0       -2.182575   -0.512163    0.738678
     13          7           0       -0.159945   -2.120001    0.208558
     14          1           0        0.764181   -2.396972   -0.107266
     15          1           0       -0.037356   -1.689682    1.139436
     16          9           0        0.100431   -0.157988    1.878582
 ---------------------------------------------------------------------

 SCF Done:  E(RHF) =  -555.640503344     A.U. after    2 cycles

 The electronic state is 1-A.
 Alpha  occ. eigenvalues --  -26.35261 -26.12893 -15.39804 -15.37587 -15.34305
 Alpha  occ. eigenvalues --  -11.27665 -11.17553 -11.16645 -11.16204 -11.10524
 Alpha  occ. eigenvalues --   -1.47047  -1.20331  -1.10269  -1.08122  -1.06418
 Alpha  occ. eigenvalues --   -0.93808  -0.86923  -0.73070  -0.68755  -0.60856
 Alpha  occ. eigenvalues --   -0.58290  -0.56677  -0.50828  -0.49505  -0.48384
 Alpha  occ. eigenvalues --   -0.47443  -0.46440  -0.42304  -0.41769  -0.38963
 Alpha  occ. eigenvalues --   -0.38854  -0.37844  -0.36511  -0.36033  -0.31753
 Alpha  occ. eigenvalues --   -0.29037  -0.28448  -0.27431
 Alpha virt. eigenvalues --    0.12397   0.13474   0.14113   0.15385   0.17164
 Alpha virt. eigenvalues --    0.18242   0.18417   0.19578   0.20332   0.23309
 Alpha virt. eigenvalues --    0.23541   0.23948   0.24881   0.25145   0.25468

 Mulliken charges:
               1
     1  C    2.470374
     2  C   -1.743515
     3  F   -1.034590
     4  H    0.042487
     5  C   -1.754226
     6  N    0.998788
     7  C   -2.228227
     8  N    1.144609
     9  C    0.078094
    10  H    0.240884
    11  H    0.055000
    12  H    0.344373
    13  N    0.632091
    14  H    0.288570
    15  H    0.332902
    16  F   -0.867613
 Sum of Mulliken charges =  -1.00000

 Dipole moment (field-independent basis, Debye):
    X=             -2.0591    Y=             -2.4213    Z=             -5.6445  Tot=              6.4779

 Test job not archived.
 1\1\GINC-SE106\SP\RHF\Aug-CC-pVDZ\C5H6F2N3(1-)\OHZDE\09-Apr-2025\0\\#t
  hf aug-cc-pvdz iop(5/13=1,5/36=2,99/5=2) pseudo=read geom=check guess
 =(read,tcheck) scf=(maxcycle=1)\\title\\-1,1\C,0,-0.054156,0.012858,-0
 .026519\C,0,-0.376408,0.104099,-1.560379\F,0,1.354746,0.201692,0.07816
 9\H,0,0.585205,-0.157046,-2.020138\C,0,-0.642082,1.05258,0.828425\N,0,
 -0.748995,2.001523,1.517799\C,0,-0.314121,-1.337457,0.488828\N,0,-0.31
 7815,-2.45761,0.843726\C,0,-0.75337,1.532542,-1.91687\H,0,-0.016501,2.
 254059,-1.553221\H,0,-0.842047,1.615985,-3.001912\H,0,-1.719819,1.7446

 Normal termination of Gaussian 16 at Wed Apr  9 02:49:55 2025.
