 Gaussian 16, Revision C.01,

 ----------------------------------------------------------------------
 #t hf aug-cc-pvdz symm=none int=(grid=ultrafine) guess=(read,tcheck) s
 table=(opt,rrhf)
 ----------------------------------------------------------------------
 -----
 title
 -----
 Symbolic Z-matrix:
 Charge = -1 Multiplicity = 1

 SCF Done:  E(RHF) =  -515.191776541     A.U. after   17 cycles
 Normal termination of Gaussian 16 at Wed Apr  9 02:57:55 2025.
 Gaussian 16:  ES64L-G16RevC.01  3-Jul-2019

 ----------------------------------------------------------------------
 #t hf aug-cc-pvdz iop(5/13=1,5/36=2,99/5=2) pseudo=read geom=check gue
 ss=(read,tcheck) scf=(maxcycle=1)
 ----------------------------------------------------------------------
 -----
 title
 -----
 Structure from the checkpoint file:  "E2SN2_380_mol1.chk"
 Charge = -1 Multiplicity = 1

                         Standard orientation:
 ---------------------------------------------------------------------
 Center     Atomic      Atomic             Coordinates (Angstroms)
 Number     Number       Type             X           Y           Z
 ---------------------------------------------------------------------
      1          6           0        0.141020   -0.403757   -0.262978
      2          1           0       -1.492230   -0.184317   -1.525604
      3          9           0        0.065893   -0.840708    1.286804
      4          1           0        0.517509    0.366902   -1.888056
      5          6           0       -1.296001    0.094790   -0.490067
      6          7           0        0.431342   -1.702810   -0.788172
      7          1           0        1.027493   -2.152344   -0.103185
      8          1           0        0.952471   -1.572322   -1.641452
      9          7           0        1.315520    0.484431   -0.000638
     10          8           0        1.123401    1.610751    0.464877
     11          8           0        2.434737   -0.032785   -0.095802
     12          6           0       -1.521879    1.595740   -0.379084
     13          1           0       -1.363927    1.948077    0.640659
     14          1           0       -0.837634    2.130300   -1.037648
     15          1           0       -2.554531    1.817367   -0.676170
     16          6           0       -2.301219   -0.670341    0.377208
     17          1           0       -2.114836   -1.743405    0.316439
     18          1           0       -2.237180   -0.370685    1.423210
     19          1           0       -3.314843   -0.466871    0.009165
 ---------------------------------------------------------------------

 SCF Done:  E(RHF) =  -515.710841987     A.U. after    2 cycles

 The electronic state is 1-A.
 Alpha  occ. eigenvalues --  -26.23354 -20.40882 -20.40711 -15.61931 -15.35370
 Alpha  occ. eigenvalues --  -11.26171 -11.10402 -11.08743 -11.08065  -1.48315
 Alpha  occ. eigenvalues --   -1.33309  -1.31879  -1.06835  -0.94341  -0.89674
 Alpha  occ. eigenvalues --   -0.79406  -0.72764  -0.65633  -0.60238  -0.58500
 Alpha  occ. eigenvalues --   -0.57069  -0.54550  -0.52188  -0.47278  -0.43525
 Alpha  occ. eigenvalues --   -0.42861  -0.41550  -0.39430  -0.38192  -0.37295
 Alpha  occ. eigenvalues --   -0.35778  -0.34625  -0.33495  -0.31358  -0.29732
 Alpha  occ. eigenvalues --   -0.28003  -0.12721
 Alpha virt. eigenvalues --    0.12328   0.13280   0.14061   0.14407   0.16055
 Alpha virt. eigenvalues --    0.16303   0.16509   0.17379   0.17577   0.19803
 Alpha virt. eigenvalues --    0.22411   0.23914   0.24143   0.24903   0.25589

 Mulliken charges:
               1
     1  C   -2.278360
     2  H    0.183631
     3  F   -1.043512
     4  H   -0.275975
     5  C   -0.395330
     6  N    0.821603
     7  H    0.378930
     8  H    0.377967
     9  N    3.689654
    10  O   -1.687998
    11  O   -1.642179
    12  C   -0.009698
    13  H    0.259238
    14  H    0.217620
    15  H    0.107727
    16  C   -0.292782
    17  H    0.205991
    18  H    0.276270
    19  H    0.107202
 Sum of Mulliken charges =  -1.00000

 Dipole moment (field-independent basis, Debye):
    X=             -3.4407    Y=             -1.3910    Z=              1.1920  Tot=              3.8980

 Test job not archived.
 1\1\GINC-SE073\SP\RHF\Aug-CC-pVDZ\C4H10F1N2O2(1-)\OHZDE\09-Apr-2025\0\
 \#t hf aug-cc-pvdz iop(5/13=1,5/36=2,99/5=2) pseudo=read geom=check gu
 ess=(read,tcheck) scf=(maxcycle=1)\\title\\-1,1\C,0,0.49138177,-0.0741
 1487,-0.07364442\H,0,1.54940665,1.67229344,-0.44851128\F,0,-1.04036921
 ,-0.34236097,-0.49811654\H,0,2.1207365,0.03914955,0.7683247\C,0,0.5340
 7949,1.46274334,-0.11095766\N,0,1.09198671,-0.73323577,-1.19279013\H,0
 ,0.49634775,-1.52619374,-1.40043289\H,0,1.99436111,-1.06992474,-0.8943
 7751\N,0,0.33456829,-0.88837968,1.17115769\O,0,-0.18940721,-0.37353169

 Normal termination of Gaussian 16 at Wed Apr  9 02:58:05 2025.
