 Gaussian 16, Revision C.01,

 ----------------------------------------------------------------------
 #t hf aug-cc-pvdz symm=none int=(grid=ultrafine) guess=(read,tcheck) s
 table=(opt,rrhf)
 ----------------------------------------------------------------------
 -----
 title
 -----
 Symbolic Z-matrix:
 Charge = -1 Multiplicity = 1

 SCF Done:  E(RHF) =  -987.976300877     A.U. after   16 cycles
 Normal termination of Gaussian 16 at Wed Apr  9 02:57:43 2025.
 Gaussian 16:  ES64L-G16RevC.01  3-Jul-2019

 ----------------------------------------------------------------------
 #t hf aug-cc-pvdz iop(5/13=1,5/36=2,99/5=2) pseudo=read geom=check gue
 ss=(read,tcheck) scf=(maxcycle=1)
 ----------------------------------------------------------------------
 -----
 title
 -----
 Structure from the checkpoint file:  "E2SN2_375_mol2.chk"
 Charge = -1 Multiplicity = 1

                         Standard orientation:
 ---------------------------------------------------------------------
 Center     Atomic      Atomic             Coordinates (Angstroms)
 Number     Number       Type             X           Y           Z
 ---------------------------------------------------------------------
      1          6           0       -0.126956   -0.373477    0.465516
      2          6           0       -0.031895    0.930261   -0.330006
      3          9           0       -0.540907   -0.119535    1.739358
      4          1           0        0.364468    0.658736   -1.310985
      5          1           0        0.849706   -0.866340    0.461627
      6          7           0       -1.127673   -1.298952   -0.171995
      7          8           0       -2.040763   -1.747352    0.511017
      8          8           0       -0.927596   -1.532705   -1.361385
      9          7           0        0.862110    1.902744    0.267722
     10          1           0        1.798628    1.497155    0.196958
     11          1           0        0.634977    1.994622    1.251607
     12          6           0       -1.377566    1.507332   -0.496530
     13          7           0       -2.455905    1.957686   -0.607694
     14         17           0        3.131532   -0.369585   -0.217682
 ---------------------------------------------------------------------

 SCF Done:  E(RHF) =  -988.563462568     A.U. after    2 cycles

 The electronic state is 1-A.
 Alpha  occ. eigenvalues -- -105.30500 -26.39214 -20.50625 -20.50117 -15.69637
 Alpha  occ. eigenvalues --  -15.42772 -15.39445 -11.29377 -11.22604 -11.19478
 Alpha  occ. eigenvalues --  -10.35120  -7.51886  -7.51860  -7.51839  -1.57799
 Alpha  occ. eigenvalues --   -1.52209  -1.41534  -1.14061  -1.10788  -1.02273
 Alpha  occ. eigenvalues --   -0.88874  -0.78680  -0.75892  -0.71393  -0.68629
 Alpha  occ. eigenvalues --   -0.66996  -0.64900  -0.61170  -0.59889  -0.56619
 Alpha  occ. eigenvalues --   -0.53634  -0.52128  -0.49327  -0.47491  -0.40888
 Alpha  occ. eigenvalues --   -0.40536  -0.40256  -0.39593  -0.35938  -0.35605
 Alpha  occ. eigenvalues --   -0.23360  -0.23044  -0.22839
 Alpha virt. eigenvalues --    0.13574   0.14690   0.14997   0.16269   0.17467
 Alpha virt. eigenvalues --    0.17869   0.20793   0.21564   0.21792   0.22001
 Alpha virt. eigenvalues --    0.22996   0.24078   0.25163   0.25309   0.26167

 Mulliken charges:
               1
     1  C    1.267679
     2  C   -0.909036
     3  F   -0.831497
     4  H    0.203429
     5  H    0.216880
     6  N    2.545419
     7  O   -1.346581
     8  O   -1.428394
     9  N    0.578923
    10  H    0.189801
    11  H    0.231861
    12  C   -1.757113
    13  N    0.984990
    14  Cl  -0.946361
 Sum of Mulliken charges =  -1.00000

 Dipole moment (field-independent basis, Debye):
    X=             -4.7355    Y=              0.1330    Z=              2.0005  Tot=              5.1425

 Test job not archived.
 1\1\GINC-SE273\SP\RHF\Aug-CC-pVDZ\C3H4Cl1F1N3O2(1-)\OHZDE\09-Apr-2025\
 0\\#t hf aug-cc-pvdz iop(5/13=1,5/36=2,99/5=2) pseudo=read geom=check
 guess=(read,tcheck) scf=(maxcycle=1)\\title\\-1,1\C,0,-0.329396,0.0744
 75,0.071171\C,0,-0.592232,0.049834,-1.436123\F,0,0.712273,-0.748314,0.
 381749\H,0,-1.472816,0.67485,-1.600672\H,0,-1.239154,-0.229151,0.59743
 \N,0,0.031409,1.467061,0.512627\O,0,1.072849,1.641699,1.134082\O,0,-0.
 783421,2.332581,0.202393\N,0,-0.875297,-1.277189,-1.947134\H,0,-1.7703
 75,-1.547857,-1.532225\H,0,-0.166629,-1.917156,-1.606115\C,0,0.556227,

 Normal termination of Gaussian 16 at Wed Apr  9 02:57:51 2025.
