 Gaussian 16, Revision C.01,

 ----------------------------------------------------------------------
 #t hf aug-cc-pvdz symm=none int=(grid=ultrafine) guess=(read,tcheck) s
 table=(opt,rrhf)
 ----------------------------------------------------------------------
 -----
 title
 -----
 Symbolic Z-matrix:
 Charge = -1 Multiplicity = 1

 SCF Done:  E(RHF) =  -531.193900341     A.U. after   17 cycles
 Normal termination of Gaussian 16 at Wed Apr  9 02:59:32 2025.
 Gaussian 16:  ES64L-G16RevC.01  3-Jul-2019

 ----------------------------------------------------------------------
 #t hf aug-cc-pvdz iop(5/13=1,5/36=2,99/5=2) pseudo=read geom=check gue
 ss=(read,tcheck) scf=(maxcycle=1)
 ----------------------------------------------------------------------
 -----
 title
 -----
 Structure from the checkpoint file:  "E2SN2_410_mol1.chk"
 Charge = -1 Multiplicity = 1

                         Standard orientation:
 ---------------------------------------------------------------------
 Center     Atomic      Atomic             Coordinates (Angstroms)
 Number     Number       Type             X           Y           Z
 ---------------------------------------------------------------------
      1          6           0       -1.090656   -0.062434   -0.147466
      2          1           0        0.314227    0.198016   -1.720770
      3          9           0       -0.513707   -0.785640    1.206026
      4          1           0       -1.743282    0.793348   -1.656269
      5          6           0        0.249722    0.482044   -0.676601
      6          7           0       -1.946167    0.832797    0.617288
      7          1           0       -2.222627    0.331723    1.453774
      8          1           0       -2.735904    1.073768    0.041908
      9          7           0       -1.540104   -1.306084   -0.744312
     10          1           0       -2.341500   -1.112300   -1.320270
     11          1           0       -1.766333   -1.933114    0.018454
     12          7           0        1.439972   -0.248446   -0.057188
     13          8           0        2.036200    0.251343    0.895591
     14          8           0        1.763152   -1.312287   -0.585738
     15          6           0        0.442225    1.963826   -0.452188
     16          1           0        0.403786    2.187104    0.611996
     17          1           0        1.405888    2.291005   -0.854976
     18          1           0       -0.369362    2.480279   -0.959894
 ---------------------------------------------------------------------

 SCF Done:  E(RHF) =  -531.726546309     A.U. after    2 cycles

 The electronic state is 1-A.
 Alpha  occ. eigenvalues --  -26.21956 -20.43129 -20.43089 -15.62210 -15.34607
 Alpha  occ. eigenvalues --  -15.34343 -11.25060 -11.15338 -11.08885  -1.50069
 Alpha  occ. eigenvalues --   -1.33834  -1.32279  -1.07152  -1.00211  -0.97605
 Alpha  occ. eigenvalues --   -0.81894  -0.75222  -0.66870  -0.60609  -0.59235
 Alpha  occ. eigenvalues --   -0.58343  -0.56221  -0.55991  -0.53646  -0.48636
 Alpha  occ. eigenvalues --   -0.43283  -0.42636  -0.40124  -0.37996  -0.37470
 Alpha  occ. eigenvalues --   -0.36382  -0.33808  -0.33014  -0.32176  -0.29671
 Alpha  occ. eigenvalues --   -0.28887  -0.12594
 Alpha virt. eigenvalues --    0.13355   0.13743   0.14226   0.15093   0.15629
 Alpha virt. eigenvalues --    0.16321   0.16770   0.18349   0.19327   0.21821
 Alpha virt. eigenvalues --    0.23219   0.24467   0.25190   0.25641   0.26496

 Mulliken charges:
               1
     1  C   -3.163244
     2  H    0.113123
     3  F   -1.013339
     4  H   -0.476143
     5  C   -0.656059
     6  N    0.804430
     7  H    0.335160
     8  H    0.339703
     9  N    1.049796
    10  H    0.283099
    11  H    0.271099
    12  N    3.399687
    13  O   -1.577910
    14  O   -1.563976
    15  C    0.119193
    16  H    0.335238
    17  H    0.128178
    18  H    0.271965
 Sum of Mulliken charges =  -1.00000

 Dipole moment (field-independent basis, Debye):
    X=             -0.3797    Y=              0.3428    Z=              1.6101  Tot=              1.6894

 Test job not archived.
 1\1\GINC-SE365\SP\RHF\Aug-CC-pVDZ\C3H9F1N3O2(1-)\OHZDE\09-Apr-2025\0\\
 #t hf aug-cc-pvdz iop(5/13=1,5/36=2,99/5=2) pseudo=read geom=check gue
 ss=(read,tcheck) scf=(maxcycle=1)\\title\\-1,1\C,0,0.50747041,-0.11364
 19,0.04156765\H,0,1.46028263,1.65967235,0.72297882\F,0,-1.04327582,-0.
 31897475,0.53234459\H,0,2.2459738,0.12813337,-0.55334466\C,0,0.5609960
 5,1.42079833,0.16678987\N,0,0.23805701,-0.69081942,-1.26704602\H,0,-0.
 49036402,-1.38366701,-1.13828586\H,0,1.0925741,-1.09874736,-1.60794227
 \N,0,1.06675972,-0.85234605,1.15799245\H,0,1.92020552,-1.29009563,0.85

 Normal termination of Gaussian 16 at Wed Apr  9 02:59:39 2025.
