 Gaussian 16, Revision C.01,

 ----------------------------------------------------------------------
 #t hf aug-cc-pvdz symm=none int=(grid=ultrafine) guess=(read,tcheck) s
 table=(opt,rrhf)
 ----------------------------------------------------------------------
 -----
 title
 -----
 Symbolic Z-matrix:
 Charge = -1 Multiplicity = 1

 SCF Done:  E(RHF) =  -931.247012711     A.U. after   15 cycles
 Normal termination of Gaussian 16 at Wed Apr  9 02:52:47 2025.
 Gaussian 16:  ES64L-G16RevC.01  3-Jul-2019

 ----------------------------------------------------------------------
 #t hf aug-cc-pvdz iop(5/13=1,5/36=2,99/5=2) pseudo=read geom=check gue
 ss=(read,tcheck) scf=(maxcycle=1)
 ----------------------------------------------------------------------
 -----
 title
 -----
 Structure from the checkpoint file:  "E2SN2_313_mol2.chk"
 Charge = -1 Multiplicity = 1

                         Standard orientation:
 ---------------------------------------------------------------------
 Center     Atomic      Atomic             Coordinates (Angstroms)
 Number     Number       Type             X           Y           Z
 ---------------------------------------------------------------------
      1          6           0        0.691109   -0.454018   -0.473058
      2          6           0        0.353731    0.587216    0.593473
      3          9           0        2.000153   -0.193994   -0.921874
      4          1           0       -0.687166    0.401386    0.893071
      5          6           0        0.783417   -1.804631    0.143558
      6          7           0        0.844334   -2.915183    0.520995
      7          7           0       -0.206423   -0.349511   -1.556723
      8          1           0       -1.167340   -0.256024   -1.199289
      9          1           0       -0.150647   -1.163787   -2.155219
     10          6           0        0.430861    1.930683   -0.011150
     11          7           0        0.570323    3.036984   -0.380932
     12          7           0        1.248142    0.429130    1.730937
     13          1           0        2.163266    0.795714    1.498333
     14          1           0        0.885598    0.952011    2.517620
     15         17           0       -2.929084   -0.114635    0.177969
 ---------------------------------------------------------------------

 SCF Done:  E(RHF) =  -931.784053262     A.U. after    2 cycles

 The electronic state is 1-A.
 Alpha  occ. eigenvalues -- -105.29907 -26.36829 -15.42473 -15.41912 -15.41418
 Alpha  occ. eigenvalues --  -15.39494 -11.30425 -11.21375 -11.18961 -11.18402
 Alpha  occ. eigenvalues --  -10.34529  -7.51306  -7.51271  -7.51246  -1.49458
 Alpha  occ. eigenvalues --   -1.15172  -1.12509  -1.10771  -1.10187  -0.92338
 Alpha  occ. eigenvalues --   -0.83320  -0.75598  -0.69052  -0.65966  -0.64969
 Alpha  occ. eigenvalues --   -0.62105  -0.58728  -0.54703  -0.52817  -0.51705
 Alpha  occ. eigenvalues --   -0.50439  -0.49132  -0.46939  -0.41273  -0.40935
 Alpha  occ. eigenvalues --   -0.39801  -0.38040  -0.37385  -0.36246  -0.22906
 Alpha  occ. eigenvalues --   -0.22402  -0.22172
 Alpha virt. eigenvalues --    0.11695   0.13570   0.13865   0.16573   0.17057
 Alpha virt. eigenvalues --    0.17930   0.19333   0.20067   0.20958   0.21686
 Alpha virt. eigenvalues --    0.21968   0.23353   0.23907   0.24327   0.24693

 Mulliken charges:
               1
     1  C    0.936076
     2  C   -0.861096
     3  F   -0.947074
     4  H    0.162827
     5  C   -1.736409
     6  N    0.964004
     7  N    0.551640
     8  H    0.183419
     9  H    0.236961
    10  C   -1.593189
    11  N    1.007079
    12  N    0.612118
    13  H    0.198653
    14  H    0.219503
    15  Cl  -0.934512
 Sum of Mulliken charges =  -1.00000

 Dipole moment (field-independent basis, Debye):
    X=              7.8400    Y=              0.2932    Z=              0.5040  Tot=              7.8616

 Test job not archived.
 1\1\GINC-SE435\SP\RHF\Aug-CC-pVDZ\C4H5Cl1F1N4(1-)\OHZDE\09-Apr-2025\0\
 \#t hf aug-cc-pvdz iop(5/13=1,5/36=2,99/5=2) pseudo=read geom=check gu
 ess=(read,tcheck) scf=(maxcycle=1)\\title\\-1,1\C,0,0.02259,0.037541,0
 .006812\C,0,-0.524784,-0.09288,-1.414051\F,0,1.418508,-0.135281,-0.057
 922\H,0,-1.617743,-0.007973,-1.336655\C,0,-0.145333,1.433646,0.492181\
 N,0,-0.262381,2.493333,0.984988\N,0,-0.535867,-0.957316,0.836992\H,0,-
 1.549668,-1.016618,0.668021\H,0,-0.371859,-0.750161,1.813999\C,0,-0.19
 7989,-1.436178,-1.929004\N,0,0.109,-2.440704,-2.4551\N,0,0.012485,0.97

 Normal termination of Gaussian 16 at Wed Apr  9 02:52:54 2025.
