 Gaussian 16, Revision C.01,

 ----------------------------------------------------------------------
 #t hf aug-cc-pvdz symm=none int=(grid=ultrafine) guess=(read,tcheck) s
 table=(opt,rrhf)
 ----------------------------------------------------------------------
 -----
 title
 -----
 Symbolic Z-matrix:
 Charge = -1 Multiplicity = 1

 SCF Done:  E(RHF) =  -891.256062530     A.U. after   17 cycles
 Normal termination of Gaussian 16 at Wed Apr  9 03:00:39 2025.
 Gaussian 16:  ES64L-G16RevC.01  3-Jul-2019

 ----------------------------------------------------------------------
 #t hf aug-cc-pvdz iop(5/13=1,5/36=2,99/5=2) pseudo=read geom=check gue
 ss=(read,tcheck) scf=(maxcycle=1)
 ----------------------------------------------------------------------
 -----
 title
 -----
 Structure from the checkpoint file:  "E2SN2_49_mol1.chk"
 Charge = -1 Multiplicity = 1

                         Standard orientation:
 ---------------------------------------------------------------------
 Center     Atomic      Atomic             Coordinates (Angstroms)
 Number     Number       Type             X           Y           Z
 ---------------------------------------------------------------------
      1          6           0       -0.003756    0.122475    0.395123
      2          6           0        0.985215   -0.814521   -0.129474
      3         17           0        0.132750    1.929519   -0.386730
      4          1           0        1.074851   -2.259843    1.816774
      5          1           0        0.851491   -1.741717    0.750647
      6          7           0       -1.402341   -0.358702    0.009414
      7          8           0       -1.829208   -0.124863   -1.117443
      8          8           0       -1.972850   -1.047242    0.852775
      9          7           0        0.016078    0.327681    1.798442
     10          1           0        0.761688    0.976157    2.011521
     11          1           0        0.274648   -0.588632    2.204191
     12          7           0        2.349160   -0.441230    0.196855
     13          1           0        2.544937   -0.807336    1.131085
     14          1           0        2.457109    0.567714    0.202706
     15          6           0        0.846224   -1.302352   -1.551428
     16          1           0       -0.101567   -1.814987   -1.732801
     17          1           0        0.928276   -0.479450   -2.272565
     18          1           0        1.661913   -2.004750   -1.738099
 ---------------------------------------------------------------------

 SCF Done:  E(RHF) =  -891.777399168     A.U. after    2 cycles

 The electronic state is 1-A.
 Alpha  occ. eigenvalues -- -105.42117 -20.46770 -20.46478 -15.65896 -15.37700
 Alpha  occ. eigenvalues --  -15.35346 -11.27136 -11.11000 -11.09343 -10.46881
 Alpha  occ. eigenvalues --   -7.63774  -7.63475  -7.63466  -1.53691  -1.37601
 Alpha  occ. eigenvalues --   -1.13172  -1.04417  -0.95879  -0.88712  -0.86075
 Alpha  occ. eigenvalues --   -0.75559  -0.69486  -0.63056  -0.62568  -0.61174
 Alpha  occ. eigenvalues --   -0.58010  -0.56402  -0.53329  -0.46388  -0.44427
 Alpha  occ. eigenvalues --   -0.42128  -0.40848  -0.37545  -0.36778  -0.35317
 Alpha  occ. eigenvalues --   -0.34164  -0.33080  -0.32441  -0.31194  -0.30503
 Alpha  occ. eigenvalues --   -0.11690
 Alpha virt. eigenvalues --    0.13433   0.13670   0.14483   0.14760   0.16094
 Alpha virt. eigenvalues --    0.16553   0.18139   0.18455   0.18612   0.20147
 Alpha virt. eigenvalues --    0.21511   0.23255   0.23485   0.25206   0.25782

 Mulliken charges:
               1
     1  C   -1.973180
     2  C   -1.630549
     3  Cl  -0.173573
     4  H   -0.429010
     5  H    0.298886
     6  N    3.129610
     7  O   -1.551227
     8  O   -1.462329
     9  N    0.850218
    10  H    0.268507
    11  H    0.316739
    12  N    0.813179
    13  H    0.278923
    14  H    0.186091
    15  C   -0.443249
    16  H    0.215113
    17  H    0.204381
    18  H    0.101469
 Sum of Mulliken charges =  -1.00000

 Dipole moment (field-independent basis, Debye):
    X=             -0.1458    Y=              4.6647    Z=             -2.6777  Tot=              5.3806

 Test job not archived.
 1\1\GINC-SE460\SP\RHF\Aug-CC-pVDZ\C3H9Cl1N3O2(1-)\OHZDE\09-Apr-2025\0\
 \#t hf aug-cc-pvdz iop(5/13=1,5/36=2,99/5=2) pseudo=read geom=check gu
 ess=(read,tcheck) scf=(maxcycle=1)\\title\\-1,1\C,0,-0.23846431,0.1019
 1075,-0.30441143\C,0,-0.01951276,-0.11660071,1.12231251\Cl,0,1.4118487
 3,0.53671183,-1.29574846\H,0,-2.24291259,0.51780192,1.85641022\H,0,-1.
 24350587,-0.06261331,1.51104517\N,0,-0.73703281,-1.19649077,-0.9383880
 8\O,0,0.07197221,-2.07180005,-1.23172932\O,0,-1.9584803,-1.30624234,-1
 .02111301\N,0,-1.15210742,1.13252811,-0.64336512\H,0,-0.6700061,2.0179

 Normal termination of Gaussian 16 at Wed Apr  9 03:00:48 2025.
