 Gaussian 16, Revision C.01,

 ----------------------------------------------------------------------
 #t hf aug-cc-pvdz symm=none int=(grid=ultrafine) guess=(read,tcheck) s
 table=(opt,rrhf)
 ----------------------------------------------------------------------
 -----
 title
 -----
 Symbolic Z-matrix:
 Charge = -1 Multiplicity = 1

 SCF Done:  E(RHF) =  -515.202367441     A.U. after   17 cycles
 Normal termination of Gaussian 16 at Wed Apr  9 02:36:31 2025.
 Gaussian 16:  ES64L-G16RevC.01  3-Jul-2019

 ----------------------------------------------------------------------
 #t hf aug-cc-pvdz iop(5/13=1,5/36=2,99/5=2) pseudo=read geom=check gue
 ss=(read,tcheck) scf=(maxcycle=1)
 ----------------------------------------------------------------------
 -----
 title
 -----
 Structure from the checkpoint file:  "E2SN2_132_mol1.chk"
 Charge = -1 Multiplicity = 1

                         Standard orientation:
 ---------------------------------------------------------------------
 Center     Atomic      Atomic             Coordinates (Angstroms)
 Number     Number       Type             X           Y           Z
 ---------------------------------------------------------------------
      1          6           0       -0.001143   -0.499928   -0.162237
      2          6           0        1.036940    0.409907    0.332220
      3          9           0       -0.022311   -0.704429   -1.565919
      4          1           0        1.356063   -0.390507    2.642301
      5          1           0        1.124203    0.069036    1.723325
      6          7           0       -0.024879   -1.814803    0.414627
      7          1           0        0.351599   -1.731226    1.360554
      8          1           0        0.600652   -2.393293   -0.129962
      9          7           0       -1.376296    0.128820    0.127354
     10          8           0       -1.970288    0.702287   -0.782561
     11          8           0       -1.765067    0.055983    1.287923
     12          6           0        2.417434   -0.077604   -0.046112
     13          1           0        2.606228   -0.111029   -1.129995
     14          1           0        3.166882    0.582360    0.408702
     15          1           0        2.604906   -1.074844    0.371123
     16          6           0        0.832332    1.880428    0.048812
     17          1           0       -0.120835    2.248752    0.442840
     18          1           0        1.620607    2.453954    0.553295
     19          1           0        0.868187    2.145571   -1.021762
 ---------------------------------------------------------------------

 SCF Done:  E(RHF) =  -515.724347169     A.U. after    2 cycles

 The electronic state is 1-A.
 Alpha  occ. eigenvalues --  -26.32054 -20.45099 -20.45055 -15.63780 -15.36764
 Alpha  occ. eigenvalues --  -11.26706 -11.08814 -11.08721 -11.04948  -1.52267
 Alpha  occ. eigenvalues --   -1.44224  -1.35976  -1.08745  -0.94796  -0.89458
 Alpha  occ. eigenvalues --   -0.79444  -0.73629  -0.67403  -0.64626  -0.61582
 Alpha  occ. eigenvalues --   -0.59077  -0.55989  -0.54506  -0.50819  -0.47246
 Alpha  occ. eigenvalues --   -0.46642  -0.44917  -0.42814  -0.40171  -0.39029
 Alpha  occ. eigenvalues --   -0.36972  -0.34759  -0.34175  -0.32766  -0.31270
 Alpha  occ. eigenvalues --   -0.30656  -0.09928
 Alpha virt. eigenvalues --    0.13043   0.13139   0.14166   0.14514   0.15849
 Alpha virt. eigenvalues --    0.16611   0.17471   0.18026   0.19234   0.20145
 Alpha virt. eigenvalues --    0.21282   0.22297   0.23633   0.24402   0.24881

 Mulliken charges:
               1
     1  C   -0.488915
     2  C   -1.201649
     3  F   -1.118947
     4  H   -0.524420
     5  H    0.414157
     6  N    0.559856
     7  H    0.304719
     8  H    0.321331
     9  N    3.044575
    10  O   -1.478524
    11  O   -1.538994
    12  C    0.100174
    13  H    0.186024
    14  H    0.169189
    15  H    0.122193
    16  C   -0.403754
    17  H    0.156571
    18  H    0.181626
    19  H    0.194788
 Sum of Mulliken charges =  -1.00000

 Dipole moment (field-independent basis, Debye):
    X=              0.2783    Y=             -0.0525    Z=             -5.2382  Tot=              5.2458

 Test job not archived.
 1\1\GINC-SE454\SP\RHF\Aug-CC-pVDZ\C4H10F1N2O2(1-)\OHZDE\09-Apr-2025\0\
 \#t hf aug-cc-pvdz iop(5/13=1,5/36=2,99/5=2) pseudo=read geom=check gu
 ess=(read,tcheck) scf=(maxcycle=1)\\title\\-1,1\C,0,-0.04338928,-0.061
 50922,-0.35899299\C,0,-0.16534488,0.08546586,1.09477063\F,0,1.27574871
 ,-0.23494849,-0.85132081\H,0,-2.46060253,-0.72045468,1.49634626\H,0,-1
 .5461905,-0.22405623,1.33234725\N,0,-0.81585996,-1.11163448,-0.9612853
 8\H,0,-1.64014336,-1.24876381,-0.37370314\H,0,-0.25559086,-1.95283937,
 -0.92984132\N,0,-0.50105256,1.25140611,-1.02007454\O,0,0.3494993,2.050

 Normal termination of Gaussian 16 at Wed Apr  9 02:36:40 2025.
