 Gaussian 16, Revision C.01,

 ----------------------------------------------------------------------
 #t hf aug-cc-pvdz symm=none int=(grid=ultrafine) guess=(read,tcheck) s
 table=(opt,rrhf)
 ----------------------------------------------------------------------
 -----
 title
 -----
 Symbolic Z-matrix:
 Charge = -1 Multiplicity = 1

 SCF Done:  E(RHF) =  -380.445484560     A.U. after   15 cycles
 Normal termination of Gaussian 16 at Wed Apr  9 02:43:54 2025.
 Gaussian 16:  ES64L-G16RevC.01  3-Jul-2019

 ----------------------------------------------------------------------
 #t hf aug-cc-pvdz iop(5/13=1,5/36=2,99/5=2) pseudo=read geom=check gue
 ss=(read,tcheck) scf=(maxcycle=1)
 ----------------------------------------------------------------------
 -----
 title
 -----
 Structure from the checkpoint file:  "E2SN2_22_mol2.chk"
 Charge = -1 Multiplicity = 1

                         Standard orientation:
 ---------------------------------------------------------------------
 Center     Atomic      Atomic             Coordinates (Angstroms)
 Number     Number       Type             X           Y           Z
 ---------------------------------------------------------------------
      1          6           0        0.714149   -0.610740   -0.355395
      2          6           0       -0.260215    0.567806   -0.289011
      3          9           0        0.465432   -1.403718    0.807836
      4          1           0       -0.103769    1.150652   -1.205878
      5          1           0        0.451104   -1.288036   -1.179118
      6          7           0        2.041635   -0.154054   -0.370940
      7          1           0        2.620279   -0.683672   -1.005432
      8          1           0        2.109164    0.867918   -0.581109
      9          7           0       -0.020150    1.482098    0.813736
     10          1           0        0.355146    0.947386    1.589293
     11          1           0        0.723880    2.104351    0.457671
     12          6           0       -1.645320    0.067091   -0.273287
     13          7           0       -2.745952   -0.342624   -0.287147
     14          1           0        1.874893    2.491989   -0.929335
 ---------------------------------------------------------------------

 SCF Done:  E(RHF) =  -380.829337820     A.U. after    2 cycles

 The electronic state is 1-A.
 Alpha  occ. eigenvalues --  -26.31106 -15.39235 -15.35223 -15.35146 -11.22895
 Alpha  occ. eigenvalues --  -11.17482 -11.16414  -1.43064  -1.10693  -1.08401
 Alpha  occ. eigenvalues --   -1.04057  -0.87492  -0.74245  -0.63115  -0.60816
 Alpha  occ. eigenvalues --   -0.58412  -0.54096  -0.52808  -0.50203  -0.48496
 Alpha  occ. eigenvalues --   -0.46245  -0.42793  -0.41997  -0.37171  -0.36173
 Alpha  occ. eigenvalues --   -0.32683  -0.31394  -0.11855
 Alpha virt. eigenvalues --    0.12848   0.14437   0.15298   0.15897   0.18206
 Alpha virt. eigenvalues --    0.18899   0.19477   0.20623   0.21663   0.23908
 Alpha virt. eigenvalues --    0.24118   0.24513   0.25648   0.25924   0.26974

 Mulliken charges:
               1
     1  C    0.654024
     2  C   -0.755019
     3  F   -0.870159
     4  H    0.101322
     5  H   -0.010667
     6  N    0.575409
     7  H    0.240440
     8  H   -0.065839
     9  N    0.510863
    10  H    0.229654
    11  H    0.248981
    12  C   -2.006544
    13  N    0.904223
    14  H   -0.756689
 Sum of Mulliken charges =  -1.00000

 Dipole moment (field-independent basis, Debye):
    X=             -0.9118    Y=             -6.7823    Z=              0.4550  Tot=              6.8584

 Test job not archived.
 1\1\GINC-SE074\SP\RHF\Aug-CC-pVDZ\C3H7F1N3(1-)\OHZDE\09-Apr-2025\0\\#t
  hf aug-cc-pvdz iop(5/13=1,5/36=2,99/5=2) pseudo=read geom=check guess
 =(read,tcheck) scf=(maxcycle=1)\\title\\-1,1\C,0,-0.273695,0.058734,-1
 .507018\C,0,0.000197,0.177946,-0.00584\F,0,-1.652264,-0.296862,-1.6369
 36\H,0,1.045302,0.498434,0.093521\H,0,-0.223939,1.043141,-1.991694\N,0
 ,0.548963,-0.922348,-2.082982\H,0,0.897834,-0.644922,-2.988094\H,0,1.3
 38561,-1.198826,-1.455883\N,0,-0.107072,-1.073324,0.723837\H,0,-0.8114
 3,-1.643253,0.268519\H,0,0.814005,-1.519179,0.58104\C,0,-0.872467,1.21

 Normal termination of Gaussian 16 at Wed Apr  9 02:43:59 2025.
