 Gaussian 16, Revision C.01,

 ----------------------------------------------------------------------
 #t hf aug-cc-pvdz symm=none int=(grid=ultrafine) guess=(read,tcheck) s
 table=(opt,rrhf)
 ----------------------------------------------------------------------
 -----
 title
 -----
 Symbolic Z-matrix:
 Charge = -1 Multiplicity = 1

 SCF Done:  E(RHF) =  -862.495273537     A.U. after   16 cycles
 Normal termination of Gaussian 16 at Wed Apr  9 02:55:58 2025.
 Gaussian 16:  ES64L-G16RevC.01  3-Jul-2019

 ----------------------------------------------------------------------
 #t hf aug-cc-pvdz iop(5/13=1,5/36=2,99/5=2) pseudo=read geom=check gue
 ss=(read,tcheck) scf=(maxcycle=1)
 ----------------------------------------------------------------------
 -----
 title
 -----
 Structure from the checkpoint file:  "E2SN2_347_mol2.chk"
 Charge = -1 Multiplicity = 1

                         Standard orientation:
 ---------------------------------------------------------------------
 Center     Atomic      Atomic             Coordinates (Angstroms)
 Number     Number       Type             X           Y           Z
 ---------------------------------------------------------------------
      1          6           0        0.154957   -0.617374    0.029493
      2          6           0        0.042291    0.728795   -0.736087
      3         17           0        1.916824   -1.117026   -0.097967
      4          1           0        0.577152    0.586897   -1.683841
      5          6           0       -0.214421   -0.493862    1.493008
      6          1           0       -1.286620   -0.247517    1.511926
      7          1           0        0.389801    0.263380    1.996984
      8          1           0       -0.060400   -1.454366    1.992947
      9          6           0       -0.706096   -1.664595   -0.650150
     10          1           0       -1.744840   -1.382486   -0.432554
     11          1           0       -0.496433   -2.649875   -0.225696
     12          1           0       -0.513071   -1.702024   -1.727441
     13          6           0        0.782753    1.788529   -0.017174
     14          7           0        1.367825    2.643641    0.535772
     15          7           0       -1.310571    1.181670   -1.011429
     16          1           0       -1.591460    0.764337   -1.890557
     17          1           0       -1.993000    0.797054   -0.304745
     18          9           0       -2.958312   -0.134676    0.560385
 ---------------------------------------------------------------------

 SCF Done:  E(RHF) =  -862.978648319     A.U. after    2 cycles

 The electronic state is 1-A.
 Alpha  occ. eigenvalues -- -105.42963 -26.10716 -15.38812 -15.34103 -11.19129
 Alpha  occ. eigenvalues --  -11.18617 -11.16000 -11.10172 -11.09000 -10.47858
 Alpha  occ. eigenvalues --   -7.64777  -7.64461  -7.64452  -1.17461  -1.10168
 Alpha  occ. eigenvalues --   -1.06611  -0.99669  -0.87338  -0.84263  -0.81803
 Alpha  occ. eigenvalues --   -0.65737  -0.59575  -0.54691  -0.53614  -0.49424
 Alpha  occ. eigenvalues --   -0.48208  -0.47995  -0.43795  -0.42344  -0.40183
 Alpha  occ. eigenvalues --   -0.39046  -0.38046  -0.36639  -0.35544  -0.34328
 Alpha  occ. eigenvalues --   -0.32150  -0.30375  -0.26783  -0.26428  -0.25892
 Alpha virt. eigenvalues --    0.12377   0.12998   0.13844   0.14884   0.15773
 Alpha virt. eigenvalues --    0.16624   0.17499   0.18502   0.18850   0.19418
 Alpha virt. eigenvalues --    0.20822   0.22370   0.23684   0.24152   0.25309

 Mulliken charges:
               1
     1  C   -1.460781
     2  C   -0.248923
     3  Cl  -0.206331
     4  H    0.110331
     5  C    0.274861
     6  H    0.237939
     7  H    0.254083
     8  H    0.166316
     9  C    0.056079
    10  H    0.255832
    11  H    0.143079
    12  H    0.194084
    13  C   -1.945888
    14  N    1.007989
    15  N    0.712143
    16  H    0.265194
    17  H    0.233659
    18  F   -1.049665
 Sum of Mulliken charges =  -1.00000

 Dipole moment (field-independent basis, Debye):
    X=              4.7663    Y=             -4.2185    Z=             -3.2770  Tot=              7.1591

 Test job not archived.
 1\1\GINC-SE106\SP\RHF\Aug-CC-pVDZ\C5H9Cl1F1N2(1-)\OHZDE\09-Apr-2025\0\
 \#t hf aug-cc-pvdz iop(5/13=1,5/36=2,99/5=2) pseudo=read geom=check gu
 ess=(read,tcheck) scf=(maxcycle=1)\\title\\-1,1\C,0,-0.020256,-0.00332
 ,-0.03039\C,0,-0.311211,-0.221026,-1.540002\Cl,0,1.807696,0.078307,0.1
 17936\H,0,0.371481,-1.013827,-1.871436\C,0,-0.612843,1.284441,0.502605
 \H,0,-1.704378,1.16042,0.440767\H,0,-0.265314,2.150914,-0.063911\H,0,-
 0.327515,1.413896,1.550488\C,0,-0.527922,-1.191463,0.763707\H,0,-1.623
 28,-1.115521,0.745131\H,0,-0.172707,-1.127313,1.795504\H,0,-0.179476,-

 Normal termination of Gaussian 16 at Wed Apr  9 02:56:08 2025.
