 Gaussian 16, Revision C.01,

 ----------------------------------------------------------------------
 #t hf aug-cc-pvdz symm=none int=(grid=ultrafine) guess=(read,tcheck) s
 table=(opt,rrhf)
 ----------------------------------------------------------------------
 -----
 title
 -----
 Symbolic Z-matrix:
 Charge = -1 Multiplicity = 1

 SCF Done:  E(RHF) =  -862.455669544     A.U. after   16 cycles
 Normal termination of Gaussian 16 at Wed Apr  9 02:35:42 2025.
 Gaussian 16:  ES64L-G16RevC.01  3-Jul-2019

 ----------------------------------------------------------------------
 #t hf aug-cc-pvdz iop(5/13=1,5/36=2,99/5=2) pseudo=read geom=check gue
 ss=(read,tcheck) scf=(maxcycle=1)
 ----------------------------------------------------------------------
 -----
 title
 -----
 Structure from the checkpoint file:  "E2SN2_117_mol1.chk"
 Charge = -1 Multiplicity = 1

                         Standard orientation:
 ---------------------------------------------------------------------
 Center     Atomic      Atomic             Coordinates (Angstroms)
 Number     Number       Type             X           Y           Z
 ---------------------------------------------------------------------
      1          6           0        0.363502    0.172069   -0.319668
      2          6           0       -0.795462   -0.363297    0.381847
      3         17           0        2.016525   -0.912796   -0.044841
      4          9           0       -2.868670    0.749112   -0.482929
      5          1           0       -1.824453    0.415404   -0.020705
      6          6           0        0.208424    0.208961   -1.828567
      7          1           0        0.047972   -0.811331   -2.170633
      8          1           0       -0.689670    0.793199   -2.047278
      9          1           0        1.085103    0.645040   -2.310120
     10          6           0       -0.706293   -0.391004    1.891570
     11          1           0       -0.361117    0.560254    2.307388
     12          1           0       -1.697605   -0.596534    2.308883
     13          1           0       -0.016920   -1.177898    2.238168
     14          7           0       -1.236488   -1.618552   -0.215059
     15          1           0       -2.244436   -1.572140   -0.307249
     16          1           0       -0.990468   -2.402839    0.381538
     17          6           0        0.785179    1.467487    0.207947
     18          7           0        1.107430    2.526705    0.605044
 ---------------------------------------------------------------------

 SCF Done:  E(RHF) =  -862.941090480     A.U. after    2 cycles

 The electronic state is 1-A.
 Alpha  occ. eigenvalues -- -105.40169 -26.16355 -15.39556 -15.34289 -11.21359
 Alpha  occ. eigenvalues --  -11.16868 -11.11182 -11.09159 -11.08226 -10.44933
 Alpha  occ. eigenvalues --   -7.61818  -7.61545  -7.61540  -1.24707  -1.10197
 Alpha  occ. eigenvalues --   -1.05346  -0.97375  -0.85767  -0.85185  -0.77005
 Alpha  occ. eigenvalues --   -0.69012  -0.57127  -0.53062  -0.50971  -0.49269
 Alpha  occ. eigenvalues --   -0.48276  -0.45528  -0.43233  -0.42443  -0.41543
 Alpha  occ. eigenvalues --   -0.40085  -0.38684  -0.36812  -0.34771  -0.33102
 Alpha  occ. eigenvalues --   -0.33002  -0.30792  -0.30690  -0.29301  -0.18483
 Alpha virt. eigenvalues --    0.13036   0.13388   0.13833   0.14727   0.15604
 Alpha virt. eigenvalues --    0.16181   0.16519   0.17596   0.18066   0.19992
 Alpha virt. eigenvalues --    0.20968   0.22038   0.23673   0.25017   0.25421

 Mulliken charges:
               1
     1  C   -0.735166
     2  C   -1.728534
     3  Cl  -0.278801
     4  F   -1.099501
     5  H    1.088030
     6  C    0.327082
     7  H    0.290748
     8  H    0.300564
     9  H    0.151461
    10  C   -0.065177
    11  H    0.256024
    12  H    0.094269
    13  H    0.182454
    14  N    0.352921
    15  H    0.321152
    16  H    0.232195
    17  C   -1.684696
    18  N    0.994975
 Sum of Mulliken charges =  -1.00000

 Dipole moment (field-independent basis, Debye):
    X=              2.2271    Y=             -3.8256    Z=             -0.0269  Tot=              4.4267

 Test job not archived.
 1\1\GINC-SE208\SP\RHF\Aug-CC-pVDZ\C5H9Cl1F1N2(1-)\OHZDE\09-Apr-2025\0\
 \#t hf aug-cc-pvdz iop(5/13=1,5/36=2,99/5=2) pseudo=read geom=check gu
 ess=(read,tcheck) scf=(maxcycle=1)\\title\\-1,1\C,0,-0.24139607,0.0220
 7465,-0.35464988\C,0,-0.28162241,0.00941795,1.10142631\Cl,0,1.61519934
 ,0.00517729,-1.08794132\F,0,-2.61195853,-0.52179923,1.85695651\H,0,-1.
 59434891,-0.10497962,1.40293777\C,0,-0.89036585,-1.18800921,-1.0001905
 4\H,0,-0.35945146,-2.07279103,-0.65516618\H,0,-1.91971526,-1.23673277,
 -0.63439617\H,0,-0.86537434,-1.12194658,-2.0890595\C,0,0.32235495,1.21

 Normal termination of Gaussian 16 at Wed Apr  9 02:35:51 2025.
