 Gaussian 16, Revision C.01,

 ----------------------------------------------------------------------
 #t hf aug-cc-pvdz symm=none int=(grid=ultrafine) guess=(read,tcheck) s
 table=(opt,rrhf)
 ----------------------------------------------------------------------
 -----
 title
 -----
 Symbolic Z-matrix:
 Charge = -1 Multiplicity = 1

 SCF Done:  E(RHF) =  -476.210674278     A.U. after   16 cycles
 Normal termination of Gaussian 16 at Wed Apr  9 02:41:01 2025.
 Gaussian 16:  ES64L-G16RevC.01  3-Jul-2019

 ----------------------------------------------------------------------
 #t hf aug-cc-pvdz iop(5/13=1,5/36=2,99/5=2) pseudo=read geom=check gue
 ss=(read,tcheck) scf=(maxcycle=1)
 ----------------------------------------------------------------------
 -----
 title
 -----
 Structure from the checkpoint file:  "E2SN2_196_mol2.chk"
 Charge = -1 Multiplicity = 1

                         Standard orientation:
 ---------------------------------------------------------------------
 Center     Atomic      Atomic             Coordinates (Angstroms)
 Number     Number       Type             X           Y           Z
 ---------------------------------------------------------------------
      1          6           0       -1.058297   -0.438367    0.283927
      2          6           0       -0.015519    0.448481   -0.403502
      3          9           0       -0.578466   -1.765103    0.142162
      4          1           0       -0.067891    0.274063   -1.480451
      5          1           0       -1.071450   -0.224976    1.355661
      6          7           0       -2.351858   -0.309382   -0.239281
      7          1           0       -2.851145    0.539748    0.165006
      8          1           0       -2.327090   -0.192982   -1.246630
      9          7           0        1.364105    0.005208   -0.027232
     10          8           0        1.664531    0.038083    1.165187
     11          8           0        2.118494   -0.366734   -0.927758
     12          6           0       -0.201877    1.907497   -0.035355
     13          1           0        0.106971    2.059892    1.000352
     14          1           0       -1.265877    2.170739   -0.091290
     15          1           0        0.391691    2.555634   -0.685942
     16          1           0       -3.404783    1.956571    0.599574
 ---------------------------------------------------------------------

 SCF Done:  E(RHF) =  -476.687180209     A.U. after    2 cycles

 The electronic state is 1-A.
 Alpha  occ. eigenvalues --  -26.32072 -20.48345 -20.48089 -15.67305 -15.34622
 Alpha  occ. eigenvalues --  -11.23152 -11.19289 -11.12407  -1.55090  -1.44201
 Alpha  occ. eigenvalues --   -1.38966  -1.07861  -1.01841  -0.86109  -0.79714
 Alpha  occ. eigenvalues --   -0.72637  -0.66484  -0.64210  -0.62589  -0.59641
 Alpha  occ. eigenvalues --   -0.56395  -0.53766  -0.50706  -0.47486  -0.45987
 Alpha  occ. eigenvalues --   -0.43071  -0.42378  -0.39655  -0.38105  -0.37422
 Alpha  occ. eigenvalues --   -0.34071  -0.31355  -0.10561
 Alpha virt. eigenvalues --    0.12537   0.13482   0.14917   0.15999   0.16159
 Alpha virt. eigenvalues --    0.16991   0.18695   0.20539   0.21397   0.22093
 Alpha virt. eigenvalues --    0.22443   0.23969   0.24649   0.25268   0.25619

 Mulliken charges:
               1
     1  C    0.472944
     2  C   -1.363154
     3  F   -0.905003
     4  H    0.028936
     5  H    0.105360
     6  N    0.385280
     7  H    0.074395
     8  H    0.242062
     9  N    3.126395
    10  O   -1.512055
    11  O   -1.460447
    12  C   -0.029257
    13  H    0.293416
    14  H    0.167138
    15  H    0.164888
    16  H   -0.790899
 Sum of Mulliken charges =  -1.00000

 Dipole moment (field-independent basis, Debye):
    X=              9.5557    Y=             -3.0858    Z=             -3.0901  Tot=             10.5064

 Test job not archived.
 1\1\GINC-SE252\SP\RHF\Aug-CC-pVDZ\C3H8F1N2O2(1-)\OHZDE\09-Apr-2025\0\\
 #t hf aug-cc-pvdz iop(5/13=1,5/36=2,99/5=2) pseudo=read geom=check gue
 ss=(read,tcheck) scf=(maxcycle=1)\\title\\-1,1\C,0,-0.088224,0.080623,
 -0.083652\C,0,-0.179697,0.047977,-1.612381\F,0,1.29721,0.147983,0.2106
 28\H,0,0.200436,-0.914463,-1.961941\H,0,-0.531245,1.00707,0.290182\N,0
 ,-0.686964,-1.017713,0.547895\H,0,-1.739872,-0.887158,0.637882\H,0,-0.
 53311,-1.869785,0.019486\N,0,0.761206,1.050554,-2.20481\O,0,0.591197,2
 .23208,-1.907669\O,0,1.649723,0.639192,-2.952947\C,0,-1.591831,0.32905

 Normal termination of Gaussian 16 at Wed Apr  9 02:41:07 2025.
