 Gaussian 16, Revision C.01,

 ----------------------------------------------------------------------
 #t hf aug-cc-pvdz symm=none int=(grid=ultrafine) guess=(read,tcheck) s
 table=(opt,rrhf)
 ----------------------------------------------------------------------
 -----
 title
 -----
 Symbolic Z-matrix:
 Charge = -1 Multiplicity = 1

 SCF Done:  E(RHF) =  -403.489028661     A.U. after   15 cycles
 Normal termination of Gaussian 16 at Wed Apr  9 02:35:09 2025.
 Gaussian 16:  ES64L-G16RevC.01  3-Jul-2019

 ----------------------------------------------------------------------
 #t hf aug-cc-pvdz iop(5/13=1,5/36=2,99/5=2) pseudo=read geom=check gue
 ss=(read,tcheck) scf=(maxcycle=1)
 ----------------------------------------------------------------------
 -----
 title
 -----
 Structure from the checkpoint file:  "E2SN2_115_mol2.chk"
 Charge = -1 Multiplicity = 1

                         Standard orientation:
 ---------------------------------------------------------------------
 Center     Atomic      Atomic             Coordinates (Angstroms)
 Number     Number       Type             X           Y           Z
 ---------------------------------------------------------------------
      1          6           0        0.770784   -0.229071    0.084517
      2          6           0       -0.462375    0.520256   -0.436818
      3          9           0        0.624879   -0.396883    1.488023
      4          1           0       -0.265846    0.640638   -1.513335
      5          6           0        0.869360   -1.628597   -0.496288
      6          1           0       -0.002353   -2.237256   -0.243459
      7          1           0        1.763585   -2.116015   -0.095511
      8          1           0        0.967673   -1.536971   -1.581238
      9          7           0        1.902694    0.598788   -0.168419
     10          1           0        1.824837    0.885672   -1.179025
     11          1           0        2.743667    0.034941   -0.085769
     12          6           0       -0.602562    1.912773    0.181801
     13          1           0        0.256590    2.512011   -0.114542
     14          1           0       -1.515891    2.395337   -0.176415
     15          1           0       -0.633790    1.847022    1.270998
     16          6           0       -1.679007   -0.258019   -0.224931
     17          7           0       -2.675980   -0.857346   -0.054491
     18          1           0        1.273412    1.052424   -2.763217
 ---------------------------------------------------------------------

 SCF Done:  E(RHF) =  -403.903484100     A.U. after    2 cycles

 The electronic state is 1-A.
 Alpha  occ. eigenvalues --  -26.31063 -15.39153 -15.34364 -11.22486 -11.16549
 Alpha  occ. eigenvalues --  -11.14088 -11.11330 -11.10953  -1.43276  -1.10013
 Alpha  occ. eigenvalues --   -1.07041  -0.95338  -0.87690  -0.77879  -0.70222
 Alpha  occ. eigenvalues --   -0.61789  -0.56938  -0.54858  -0.52182  -0.50246
 Alpha  occ. eigenvalues --   -0.48316  -0.46849  -0.46123  -0.44107  -0.42994
 Alpha  occ. eigenvalues --   -0.41413  -0.40523  -0.38562  -0.35534  -0.35014
 Alpha  occ. eigenvalues --   -0.30857  -0.10691
 Alpha virt. eigenvalues --    0.12550   0.13215   0.13871   0.14674   0.15798
 Alpha virt. eigenvalues --    0.16215   0.16460   0.18146   0.19566   0.20407
 Alpha virt. eigenvalues --    0.21328   0.22230   0.22707   0.24510   0.25575

 Mulliken charges:
               1
     1  C   -0.618071
     2  C   -0.079239
     3  F   -1.042486
     4  H    0.205125
     5  C   -0.252482
     6  H    0.279941
     7  H    0.112865
     8  H    0.278287
     9  N    0.656831
    10  H    0.163109
    11  H    0.259501
    12  C    0.026006
    13  H    0.264493
    14  H    0.161075
    15  H    0.251455
    16  C   -1.948020
    17  N    0.982243
    18  H   -0.700633
 Sum of Mulliken charges =  -1.00000

 Dipole moment (field-independent basis, Debye):
    X=             -0.3932    Y=             -2.2866    Z=              6.8089  Tot=              7.1933

 Test job not archived.
 1\1\GINC-SE123\SP\RHF\Aug-CC-pVDZ\C5H10F1N2(1-)\OHZDE\09-Apr-2025\0\\#
 t hf aug-cc-pvdz iop(5/13=1,5/36=2,99/5=2) pseudo=read geom=check gues
 s=(read,tcheck) scf=(maxcycle=1)\\title\\-1,1\C,0,-0.236121,-0.029684,
 -1.467709\C,0,-0.026708,0.064993,0.049243\F,0,-1.61774,-0.257726,-1.70
 9377\H,0,1.059173,0.20848,0.160056\C,0,0.101395,1.274921,-2.167576\H,0
 ,-0.519884,2.100779,-1.81227\H,0,-0.062215,1.152469,-3.242785\H,0,1.15
 8315,1.489609,-1.988674\N,0,0.506784,-1.156736,-1.924211\H,0,1.469956,
 -1.048305,-1.511622\H,0,0.609012,-1.092679,-2.932891\C,0,-0.414134,-1.

 Normal termination of Gaussian 16 at Wed Apr  9 02:35:17 2025.
