 Gaussian 16, Revision C.01,

 ----------------------------------------------------------------------
 #t hf aug-cc-pvdz symm=none int=(grid=ultrafine) guess=(read,tcheck) s
 table=(opt,rrhf)
 ----------------------------------------------------------------------
 -----
 title
 -----
 Symbolic Z-matrix:
 Charge = -1 Multiplicity = 1

 SCF Done:  E(RHF) =  -1024.59185108     A.U. after   16 cycles
 Normal termination of Gaussian 16 at Wed Apr  9 02:43:28 2025.
 Gaussian 16:  ES64L-G16RevC.01  3-Jul-2019

 ----------------------------------------------------------------------
 #t hf aug-cc-pvdz iop(5/13=1,5/36=2,99/5=2) pseudo=read geom=check gue
 ss=(read,tcheck) scf=(maxcycle=1)
 ----------------------------------------------------------------------
 -----
 title
 -----
 Structure from the checkpoint file:  "E2SN2_215_mol2.chk"
 Charge = -1 Multiplicity = 1

                         Standard orientation:
 ---------------------------------------------------------------------
 Center     Atomic      Atomic             Coordinates (Angstroms)
 Number     Number       Type             X           Y           Z
 ---------------------------------------------------------------------
      1          6           0        0.438756   -0.308249    0.246102
      2          6           0       -0.729391    0.156709   -0.625787
      3         17           0        0.884286   -1.976652   -0.165800
      4          1           0       -0.451051    0.079514   -1.683965
      5          1           0        0.032594   -0.184294    1.298162
      6          7           0        1.641557    0.543123   -0.018399
      7          8           0        1.721210    1.130792   -1.098995
      8          8           0        2.486650    0.579539    0.871206
      9          6           0       -1.058804    1.560361   -0.351060
     10          7           0       -1.289068    2.711116   -0.325778
     11          6           0       -1.901069   -0.695595   -0.398927
     12          7           0       -2.831110   -1.411144   -0.424340
     13          9           0       -1.269320    0.316022    1.909375
 ---------------------------------------------------------------------

 SCF Done:  E(RHF) =  -1025.19762515     A.U. after    2 cycles

 The electronic state is 1-A.
 Alpha  occ. eigenvalues -- -105.48684 -26.12444 -20.49977 -20.49943 -15.69387
 Alpha  occ. eigenvalues --  -15.40950 -15.40732 -11.25315 -11.23648 -11.18950
 Alpha  occ. eigenvalues --  -11.18629 -10.53522  -7.70481  -7.70082  -7.70058
 Alpha  occ. eigenvalues --   -1.56870  -1.40831  -1.19708  -1.12610  -1.10677
 Alpha  occ. eigenvalues --   -1.08560  -0.97077  -0.93722  -0.76010  -0.69470
 Alpha  occ. eigenvalues --   -0.67218  -0.66222  -0.63184  -0.61340  -0.52220
 Alpha  occ. eigenvalues --   -0.50445  -0.49606  -0.48226  -0.42340  -0.39992
 Alpha  occ. eigenvalues --   -0.39674  -0.39424  -0.38941  -0.38040  -0.37414
 Alpha  occ. eigenvalues --   -0.36187  -0.35021  -0.28939  -0.28722  -0.27086
 Alpha virt. eigenvalues --    0.12633   0.14245   0.16259   0.17451   0.17771
 Alpha virt. eigenvalues --    0.18683   0.21242   0.22281   0.22901   0.22968
 Alpha virt. eigenvalues --    0.23571   0.24237   0.24690   0.25447   0.25741

 Mulliken charges:
               1
     1  C   -0.613870
     2  C    0.956442
     3  Cl  -0.035179
     4  H    0.381499
     5  H    0.475101
     6  N    2.834319
     7  O   -1.377187
     8  O   -1.446684
     9  C   -1.697679
    10  N    1.116877
    11  C   -1.728631
    12  N    1.064810
    13  F   -0.929817
 Sum of Mulliken charges =  -1.00000

 Dipole moment (field-independent basis, Debye):
    X=              5.5240    Y=             -3.1864    Z=             -5.1953  Tot=              8.2255

 Test job not archived.
 1\1\GINC-SE023\SP\RHF\Aug-CC-pVDZ\C4H2Cl1F1N3O2(1-)\OHZDE\09-Apr-2025\
 0\\#t hf aug-cc-pvdz iop(5/13=1,5/36=2,99/5=2) pseudo=read geom=check
 guess=(read,tcheck) scf=(maxcycle=1)\\title\\-1,1\C,0,-0.092816,0.1138
 34,0.042489\C,0,-0.365189,0.427947,-1.429954\Cl,0,1.609458,-0.336959,0
 .267827\H,0,0.297441,1.236811,-1.761367\H,0,-0.825965,-0.723971,0.2609
 78\N,0,-0.33589,1.333298,0.876366\O,0,-0.265229,2.439418,0.337021\O,0,
 -0.574392,1.13913,2.064777\C,0,-1.749438,0.877387,-1.619914\N,0,-2.774
 616,1.40095,-1.849671\C,0,-0.094238,-0.751852,-2.257829\N,0,0.254558,-

 Normal termination of Gaussian 16 at Wed Apr  9 02:43:35 2025.
