 Gaussian 16, Revision C.01,

 ----------------------------------------------------------------------
 #t hf aug-cc-pvdz symm=none int=(grid=ultrafine) guess=(read,tcheck) s
 table=(opt,rrhf)
 ----------------------------------------------------------------------
 -----
 title
 -----
 Symbolic Z-matrix:
 Charge = -1 Multiplicity = 1

 SCF Done:  E(RHF) =  -971.873284407     A.U. after   18 cycles
 Normal termination of Gaussian 16 at Wed Apr  9 02:44:39 2025.
 Gaussian 16:  ES64L-G16RevC.01  3-Jul-2019

 ----------------------------------------------------------------------
 #t hf aug-cc-pvdz iop(5/13=1,5/36=2,99/5=2) pseudo=read geom=check gue
 ss=(read,tcheck) scf=(maxcycle=1)
 ----------------------------------------------------------------------
 -----
 title
 -----
 Structure from the checkpoint file:  "E2SN2_229_mol1.chk"
 Charge = -1 Multiplicity = 1

                         Standard orientation:
 ---------------------------------------------------------------------
 Center     Atomic      Atomic             Coordinates (Angstroms)
 Number     Number       Type             X           Y           Z
 ---------------------------------------------------------------------
      1          6           0        0.074294   -0.093560   -0.050311
      2          1           0        0.613267   -1.177644   -1.756197
      3         17           0       -0.042530    2.039209    0.014296
      4          9           0        0.038566   -2.034592    0.115937
      5          6           0        0.926414   -0.247107   -1.291636
      6          1           0        0.717939    0.578719   -1.971252
      7          7           0       -1.399317   -0.294024   -0.196821
      8          8           0       -1.820318   -0.378887   -1.343737
      9          8           0       -2.072143   -0.321469    0.822099
     10          6           0        0.597620   -0.239710    1.285467
     11          7           0        1.094316   -0.260718    2.351338
     12          6           0        2.402891   -0.303089   -0.931877
     13          1           0        2.721380    0.605775   -0.416484
     14          1           0        2.584671   -1.160651   -0.283197
     15          1           0        3.006046   -0.414595   -1.837710
 ---------------------------------------------------------------------

 SCF Done:  E(RHF) =  -972.443481937     A.U. after    2 cycles

 The electronic state is 1-A.
 Alpha  occ. eigenvalues -- -105.39608 -26.17073 -20.46498 -20.46468 -15.67528
 Alpha  occ. eigenvalues --  -15.39054 -11.31155 -11.17605 -11.13404 -11.11976
 Alpha  occ. eigenvalues --  -10.44383  -7.61250  -7.60994  -7.60989  -1.54381
 Alpha  occ. eigenvalues --   -1.38271  -1.25175  -1.09657  -1.03638  -0.92766
 Alpha  occ. eigenvalues --   -0.85884  -0.79485  -0.75889  -0.68753  -0.62383
 Alpha  occ. eigenvalues --   -0.61711  -0.54483  -0.52818  -0.48349  -0.45117
 Alpha  occ. eigenvalues --   -0.43813  -0.41560  -0.41207  -0.39005  -0.36788
 Alpha  occ. eigenvalues --   -0.35516  -0.34439  -0.33157  -0.32459  -0.31941
 Alpha  occ. eigenvalues --   -0.30794  -0.29663  -0.28481
 Alpha virt. eigenvalues --    0.11775   0.13830   0.14464   0.16074   0.16405
 Alpha virt. eigenvalues --    0.17184   0.19760   0.19988   0.21986   0.23016
 Alpha virt. eigenvalues --    0.23999   0.24397   0.24925   0.25028   0.25639

 Mulliken charges:
               1
     1  C   -0.495350
     2  H    0.341650
     3  Cl  -0.388453
     4  F   -0.853757
     5  C    0.316458
     6  H    0.179162
     7  N    3.401160
     8  O   -1.595001
     9  O   -1.561080
    10  C   -1.728556
    11  N    1.078209
    12  C   -0.318395
    13  H    0.301878
    14  H    0.297556
    15  H    0.024519
 Sum of Mulliken charges =  -1.00000

 Dipole moment (field-independent basis, Debye):
    X=              1.8452    Y=              1.6496    Z=             -4.4162  Tot=              5.0625

 Test job not archived.
 1\1\GINC-SE366\SP\RHF\Aug-CC-pVDZ\C4H5Cl1F1N2O2(1-)\OHZDE\09-Apr-2025\
 0\\#t hf aug-cc-pvdz iop(5/13=1,5/36=2,99/5=2) pseudo=read geom=check
 guess=(read,tcheck) scf=(maxcycle=1)\\title\\-1,1\C,0,0.41289767,-0.03
 170723,-0.02456777\H,0,1.47650084,1.71967043,-0.44552301\Cl,0,-1.66919
 852,-0.28464876,-0.43374092\F,0,2.32031562,-0.06625733,0.3717688\C,0,0
 .48333071,1.47919625,-0.0773373\H,0,-0.25841349,1.84586706,-0.78634913
 \N,0,0.86889345,-0.78546925,-1.23166822\O,0,1.08378575,-0.11706312,-2.
 23511952\O,0,0.95756869,-2.00026057,-1.1418689\C,0,0.39806304,-0.77531

 Normal termination of Gaussian 16 at Wed Apr  9 02:44:46 2025.
