 Gaussian 16, Revision C.01,

 ----------------------------------------------------------------------
 #t hf aug-cc-pvdz symm=none int=(grid=ultrafine) guess=(read,tcheck) s
 table=(opt,rrhf)
 ----------------------------------------------------------------------
 -----
 title
 -----
 Symbolic Z-matrix:
 Charge =  0 Multiplicity = 1

 SCF Done:  E(RHF) =  -328.725957684     A.U. after   15 cycles
 Normal termination of Gaussian 16 at Wed Apr  9 03:02:39 2025.
 Gaussian 16:  ES64L-G16RevC.01  3-Jul-2019

 ----------------------------------------------------------------------
 #t hf aug-cc-pvdz iop(5/13=1,5/36=2,99/5=2) pseudo=read geom=check gue
 ss=(read,tcheck) scf=(maxcycle=1)
 ----------------------------------------------------------------------
 -----
 title
 -----
 Structure from the checkpoint file:  "EIE22_6_mol2.chk"
 Charge =  0 Multiplicity = 1

                         Standard orientation:
 ---------------------------------------------------------------------
 Center     Atomic      Atomic             Coordinates (Angstroms)
 Number     Number       Type             X           Y           Z
 ---------------------------------------------------------------------
      1          6           0       -1.130504   -0.317366    0.000000
      2          8           0       -2.286709   -0.046748    0.000000
      3          6           0        0.000000    0.607358    0.000000
      4          1           0       -0.284388    1.651062    0.000000
      5          6           0        1.278466    0.227558    0.000000
      6          6           0        2.437241    1.160511    0.000000
      7          1           0        3.067735    0.983049    0.874754
      8          1           0        3.067735    0.983049   -0.874754
      9          1           0        1.502013   -0.832660    0.000000
     10          1           0        2.124408    2.203147    0.000000
     11          9           0       -0.743895   -1.631337    0.000000
 ---------------------------------------------------------------------

 SCF Done:  E(RHF) =  -329.049556115     A.U. after    2 cycles

 The electronic state is 1-A'.
 Alpha  occ. eigenvalues --  -26.48521 -20.56144 -11.42925 -11.29511 -11.26762
 Alpha  occ. eigenvalues --  -11.26354  -1.62490  -1.49858  -1.12490  -1.00689
 Alpha  occ. eigenvalues --   -0.86975  -0.80711  -0.74675  -0.70562  -0.69121
 Alpha  occ. eigenvalues --   -0.63428  -0.61767  -0.60639  -0.57657  -0.55081
 Alpha  occ. eigenvalues --   -0.53899  -0.47634  -0.40751
 Alpha virt. eigenvalues --    0.02818   0.03890   0.04610   0.04781   0.07011
 Alpha virt. eigenvalues --    0.07047   0.09331   0.10959   0.10999   0.12082
 Alpha virt. eigenvalues --    0.12792   0.13951   0.14774   0.16161   0.16319

 Mulliken charges:
               1
     1  C    1.535819
     2  O   -1.155622
     3  C    0.558753
     4  H   -0.212121
     5  C    0.305660
     6  C   -0.754436
     7  H    0.251744
     8  H    0.251744
     9  H   -0.119853
    10  H    0.114551
    11  F   -0.776238
 Sum of Mulliken charges =  -0.00000

 Dipole moment (field-independent basis, Debye):
    X=              4.4048    Y=              1.4876    Z=              0.0000  Tot=              4.6492

 Test job not archived.
 1\1\GINC-SE165\SP\RHF\Aug-CC-pVDZ\C4H5F1O1\OHZDE\09-Apr-2025\0\\#t hf
 aug-cc-pvdz iop(5/13=1,5/36=2,99/5=2) pseudo=read geom=check guess=(re
 ad,tcheck) scf=(maxcycle=1)\\title\\0,1\C,0,-1.130504,-0.317366,0.\O,0
 ,-2.286709,-0.046747,0.\C,0,0.,0.607358,0.\H,0,-0.284388,1.651062,0.\C
 ,0,1.278466,0.227558,0.\C,0,2.437241,1.160511,0.\H,0,3.067735,0.983048
 ,0.874754\H,0,3.067735,0.983048,-0.874754\H,0,1.502013,-0.83266,0.\H,0
 ,2.124408,2.203147,0.\F,0,-0.743895,-1.631337,0.\\Version=ES64L-G16Rev
 C.01\State=1-A'\HF=-329.0495561\RMSD=1.807e-02\Dipole=1.7329911,0.5852

 Normal termination of Gaussian 16 at Wed Apr  9 03:02:43 2025.
