 Gaussian 16, Revision C.01,

 ----------------------------------------------------------------------
 #t hf aug-cc-pvdz symm=none int=(grid=ultrafine) guess=(read,tcheck) s
 table=(opt,rrhf)
 ----------------------------------------------------------------------
 -----
 title
 -----
 Symbolic Z-matrix:
 Charge =  0 Multiplicity = 1

 SCF Done:  E(RHF) =  -328.718681906     A.U. after   14 cycles
 Normal termination of Gaussian 16 at Wed Apr  9 03:02:38 2025.
 Gaussian 16:  ES64L-G16RevC.01  3-Jul-2019

 ----------------------------------------------------------------------
 #t hf aug-cc-pvdz iop(5/13=1,5/36=2,99/5=2) pseudo=read geom=check gue
 ss=(read,tcheck) scf=(maxcycle=1)
 ----------------------------------------------------------------------
 -----
 title
 -----
 Structure from the checkpoint file:  "EIE22_6_mol1.chk"
 Charge =  0 Multiplicity = 1

                         Standard orientation:
 ---------------------------------------------------------------------
 Center     Atomic      Atomic             Coordinates (Angstroms)
 Number     Number       Type             X           Y           Z
 ---------------------------------------------------------------------
      1          6           0        1.000347    0.144783   -0.012972
      2          8           0        1.143109    1.311222   -0.129149
      3          6           0       -0.241450   -0.644418    0.289299
      4          1           0       -0.058041   -1.140325    1.249240
      5          6           0       -1.479788    0.195204    0.341685
      6          1           0       -0.324154   -1.444709   -0.447810
      7          6           0       -2.586990   -0.082155   -0.330066
      8          1           0       -2.656689   -0.943558   -0.983216
      9          1           0       -3.464790    0.543700   -0.251631
     10          1           0       -1.433945    1.070881    0.977850
     11          9           0        2.071115   -0.695139   -0.137657
 ---------------------------------------------------------------------

 SCF Done:  E(RHF) =  -329.042153397     A.U. after    2 cycles

 The electronic state is 1-A.
 Alpha  occ. eigenvalues --  -26.49341 -20.57483 -11.43776 -11.28487 -11.26417
 Alpha  occ. eigenvalues --  -11.25250  -1.63446  -1.51378  -1.11625  -1.01043
 Alpha  occ. eigenvalues --   -0.84886  -0.78909  -0.73992  -0.71785  -0.71085
 Alpha  occ. eigenvalues --   -0.66017  -0.63028  -0.61034  -0.58242  -0.53102
 Alpha  occ. eigenvalues --   -0.52704  -0.48496  -0.39658
 Alpha virt. eigenvalues --    0.03337   0.03991   0.04058   0.05757   0.06718
 Alpha virt. eigenvalues --    0.08614   0.09660   0.10929   0.12032   0.13201
 Alpha virt. eigenvalues --    0.13640   0.14493   0.14958   0.15351   0.15641

 Mulliken charges:
               1
     1  C    1.714063
     2  O   -1.079123
     3  C   -0.842673
     4  H    0.342648
     5  C    0.818037
     6  H    0.195210
     7  C   -0.124245
     8  H   -0.060947
     9  H   -0.075400
    10  H   -0.152896
    11  F   -0.734675
 Sum of Mulliken charges =  -0.00000

 Dipole moment (field-independent basis, Debye):
    X=             -2.3224    Y=             -1.9420    Z=              0.5925  Tot=              3.0848

 Test job not archived.
 1\1\GINC-SE220\SP\RHF\Aug-CC-pVDZ\C4H5F1O1\OHZDE\09-Apr-2025\0\\#t hf
 aug-cc-pvdz iop(5/13=1,5/36=2,99/5=2) pseudo=read geom=check guess=(re
 ad,tcheck) scf=(maxcycle=1)\\title\\0,1\C,0,1.000347,0.144783,-0.01297
 2\O,0,1.143109,1.311222,-0.129149\C,0,-0.24145,-0.644418,0.289299\H,0,
 -0.058041,-1.140325,1.24924\C,0,-1.479788,0.195204,0.341685\H,0,-0.324
 154,-1.444709,-0.44781\C,0,-2.58699,-0.082156,-0.330066\H,0,-2.656689,
 -0.943559,-0.983216\H,0,-3.46479,0.543699,-0.251631\H,0,-1.433945,1.07
 0881,0.97785\F,0,2.071115,-0.695139,-0.137657\\Version=ES64L-G16RevC.0

 Normal termination of Gaussian 16 at Wed Apr  9 03:02:42 2025.
