 Gaussian 16, Revision C.01,

 ----------------------------------------------------------------------
 #t hf aug-cc-pvdz symm=none int=(grid=ultrafine) guess=(read,tcheck) s
 table=(opt,rrhf)
 ----------------------------------------------------------------------
 -----
 title
 -----
 Symbolic Z-matrix:
 Charge =  0 Multiplicity = 1

 SCF Done:  E(RHF) =  -1048.89430441     A.U. after   13 cycles
 Normal termination of Gaussian 16 at Wed Apr  9 03:04:49 2025.
 Gaussian 16:  ES64L-G16RevC.01  3-Jul-2019

 ----------------------------------------------------------------------
 #t hf aug-cc-pvdz iop(5/13=1,5/36=2,99/5=2) pseudo=read geom=check gue
 ss=(read,tcheck) scf=(maxcycle=1)
 ----------------------------------------------------------------------
 -----
 title
 -----
 Structure from the checkpoint file:  "F-set_cf3co2h_cf3co2h_150_dimer_mol1.chk"
 Charge =  0 Multiplicity = 1

                         Standard orientation:
 ---------------------------------------------------------------------
 Center     Atomic      Atomic             Coordinates (Angstroms)
 Number     Number       Type             X           Y           Z
 ---------------------------------------------------------------------
      1          6           0        0.016348    3.133465   -0.000009
      2          8           0        1.231961    2.682035    0.000121
      3          8           0       -1.004224    2.488183    0.000041
      4          6           0       -0.016348    4.684521   -0.000049
      5          1           0        1.233921    1.689337    0.000091
      6          9           0        0.602532    5.151960    1.081531
      7          9           0        0.604541    5.152034   -1.080449
      8          9           0       -1.261666    5.123592   -0.001199
      9          6           0       -0.016348   -3.133465   -0.000009
     10          8           0       -1.231961   -2.682035    0.000121
     11          8           0        1.004224   -2.488183    0.000041
     12          6           0        0.016348   -4.684521   -0.000049
     13          1           0       -1.233921   -1.689337    0.000091
     14          9           0        1.261666   -5.123592   -0.001199
     15          9           0       -0.602532   -5.151960    1.081531
     16          9           0       -0.604541   -5.152034   -1.080449
 ---------------------------------------------------------------------

 SCF Done:  E(RHF) =  -1049.86574702     A.U. after    2 cycles

 The electronic state is 1-A.
 Alpha  occ. eigenvalues --  -26.53268 -26.53268 -26.53265 -26.53265 -26.52927
 Alpha  occ. eigenvalues --  -26.52927 -20.65726 -20.65726 -20.58784 -20.58783
 Alpha  occ. eigenvalues --  -11.55193 -11.55192 -11.44998 -11.44998  -1.75068
 Alpha  occ. eigenvalues --   -1.75066  -1.64543  -1.64543  -1.64520  -1.64520
 Alpha  occ. eigenvalues --   -1.61109  -1.61105  -1.50540  -1.50539  -1.04736
 Alpha  occ. eigenvalues --   -1.04735  -0.92306  -0.92303  -0.85025  -0.85022
 Alpha  occ. eigenvalues --   -0.84332  -0.84332  -0.82835  -0.82834  -0.75323
 Alpha  occ. eigenvalues --   -0.75297  -0.72056  -0.72056  -0.71342  -0.71332
 Alpha  occ. eigenvalues --   -0.68792  -0.68782  -0.68001  -0.67997  -0.66253
 Alpha  occ. eigenvalues --   -0.66252  -0.65652  -0.65652  -0.64336  -0.64336
 Alpha  occ. eigenvalues --   -0.60328  -0.60311  -0.51975  -0.51970  -0.49623
 Alpha  occ. eigenvalues --   -0.49531
 Alpha virt. eigenvalues --    0.02818   0.04730   0.07509   0.07678   0.07702
 Alpha virt. eigenvalues --    0.08991   0.09226   0.09545   0.09708   0.10178
 Alpha virt. eigenvalues --    0.10697   0.11983   0.12869   0.13190   0.13800

 Mulliken charges:
               1
     1  C    1.292939
     2  O   -1.127003
     3  O   -1.053832
     4  C    2.561356
     5  H    0.414707
     6  F   -0.681100
     7  F   -0.681108
     8  F   -0.725958
     9  C    1.292939
    10  O   -1.127003
    11  O   -1.053832
    12  C    2.561356
    13  H    0.414707
    14  F   -0.725958
    15  F   -0.681100
    16  F   -0.681108
 Sum of Mulliken charges =  -0.00000

 Dipole moment (field-independent basis, Debye):
    X=              0.0000    Y=              0.0000    Z=             -0.0004  Tot=              0.0004

 Test job not archived.
 1\1\GINC-SE129\SP\RHF\Aug-CC-pVDZ\C4H2F6O4\OHZDE\09-Apr-2025\0\\#t hf
 aug-cc-pvdz iop(5/13=1,5/36=2,99/5=2) pseudo=read geom=check guess=(re
 ad,tcheck) scf=(maxcycle=1)\\title\\0,1\C,0,-0.00078,1.87956,-0.00001\
 O,0,1.20457,1.4014,0.00012\O,0,-1.03535,1.25697,0.00004\C,0,0.00078,3.
 43096,-0.00005\H,0,1.18461,0.4089,0.00009\F,0,0.62983,3.88462,1.08153\
 F,0,0.63184,3.88465,-1.08045\F,0,-1.23454,3.89742,-0.0012\C,0,-0.17184
 ,-4.38512,-0.00001\O,0,-1.37719,-3.90696,0.00012\O,0,0.86273,-3.76253,
 0.00004\C,0,-0.1734,-5.93652,-0.00005\H,0,-1.35723,-2.91446,0.00009\F,

 Normal termination of Gaussian 16 at Wed Apr  9 03:05:09 2025.
