 Gaussian 16, Revision C.01,

 ----------------------------------------------------------------------
 #t hf aug-cc-pvdz symm=none int=(grid=ultrafine) guess=(read,tcheck) s
 table=(opt,rrhf)
 ----------------------------------------------------------------------
 -----
 title
 -----
 Symbolic Z-matrix:
 Charge =  0 Multiplicity = 1

 SCF Done:  E(RHF) =  -1048.89235677     A.U. after   13 cycles
 Normal termination of Gaussian 16 at Wed Apr  9 03:04:41 2025.
 Gaussian 16:  ES64L-G16RevC.01  3-Jul-2019

 ----------------------------------------------------------------------
 #t hf aug-cc-pvdz iop(5/13=1,5/36=2,99/5=2) pseudo=read geom=check gue
 ss=(read,tcheck) scf=(maxcycle=1)
 ----------------------------------------------------------------------
 -----
 title
 -----
 Structure from the checkpoint file:  "F-set_cf3co2h_cf3co2h_200_dimer_mol1.chk"
 Charge =  0 Multiplicity = 1

                         Standard orientation:
 ---------------------------------------------------------------------
 Center     Atomic      Atomic             Coordinates (Angstroms)
 Number     Number       Type             X           Y           Z
 ---------------------------------------------------------------------
      1          6           0       -0.122034    4.386789   -0.000009
      2          8           0        1.112616    3.990373    0.000121
      3          8           0       -1.112616    3.696352    0.000041
      4          6           0       -0.224310    5.934814   -0.000049
      5          1           0        1.159127    2.998762    0.000091
      6          9           0        0.372966    6.429558    1.081531
      7          9           0        0.374970    6.429723   -1.080449
      8          9           0       -1.488080    6.317551   -0.001199
      9          6           0        0.122034   -4.386789   -0.000009
     10          8           0       -1.112616   -3.990373    0.000121
     11          8           0        1.112616   -3.696352    0.000041
     12          6           0        0.224310   -5.934814   -0.000049
     13          1           0       -1.159127   -2.998762    0.000091
     14          9           0        1.488080   -6.317551   -0.001199
     15          9           0       -0.372966   -6.429558    1.081531
     16          9           0       -0.374970   -6.429723   -1.080449
 ---------------------------------------------------------------------

 SCF Done:  E(RHF) =  -1049.86430677     A.U. after    2 cycles

 The electronic state is 1-A.
 Alpha  occ. eigenvalues --  -26.53101 -26.53101 -26.53098 -26.53098 -26.52730
 Alpha  occ. eigenvalues --  -26.52730 -20.65532 -20.65532 -20.58417 -20.58417
 Alpha  occ. eigenvalues --  -11.54982 -11.54982 -11.44659 -11.44659  -1.74889
 Alpha  occ. eigenvalues --   -1.74889  -1.64381  -1.64381  -1.64334  -1.64334
 Alpha  occ. eigenvalues --   -1.60873  -1.60873  -1.50184  -1.50184  -1.04515
 Alpha  occ. eigenvalues --   -1.04515  -0.92124  -0.92124  -0.84834  -0.84834
 Alpha  occ. eigenvalues --   -0.84161  -0.84161  -0.82642  -0.82642  -0.74975
 Alpha  occ. eigenvalues --   -0.74975  -0.71877  -0.71877  -0.71160  -0.71160
 Alpha  occ. eigenvalues --   -0.68531  -0.68531  -0.67789  -0.67788  -0.66070
 Alpha  occ. eigenvalues --   -0.66070  -0.65473  -0.65473  -0.64163  -0.64163
 Alpha  occ. eigenvalues --   -0.60076  -0.60076  -0.51632  -0.51632  -0.49209
 Alpha  occ. eigenvalues --   -0.49209
 Alpha virt. eigenvalues --    0.01906   0.03701   0.07287   0.07961   0.08657
 Alpha virt. eigenvalues --    0.08890   0.09006   0.09028   0.10278   0.10642
 Alpha virt. eigenvalues --    0.10923   0.10963   0.11980   0.12783   0.13030

 Mulliken charges:
               1
     1  C    1.313757
     2  O   -1.101338
     3  O   -1.040567
     4  C    2.510209
     5  H    0.389076
     6  F   -0.676320
     7  F   -0.676333
     8  F   -0.718484
     9  C    1.313757
    10  O   -1.101338
    11  O   -1.040567
    12  C    2.510209
    13  H    0.389076
    14  F   -0.718484
    15  F   -0.676320
    16  F   -0.676333
 Sum of Mulliken charges =  -0.00000

 Dipole moment (field-independent basis, Debye):
    X=              0.0000    Y=              0.0000    Z=             -0.0004  Tot=              0.0004

 Test job not archived.
 1\1\GINC-SE112\SP\RHF\Aug-CC-pVDZ\C4H2F6O4\OHZDE\09-Apr-2025\0\\#t hf
 aug-cc-pvdz iop(5/13=1,5/36=2,99/5=2) pseudo=read geom=check guess=(re
 ad,tcheck) scf=(maxcycle=1)\\title\\0,1\C,0,-0.00078,1.87956,-0.00001\
 O,0,1.20457,1.4014,0.00012\O,0,-1.03535,1.25697,0.00004\C,0,0.00078,3.
 43096,-0.00005\H,0,1.18461,0.4089,0.00009\F,0,0.62983,3.88462,1.08153\
 F,0,0.63184,3.88465,-1.08045\F,0,-1.23454,3.89742,-0.0012\C,0,-0.34446
 ,-6.89068,-0.00001\O,0,-1.54981,-6.41252,0.00012\O,0,0.69011,-6.26809,
 0.00004\C,0,-0.34602,-8.44208,-0.00005\H,0,-1.52985,-5.42002,0.00009\F

 Normal termination of Gaussian 16 at Wed Apr  9 03:05:09 2025.
