 Gaussian 16, Revision C.01,

 ----------------------------------------------------------------------
 #t hf aug-cc-pvdz symm=none int=(grid=ultrafine) guess=(read,tcheck) s
 table=(opt,rrhf)
 ----------------------------------------------------------------------
 -----
 title
 -----
 Symbolic Z-matrix:
 Charge =  0 Multiplicity = 1

 SCF Done:  E(RHF) =  -666.423202914     A.U. after   14 cycles
 Normal termination of Gaussian 16 at Wed Apr  9 03:04:15 2025.
 Gaussian 16:  ES64L-G16RevC.01  3-Jul-2019

 ----------------------------------------------------------------------
 #t hf aug-cc-pvdz iop(5/13=1,5/36=2,99/5=2) pseudo=read geom=check gue
 ss=(read,tcheck) scf=(maxcycle=1)
 ----------------------------------------------------------------------
 -----
 title
 -----
 Structure from the checkpoint file:  "F-set_c6h6_cf4_105_dimer_mol1.chk"
 Charge =  0 Multiplicity = 1

                         Standard orientation:
 ---------------------------------------------------------------------
 Center     Atomic      Atomic             Coordinates (Angstroms)
 Number     Number       Type             X           Y           Z
 ---------------------------------------------------------------------
      1          6           0       -2.332863   -1.167216   -0.608802
      2          6           0       -1.866495   -1.231977    0.695412
      3          6           0       -2.547285    0.064800   -1.207958
      4          1           0       -2.528137   -2.077570   -1.159011
      5          6           0       -1.614679   -0.064703    1.400448
      6          1           0       -1.696187   -2.192554    1.162056
      7          6           0       -2.294847    1.231995   -0.503229
      8          1           0       -2.909723    0.115304   -2.225635
      9          6           0       -1.828600    1.167293    0.801054
     10          1           0       -1.248013   -0.115256    2.416628
     11          1           0       -2.460258    2.192812   -0.971187
     12          1           0       -1.628448    2.077357    1.349850
     13          6           0        2.076282   -0.000030   -0.096758
     14          9           0        3.314755   -0.002461   -0.557631
     15          9           0        1.234468   -0.000497   -1.107039
     16          9           0        1.889177    1.078285    0.638734
     17          9           0        1.886232   -1.075445    0.642191
 ---------------------------------------------------------------------

 SCF Done:  E(RHF) =  -667.059764376     A.U. after    2 cycles

 The electronic state is 1-A.
 Alpha  occ. eigenvalues --  -26.53418 -26.53415 -26.53399 -26.53263 -11.61516
 Alpha  occ. eigenvalues --  -11.24141 -11.24115 -11.24113 -11.24020 -11.24006
 Alpha  occ. eigenvalues --  -11.24003  -1.78730  -1.65459  -1.65455  -1.65373
 Alpha  occ. eigenvalues --   -1.15717  -1.01927  -1.01926  -0.98579  -0.87206
 Alpha  occ. eigenvalues --   -0.87174  -0.87134  -0.83400  -0.83396  -0.73508
 Alpha  occ. eigenvalues --   -0.73484  -0.72543  -0.67895  -0.67826  -0.67741
 Alpha  occ. eigenvalues --   -0.64922  -0.64714  -0.64654  -0.64629  -0.64027
 Alpha  occ. eigenvalues --   -0.60151  -0.60148  -0.51403  -0.50620  -0.50615
 Alpha  occ. eigenvalues --   -0.34791  -0.34775
 Alpha virt. eigenvalues --    0.03681   0.03886   0.03950   0.05364   0.05386
 Alpha virt. eigenvalues --    0.07825   0.08570   0.10081   0.10197   0.10557
 Alpha virt. eigenvalues --    0.10571   0.11997   0.13812   0.14336   0.14375

 Mulliken charges:
               1
     1  C    0.140926
     2  C    0.296695
     3  C    0.329926
     4  H   -0.230732
     5  C    0.272024
     6  H   -0.262258
     7  C    0.127614
     8  H   -0.236879
     9  C    0.325477
    10  H   -0.285494
    11  H   -0.230881
    12  H   -0.268145
    13  C    2.597286
    14  F   -0.647871
    15  F   -0.649761
    16  F   -0.638898
    17  F   -0.639028
 Sum of Mulliken charges =  -0.00000

 Dipole moment (field-independent basis, Debye):
    X=             -0.1281    Y=             -0.0000    Z=             -0.0495  Tot=              0.1374

 Test job not archived.
 1\1\GINC-SE054\SP\RHF\Aug-CC-pVDZ\C7H6F4\OHZDE\09-Apr-2025\0\\#t hf au
 g-cc-pvdz iop(5/13=1,5/36=2,99/5=2) pseudo=read geom=check guess=(read
 ,tcheck) scf=(maxcycle=1)\\title\\0,1\C,0,2.23711,-1.16721,0.60128\C,0
 ,1.76369,-1.23198,-0.70039\C,0,2.45477,0.06481,1.19926\H,0,2.43536,-2.
 07756,1.15043\C,0,1.50806,-0.06471,-1.40406\H,0,1.59086,-2.19256,-1.16
 61\C,0,2.19852,1.232,0.4959\H,0,2.82271,0.11532,2.21496\C,0,1.72522,1.
 16729,-0.80584\H,0,1.1359,-0.11527,-2.41824\H,0,2.36646,2.19282,0.9629
 5\H,0,1.5221,2.07735,-1.35355\C,0,-2.17474387,-0.00003275,0.1131002\F,

 Normal termination of Gaussian 16 at Wed Apr  9 03:04:24 2025.
