 Gaussian 16, Revision C.01,

 ----------------------------------------------------------------------
 #t hf aug-cc-pvdz symm=none int=(grid=ultrafine) guess=(read,tcheck) s
 table=(opt,rrhf)
 ----------------------------------------------------------------------
 -----
 title
 -----
 Symbolic Z-matrix:
 Charge =  0 Multiplicity = 1

 SCF Done:  E(RHF) =  -666.423506340     A.U. after   12 cycles
 Normal termination of Gaussian 16 at Wed Apr  9 03:04:05 2025.
 Gaussian 16:  ES64L-G16RevC.01  3-Jul-2019

 ----------------------------------------------------------------------
 #t hf aug-cc-pvdz iop(5/13=1,5/36=2,99/5=2) pseudo=read geom=check gue
 ss=(read,tcheck) scf=(maxcycle=1)
 ----------------------------------------------------------------------
 -----
 title
 -----
 Structure from the checkpoint file:  "F-set_c6h6_cf4_125_dimer_mol1.chk"
 Charge =  0 Multiplicity = 1

                         Standard orientation:
 ---------------------------------------------------------------------
 Center     Atomic      Atomic             Coordinates (Angstroms)
 Number     Number       Type             X           Y           Z
 ---------------------------------------------------------------------
      1          6           0       -2.720001   -1.167231   -0.630796
      2          6           0       -2.272967   -1.231974    0.680171
      3          6           0       -2.925546    0.064777   -1.233073
      4          1           0       -2.907114   -2.077592   -1.183821
      5          6           0       -2.031608   -0.064689    1.388839
      6          1           0       -2.109573   -2.192544    1.149295
      7          6           0       -2.683561    1.231981   -0.524703
      8          1           0       -3.272897    0.115266   -2.255998
      9          6           0       -2.236648    1.167299    0.786332
     10          1           0       -1.680007   -0.115228    2.410329
     11          1           0       -2.842039    2.192792   -0.995068
     12          1           0       -2.044637    2.077370    1.338015
     13          6           0        2.473885   -0.000025   -0.078465
     14          9           0        3.719037   -0.002456   -0.520977
     15          9           0        1.647101   -0.000509   -1.101082
     16          9           0        2.275921    1.078298    0.654166
     17          9           0        2.272934   -1.075432    0.657607
 ---------------------------------------------------------------------

 SCF Done:  E(RHF) =  -667.060371823     A.U. after    2 cycles

 The electronic state is 1-A.
 Alpha  occ. eigenvalues --  -26.53682 -26.53678 -26.53635 -26.53599 -11.61785
 Alpha  occ. eigenvalues --  -11.24146 -11.24117 -11.24117 -11.24025 -11.24009
 Alpha  occ. eigenvalues --  -11.24009  -1.78986  -1.65791  -1.65724  -1.65592
 Alpha  occ. eigenvalues --   -1.15723  -1.01916  -1.01912  -0.98846  -0.87462
 Alpha  occ. eigenvalues --   -0.87446  -0.87404  -0.83387  -0.83386  -0.73767
 Alpha  occ. eigenvalues --   -0.73750  -0.72539  -0.68164  -0.68088  -0.67990
 Alpha  occ. eigenvalues --   -0.64964  -0.64928  -0.64915  -0.64903  -0.64033
 Alpha  occ. eigenvalues --   -0.60161  -0.60157  -0.51410  -0.50620  -0.50618
 Alpha  occ. eigenvalues --   -0.34751  -0.34748
 Alpha virt. eigenvalues --    0.03683   0.03877   0.03924   0.05324   0.05335
 Alpha virt. eigenvalues --    0.07847   0.08675   0.09813   0.09872   0.10529
 Alpha virt. eigenvalues --    0.10565   0.11635   0.13709   0.14482   0.14501

 Mulliken charges:
               1
     1  C    0.238691
     2  C    0.226030
     3  C    0.217537
     4  H   -0.229523
     5  C    0.297743
     6  H   -0.242611
     7  C    0.237451
     8  H   -0.228980
     9  C    0.231809
    10  H   -0.262036
    11  H   -0.229887
    12  H   -0.247483
    13  C    2.533678
    14  F   -0.641721
    15  F   -0.642169
    16  F   -0.629394
    17  F   -0.629134
 Sum of Mulliken charges =  -0.00000

 Dipole moment (field-independent basis, Debye):
    X=             -0.1111    Y=             -0.0000    Z=             -0.0407  Tot=              0.1184

 Test job not archived.
 1\1\GINC-SE120\SP\RHF\Aug-CC-pVDZ\C7H6F4\OHZDE\09-Apr-2025\0\\#t hf au
 g-cc-pvdz iop(5/13=1,5/36=2,99/5=2) pseudo=read geom=check guess=(read
 ,tcheck) scf=(maxcycle=1)\\title\\0,1\C,0,2.23711,-1.16721,0.60128\C,0
 ,1.76369,-1.23198,-0.70039\C,0,2.45477,0.06481,1.19926\H,0,2.43536,-2.
 07756,1.15043\C,0,1.50806,-0.06471,-1.40406\H,0,1.59086,-2.19256,-1.16
 61\C,0,2.19852,1.232,0.4959\H,0,2.82271,0.11532,2.21496\C,0,1.72522,1.
 16729,-0.80584\H,0,1.1359,-0.11527,-2.41824\H,0,2.36646,2.19282,0.9629
 5\H,0,1.5221,2.07735,-1.35355\C,0,-2.96687933,-0.00004375,0.153941\F,0

 Normal termination of Gaussian 16 at Wed Apr  9 03:04:13 2025.
