 Gaussian 16, Revision C.01,

 ----------------------------------------------------------------------
 #t hf aug-cc-pvdz symm=none int=(grid=ultrafine) guess=(read,tcheck) s
 table=(opt,rrhf)
 ----------------------------------------------------------------------
 -----
 title
 -----
 Symbolic Z-matrix:
 Charge =  0 Multiplicity = 1

 SCF Done:  E(RHF) =  -823.417213751     A.U. after   11 cycles
 Normal termination of Gaussian 16 at Wed Apr  9 03:03:52 2025.
 Gaussian 16:  ES64L-G16RevC.01  3-Jul-2019

 ----------------------------------------------------------------------
 #t hf aug-cc-pvdz iop(5/13=1,5/36=2,99/5=2) pseudo=read geom=check gue
 ss=(read,tcheck) scf=(maxcycle=1)
 ----------------------------------------------------------------------
 -----
 title
 -----
 Structure from the checkpoint file:  "F-set_cf3oh_cf3oh_100_dimer_mol1.chk"
 Charge =  0 Multiplicity = 1

                         Standard orientation:
 ---------------------------------------------------------------------
 Center     Atomic      Atomic             Coordinates (Angstroms)
 Number     Number       Type             X           Y           Z
 ---------------------------------------------------------------------
      1          6           0        2.138961    0.037501    0.004211
      2          8           0        1.559720    1.189171   -0.331979
      3          9           0        1.891621   -0.939319   -0.898629
      4          9           0        3.445461    0.208581    0.076311
      5          9           0        1.707491   -0.435589    1.183331
      6          1           0        0.611440    1.039780   -0.446139
      7          8           0       -1.026549    0.039430   -0.791779
      8          6           0       -2.125279    0.009420   -0.000579
      9          1           0       -0.847829   -0.833870   -1.150899
     10          9           0       -2.007939   -0.890730    0.974931
     11          9           0       -3.221289   -0.295901   -0.694009
     12          9           0       -2.272130    1.206710    0.531991
 ---------------------------------------------------------------------

 SCF Done:  E(RHF) =  -824.178276670     A.U. after    2 cycles

 The electronic state is 1-A.
 Alpha  occ. eigenvalues --  -26.54116 -26.53730 -26.53686 -26.51746 -26.51664
 Alpha  occ. eigenvalues --  -26.51312 -20.65434 -20.61355 -11.60182 -11.57535
 Alpha  occ. eigenvalues --   -1.77311  -1.74583  -1.65915  -1.65156  -1.63388
 Alpha  occ. eigenvalues --   -1.62470  -1.57149  -1.53977  -0.99297  -0.96475
 Alpha  occ. eigenvalues --   -0.89065  -0.86720  -0.86247  -0.85610  -0.83772
 Alpha  occ. eigenvalues --   -0.82983  -0.74524  -0.72676  -0.71669  -0.70417
 Alpha  occ. eigenvalues --   -0.69913  -0.68153  -0.67067  -0.66878  -0.65176
 Alpha  occ. eigenvalues --   -0.64709  -0.64611  -0.63632  -0.63013  -0.60679
 Alpha  occ. eigenvalues --   -0.58610  -0.55152
 Alpha virt. eigenvalues --    0.03469   0.06010   0.08189   0.08473   0.10102
 Alpha virt. eigenvalues --    0.10538   0.10685   0.12068   0.14660   0.16081
 Alpha virt. eigenvalues --    0.18230   0.18559   0.20870   0.21218   0.23658

 Mulliken charges:
               1
     1  C    2.858229
     2  O   -1.206474
     3  F   -0.712285
     4  F   -0.686244
     5  F   -0.682511
     6  H    0.474710
     7  O   -1.314794
     8  C    2.892672
     9  H    0.371744
    10  F   -0.658910
    11  F   -0.680594
    12  F   -0.655543
 Sum of Mulliken charges =  -0.00000

 Dipole moment (field-independent basis, Debye):
    X=             -1.6837    Y=             -1.0864    Z=             -1.2364  Tot=              2.3545

 Test job not archived.
 1\1\GINC-SE332\SP\RHF\Aug-CC-pVDZ\C2H2F6O2\OHZDE\09-Apr-2025\0\\#t hf
 aug-cc-pvdz iop(5/13=1,5/36=2,99/5=2) pseudo=read geom=check guess=(re
 ad,tcheck) scf=(maxcycle=1)\\title\\0,1\C,0,2.13896,0.0375,0.00421\O,0
 ,1.55972,1.18917,-0.33198\F,0,1.89162,-0.93932,-0.89863\F,0,3.44546,0.
 20858,0.07631\F,0,1.70749,-0.43559,1.18333\H,0,0.61144,1.03978,-0.4461
 4\O,0,-1.02655,0.03943,-0.79178\C,0,-2.12528,0.00942,-0.00058\H,0,-0.8
 4783,-0.83387,-1.1509\F,0,-2.00794,-0.89073,0.97493\F,0,-3.22129,-0.29
 59,-0.69401\F,0,-2.27213,1.20671,0.53199\\Version=ES64L-G16RevC.01\Sta

 Normal termination of Gaussian 16 at Wed Apr  9 03:03:57 2025.
