 Gaussian 16, Revision C.01,

 ----------------------------------------------------------------------
 #t hf aug-cc-pvdz symm=none int=(grid=ultrafine) guess=(read,tcheck) s
 table=(opt,rrhf)
 ----------------------------------------------------------------------
 -----
 title
 -----
 Symbolic Z-matrix:
 Charge =  0 Multiplicity = 1

 SCF Done:  E(RHF) =  -1054.58947039     A.U. after   14 cycles

 1\1\GINC-SE069\Stability\RHF\Aug-CC-pVDZ\C12H6F6\OHZDE\09-Apr-2025\0\\
 #t hf aug-cc-pvdz symm=none int=(grid=ultrafine) guess=(read,tcheck) s
 table=(opt,rrhf)\\title\\0,1\C,0,-1.05492,1.38134,-0.46157\C,0,-0.2198
 5,0.74322,-1.36181\C,0,-1.8503,0.63831,0.39257\F,0,-1.07636,2.70339,-0
 .40254\C,0,-0.17808,-0.63935,-1.40641\F,0,0.545,1.45496,-2.17284\C,0,-
 1.80849,-0.74408,0.34809\F,0,-2.63364,1.24984,1.26796\C,0,-0.97186,-1.
 38232,-0.55041\F,0,0.62544,-1.25007,-2.26137\F,0,-2.5528,-1.4566,1.180
 18\F,0,-0.91673,-2.70456,-0.57861\C,0,1.30779,-0.57489,2.00283\H,0,0.6

 Normal termination of Gaussian 16 at Wed Apr  9 03:10:43 2025.
 Gaussian 16:  ES64L-G16RevC.01  3-Jul-2019

 ----------------------------------------------------------------------
 #t hf aug-cc-pvdz iop(5/13=1,5/36=2,99/5=2) pseudo=read geom=check gue
 ss=(read,tcheck) scf=(maxcycle=1)
 ----------------------------------------------------------------------
 -----
 title
 -----
 Structure from the checkpoint file:  "F-set_c6h6_c6f6_100_dimer_mol1.chk"
 Charge =  0 Multiplicity = 1

                         Standard orientation:
 ---------------------------------------------------------------------
 Center     Atomic      Atomic             Coordinates (Angstroms)
 Number     Number       Type             X           Y           Z
 ---------------------------------------------------------------------
      1          6           0       -1.054921   -1.381339    0.461569
      2          6           0       -0.219850   -0.743219    1.361809
      3          6           0       -1.850300   -0.638308   -0.392571
      4          9           0       -1.076362   -2.703389    0.402539
      5          6           0       -0.178079    0.639351    1.406409
      6          9           0        0.544999   -1.454960    2.172839
      7          6           0       -1.808489    0.744082   -0.348091
      8          9           0       -2.633641   -1.249838   -1.267961
      9          6           0       -0.971859    1.382321    0.550409
     10          9           0        0.625441    1.250070    2.261369
     11          9           0       -2.552799    1.456602   -1.180181
     12          9           0       -0.916728    2.704561    0.578609
     13          6           0        1.307791    0.574889   -2.002831
     14          1           0        0.644571    1.024600   -2.729621
     15          6           0        2.073071    1.379819   -1.171021
     16          6           0        1.392500   -0.805311   -1.902821
     17          1           0        2.004982    2.456819   -1.248121
     18          6           0        2.921761    0.803528   -0.238161
     19          6           0        2.241929   -1.381721   -0.969951
     20          1           0        0.795319   -1.432680   -2.550611
     21          1           0        3.514081    1.430168    0.414119
     22          6           0        3.005660   -0.577572   -0.137341
     23          1           0        2.304369   -2.458141   -0.888781
     24          1           0        3.663180   -1.027302    0.593579
 ---------------------------------------------------------------------

 SCF Done:  E(RHF) =  -1055.58854022     A.U. after    2 cycles

 The electronic state is 1-A.
 Alpha  occ. eigenvalues --  -26.52191 -26.52183 -26.52162 -26.52154 -26.52031
 Alpha  occ. eigenvalues --  -26.52020 -11.38367 -11.38352 -11.38351 -11.38250
 Alpha  occ. eigenvalues --  -11.38243 -11.38238 -11.25067 -11.24999 -11.24941
 Alpha  occ. eigenvalues --  -11.24917 -11.24845 -11.24810  -1.67531  -1.66551
 Alpha  occ. eigenvalues --   -1.66516  -1.64942  -1.64918  -1.64084  -1.22255
 Alpha  occ. eigenvalues --   -1.16704  -1.07814  -1.07804  -1.02800  -1.02773
 Alpha  occ. eigenvalues --   -0.93413  -0.93406  -0.86070  -0.84242  -0.84235
 Alpha  occ. eigenvalues --   -0.82482  -0.80919  -0.76348  -0.76236  -0.76220
 Alpha  occ. eigenvalues --   -0.75751  -0.75743  -0.73401  -0.72952  -0.72915
 Alpha  occ. eigenvalues --   -0.69929  -0.69908  -0.69100  -0.67716  -0.67696
 Alpha  occ. eigenvalues --   -0.66406  -0.65738  -0.64878  -0.62049  -0.62018
 Alpha  occ. eigenvalues --   -0.60999  -0.60967  -0.58797  -0.54264  -0.51597
 Alpha  occ. eigenvalues --   -0.51434  -0.51421  -0.38910  -0.38509  -0.35538
 Alpha  occ. eigenvalues --   -0.35209
 Alpha virt. eigenvalues --    0.03610   0.03850   0.03878   0.05343   0.05351
 Alpha virt. eigenvalues --    0.05908   0.07766   0.07920   0.08027   0.09148
 Alpha virt. eigenvalues --    0.09264   0.09929   0.09963   0.10700   0.11260

 Mulliken charges:
               1
     1  C    0.939167
     2  C    1.060562
     3  C    0.956829
     4  F   -1.023913
     5  C    1.139681
     6  F   -1.040665
     7  C    1.051648
     8  F   -1.004745
     9  C    0.976819
    10  F   -1.039633
    11  F   -1.008339
    12  F   -1.025540
    13  C    0.512814
    14  H   -0.344987
    15  C    0.277790
    16  C    0.447654
    17  H   -0.311920
    18  C    0.256597
    19  C    0.170510
    20  H   -0.354361
    21  H   -0.294748
    22  C    0.246281
    23  H   -0.303936
    24  H   -0.283563
 Sum of Mulliken charges =  -0.00000

 Dipole moment (field-independent basis, Debye):
    X=              0.5468    Y=              0.0004    Z=             -0.0447  Tot=              0.5486

 Test job not archived.
 1\1\GINC-SE069\SP\RHF\Aug-CC-pVDZ\C12H6F6\OHZDE\09-Apr-2025\0\\#t hf a
 ug-cc-pvdz iop(5/13=1,5/36=2,99/5=2) pseudo=read geom=check guess=(rea
 d,tcheck) scf=(maxcycle=1)\\title\\0,1\C,0,-1.05492,1.38134,-0.46157\C
 ,0,-0.21985,0.74322,-1.36181\C,0,-1.8503,0.63831,0.39257\F,0,-1.07636,
 2.70339,-0.40254\C,0,-0.17808,-0.63935,-1.40641\F,0,0.545,1.45496,-2.1
 7284\C,0,-1.80849,-0.74408,0.34809\F,0,-2.63364,1.24984,1.26796\C,0,-0
 .97186,-1.38232,-0.55041\F,0,0.62544,-1.25007,-2.26137\F,0,-2.5528,-1.
 4566,1.18018\F,0,-0.91673,-2.70456,-0.57861\C,0,1.30779,-0.57489,2.002

 Normal termination of Gaussian 16 at Wed Apr  9 03:11:15 2025.
