 Gaussian 16, Revision C.01,

 ----------------------------------------------------------------------
 #t hf aug-cc-pvdz symm=none int=(grid=ultrafine) guess=(read,tcheck) s
 table=(opt,rrhf)
 ----------------------------------------------------------------------
 -----
 title
 -----
 Symbolic Z-matrix:
 Charge =  0 Multiplicity = 1

 SCF Done:  E(RHF) =  -278.117265301     A.U. after   10 cycles
 Normal termination of Gaussian 16 at Wed Apr  9 03:03:33 2025.
 Gaussian 16:  ES64L-G16RevC.01  3-Jul-2019

 ----------------------------------------------------------------------
 #t hf aug-cc-pvdz iop(5/13=1,5/36=2,99/5=2) pseudo=read geom=check gue
 ss=(read,tcheck) scf=(maxcycle=1)
 ----------------------------------------------------------------------
 -----
 title
 -----
 Structure from the checkpoint file:  "F-set_ch3f_ch3f_100_dimer_mol1.chk"
 Charge =  0 Multiplicity = 1

                         Standard orientation:
 ---------------------------------------------------------------------
 Center     Atomic      Atomic             Coordinates (Angstroms)
 Number     Number       Type             X           Y           Z
 ---------------------------------------------------------------------
      1          6           0       -1.667286    1.011264    0.000000
      2          1           0       -0.636246    1.361492    0.000000
      3          1           0       -2.182806    1.361493    0.892907
      4          1           0       -2.182806    1.361493   -0.892907
      5          9           0       -1.667286   -0.371736    0.000000
      6          6           0        1.667286   -1.011264    0.000000
      7          1           0        0.636246   -1.361492    0.000000
      8          9           0        1.667286    0.371736    0.000000
      9          1           0        2.182806   -1.361493   -0.892907
     10          1           0        2.182806   -1.361493    0.892907
 ---------------------------------------------------------------------

 SCF Done:  E(RHF) =  -278.391851924     A.U. after    2 cycles

 The electronic state is 1-AG.
 Alpha  occ. eigenvalues --  -26.44370 -26.44370 -11.31127 -11.31126  -1.56715
 Alpha  occ. eigenvalues --   -1.56531  -0.94774  -0.94395  -0.69452  -0.68339
 Alpha  occ. eigenvalues --   -0.68155  -0.67191  -0.66432  -0.65815  -0.52922
 Alpha  occ. eigenvalues --   -0.52059  -0.51969  -0.50854
 Alpha virt. eigenvalues --    0.03949   0.04194   0.05036   0.06523   0.06594
 Alpha virt. eigenvalues --    0.07981   0.10583   0.13598   0.14380   0.14604
 Alpha virt. eigenvalues --    0.15683   0.17025   0.18555   0.19152   0.25817

 Mulliken charges:
               1
     1  C    0.413203
     2  H    0.070552
     3  H    0.094643
     4  H    0.094643
     5  F   -0.673040
     6  C    0.413203
     7  H    0.070552
     8  F   -0.673040
     9  H    0.094643
    10  H    0.094643
 Sum of Mulliken charges =   0.00000

 Dipole moment (field-independent basis, Debye):
    X=              0.0000    Y=              0.0000    Z=             -0.0000  Tot=              0.0000

 Test job not archived.
 1\1\GINC-SE071\SP\RHF\Aug-CC-pVDZ\C2H6F2\OHZDE\09-Apr-2025\0\\#t hf au
 g-cc-pvdz iop(5/13=1,5/36=2,99/5=2) pseudo=read geom=check guess=(read
 ,tcheck) scf=(maxcycle=1)\\title\\0,1\C,0,-1.667286,1.011264,0.\H,0,-0
 .636246,1.361492,0.\H,0,-2.182806,1.361493,0.892907\H,0,-2.182806,1.36
 1493,-0.892907\F,0,-1.667286,-0.371736,0.\C,0,1.667286,-1.011264,0.\H,
 0,0.636246,-1.361492,0.\F,0,1.667286,0.371736,0.\H,0,2.182806,-1.36149
 3,-0.892907\H,0,2.182806,-1.361493,0.892907\\Version=ES64L-G16RevC.01\
 State=1-AG\HF=-278.3918519\RMSD=4.862e-03\Dipole=0.,0.,0.\Quadrupole=-

 Normal termination of Gaussian 16 at Wed Apr  9 03:03:35 2025.
