 Gaussian 16, Revision C.01,

 ----------------------------------------------------------------------
 #t hf aug-cc-pvdz symm=none int=(grid=ultrafine) guess=(read,tcheck) s
 table=(opt,rrhf)
 ----------------------------------------------------------------------
 -----
 title
 -----
 Symbolic Z-matrix:
 Charge =  0 Multiplicity = 1

 SCF Done:  E(RHF) =  -1054.59150028     A.U. after   14 cycles

 1\1\GINC-SE435\Stability\RHF\Aug-CC-pVDZ\C12H6F6\OHZDE\09-Apr-2025\0\\
 #t hf aug-cc-pvdz symm=none int=(grid=ultrafine) guess=(read,tcheck) s
 table=(opt,rrhf)\\title\\0,1\C,0,-1.05492,1.38134,-0.46157\C,0,-0.2198
 5,0.74322,-1.36181\C,0,-1.8503,0.63831,0.39257\F,0,-1.07636,2.70339,-0
 .40254\C,0,-0.17808,-0.63935,-1.40641\F,0,0.545,1.45496,-2.17284\C,0,-
 1.80849,-0.74408,0.34809\F,0,-2.63364,1.24984,1.26796\C,0,-0.97186,-1.
 38232,-0.55041\F,0,0.62544,-1.25007,-2.26137\F,0,-2.5528,-1.4566,1.180
 18\F,0,-0.91673,-2.70456,-0.57861\C,0,1.46596417,-0.57481163,2.0813229

 Normal termination of Gaussian 16 at Wed Apr  9 03:10:34 2025.
 Gaussian 16:  ES64L-G16RevC.01  3-Jul-2019

 ----------------------------------------------------------------------
 #t hf aug-cc-pvdz iop(5/13=1,5/36=2,99/5=2) pseudo=read geom=check gue
 ss=(read,tcheck) scf=(maxcycle=1)
 ----------------------------------------------------------------------
 -----
 title
 -----
 Structure from the checkpoint file:  "F-set_c6h6_c6f6_105_dimer_mol1.chk"
 Charge =  0 Multiplicity = 1

                         Standard orientation:
 ---------------------------------------------------------------------
 Center     Atomic      Atomic             Coordinates (Angstroms)
 Number     Number       Type             X           Y           Z
 ---------------------------------------------------------------------
      1          6           0       -1.135355   -1.381371    0.411231
      2          6           0       -0.362811   -0.743071    1.365547
      3          6           0       -1.871527   -0.638512   -0.494578
      4          9           0       -1.152654   -2.703430    0.351044
      5          6           0       -0.324263    0.639508    1.412698
      6          9           0        0.345798   -1.454648    2.226286
      7          6           0       -1.832931    0.743886   -0.447544
      8          9           0       -2.594133   -1.250215   -1.420623
      9          6           0       -1.058714    1.382307    0.505141
     10          9           0        0.419852    1.250400    2.319717
     11          9           0       -2.519630    1.456243   -1.327913
     12          9           0       -1.005727    2.704555    0.536835
     13          6           0        1.550742    0.574754   -1.956499
     14          1           0        0.937888    1.024320   -2.726320
     15          6           0        2.258244    1.379850   -1.075173
     16          6           0        1.628657   -0.805427   -1.850857
     17          1           0        2.195398    2.456835   -1.156803
     18          6           0        3.042293    0.803745   -0.087254
     19          6           0        2.413444   -1.381652   -0.862879
     20          1           0        1.076476   -1.432926   -2.537290
     21          1           0        3.589323    1.430514    0.603331
     22          6           0        3.119345   -0.577336    0.019141
     23          1           0        2.470379   -2.458057   -0.777568
     24          1           0        3.726234   -1.026922    0.792699
 ---------------------------------------------------------------------

 SCF Done:  E(RHF) =  -1055.59078275     A.U. after    2 cycles

 The electronic state is 1-A.
 Alpha  occ. eigenvalues --  -26.52238 -26.52230 -26.52196 -26.52185 -26.52066
 Alpha  occ. eigenvalues --  -26.52057 -11.38463 -11.38442 -11.38440 -11.38344
 Alpha  occ. eigenvalues --  -11.38333 -11.38325 -11.25000 -11.24937 -11.24897
 Alpha  occ. eigenvalues --  -11.24865 -11.24801 -11.24772  -1.67574  -1.66588
 Alpha  occ. eigenvalues --   -1.66557  -1.64983  -1.64965  -1.64127  -1.22332
 Alpha  occ. eigenvalues --   -1.16625  -1.07889  -1.07878  -1.02719  -1.02693
 Alpha  occ. eigenvalues --   -0.93477  -0.93470  -0.86133  -0.84169  -0.84162
 Alpha  occ. eigenvalues --   -0.82532  -0.80961  -0.76384  -0.76286  -0.76274
 Alpha  occ. eigenvalues --   -0.75796  -0.75787  -0.73337  -0.72983  -0.72948
 Alpha  occ. eigenvalues --   -0.69957  -0.69943  -0.69126  -0.67754  -0.67739
 Alpha  occ. eigenvalues --   -0.66444  -0.65674  -0.64816  -0.62102  -0.62075
 Alpha  occ. eigenvalues --   -0.60936  -0.60906  -0.58854  -0.54017  -0.51826
 Alpha  occ. eigenvalues --   -0.51375  -0.51366  -0.38744  -0.38480  -0.35551
 Alpha  occ. eigenvalues --   -0.35338
 Alpha virt. eigenvalues --    0.03602   0.03842   0.03866   0.05338   0.05345
 Alpha virt. eigenvalues --    0.05893   0.07770   0.07945   0.08002   0.09236
 Alpha virt. eigenvalues --    0.09329   0.09863   0.09888   0.10873   0.11136

 Mulliken charges:
               1
     1  C    0.936594
     2  C    1.071960
     3  C    0.959676
     4  F   -1.017913
     5  C    1.135917
     6  F   -1.033314
     7  C    1.025196
     8  F   -0.998820
     9  C    0.961244
    10  F   -1.032614
    11  F   -1.000934
    12  F   -1.017493
    13  C    0.533712
    14  H   -0.341539
    15  C    0.252315
    16  C    0.453412
    17  H   -0.309835
    18  C    0.237732
    19  C    0.165577
    20  H   -0.348445
    21  H   -0.288698
    22  C    0.238401
    23  H   -0.301278
    24  H   -0.280851
 Sum of Mulliken charges =  -0.00000

 Dipole moment (field-independent basis, Debye):
    X=              0.5161    Y=              0.0000    Z=             -0.0064  Tot=              0.5161

 Test job not archived.
 1\1\GINC-SE435\SP\RHF\Aug-CC-pVDZ\C12H6F6\OHZDE\09-Apr-2025\0\\#t hf a
 ug-cc-pvdz iop(5/13=1,5/36=2,99/5=2) pseudo=read geom=check guess=(rea
 d,tcheck) scf=(maxcycle=1)\\title\\0,1\C,0,-1.05492,1.38134,-0.46157\C
 ,0,-0.21985,0.74322,-1.36181\C,0,-1.8503,0.63831,0.39257\F,0,-1.07636,
 2.70339,-0.40254\C,0,-0.17808,-0.63935,-1.40641\F,0,0.545,1.45496,-2.1
 7284\C,0,-1.80849,-0.74408,0.34809\F,0,-2.63364,1.24984,1.26796\C,0,-0
 .97186,-1.38232,-0.55041\F,0,0.62544,-1.25007,-2.26137\F,0,-2.5528,-1.
 4566,1.18018\F,0,-0.91673,-2.70456,-0.57861\C,0,1.46596417,-0.57481163

 Normal termination of Gaussian 16 at Wed Apr  9 03:11:03 2025.
