 Gaussian 16, Revision C.01,

 ----------------------------------------------------------------------
 #t hf aug-cc-pvdz symm=none int=(grid=ultrafine) guess=(read,tcheck) s
 table=(opt,rrhf)
 ----------------------------------------------------------------------
 -----
 title
 -----
 Symbolic Z-matrix:
 Charge =  0 Multiplicity = 1

 SCF Done:  E(RHF) =  -254.951944740     A.U. after   12 cycles
 Normal termination of Gaussian 16 at Wed Apr  9 03:02:36 2025.
 Gaussian 16:  ES64L-G16RevC.01  3-Jul-2019

 ----------------------------------------------------------------------
 #t hf aug-cc-pvdz iop(5/13=1,5/36=2,99/5=2) pseudo=read geom=check gue
 ss=(read,tcheck) scf=(maxcycle=1)
 ----------------------------------------------------------------------
 -----
 title
 -----
 Structure from the checkpoint file:  "F-set_c2h4_c2h3f_100_dimer_mol1.chk"
 Charge =  0 Multiplicity = 1

                         Standard orientation:
 ---------------------------------------------------------------------
 Center     Atomic      Atomic             Coordinates (Angstroms)
 Number     Number       Type             X           Y           Z
 ---------------------------------------------------------------------
      1          6           0       -0.689962   -2.091148    0.660810
      2          6           0       -0.689962   -2.091148   -0.660810
      3          1           0       -0.043861   -1.429868    1.223580
      4          1           0       -1.330991   -2.752568    1.229250
      5          1           0       -0.043861   -1.429868   -1.223580
      6          1           0       -1.330991   -2.752568   -1.229250
      7          6           0       -0.689962    1.702932    0.000000
      8          6           0        0.620919    1.793912    0.000000
      9          1           0       -1.192202    0.746232    0.000000
     10          1           0       -1.276711    2.608202    0.000000
     11          1           0        1.193809    2.711182    0.000000
     12          9           0        1.413179    0.712442    0.000000
 ---------------------------------------------------------------------

 SCF Done:  E(RHF) =  -255.212035608     A.U. after    2 cycles

 The electronic state is 1-A'.
 Alpha  occ. eigenvalues --  -26.47629 -11.33525 -11.24224 -11.23585 -11.23439
 Alpha  occ. eigenvalues --   -1.60892  -1.05346  -1.03681  -0.83256  -0.79131
 Alpha  occ. eigenvalues --   -0.73405  -0.68299  -0.67058  -0.64986  -0.59913
 Alpha  occ. eigenvalues --   -0.58571  -0.55723  -0.50840  -0.39065  -0.38417
 Alpha virt. eigenvalues --    0.03675   0.04044   0.04822   0.05023   0.06543
 Alpha virt. eigenvalues --    0.07371   0.07875   0.09558   0.11690   0.11856
 Alpha virt. eigenvalues --    0.13463   0.14069   0.14840   0.15684   0.15753

 Mulliken charges:
               1
     1  C    0.108693
     2  C    0.108693
     3  H   -0.055396
     4  H   -0.064678
     5  H   -0.055396
     6  H   -0.064678
     7  C   -0.068659
     8  C    0.938913
     9  H   -0.029997
    10  H   -0.068283
    11  H    0.000752
    12  F   -0.749964
 Sum of Mulliken charges =  -0.00000

 Dipole moment (field-independent basis, Debye):
    X=             -0.7551    Y=              1.1655    Z=              0.0000  Tot=              1.3887

 Test job not archived.
 1\1\GINC-SE344\SP\RHF\Aug-CC-pVDZ\C4H7F1\OHZDE\09-Apr-2025\0\\#t hf au
 g-cc-pvdz iop(5/13=1,5/36=2,99/5=2) pseudo=read geom=check guess=(read
 ,tcheck) scf=(maxcycle=1)\\title\\0,1\C,0,-0.68996,-2.09115,0.66081\C,
 0,-0.68996,-2.09115,-0.66081\H,0,-0.04386,-1.42987,1.22358\H,0,-1.3309
 9,-2.75257,1.22925\H,0,-0.04386,-1.42987,-1.22358\H,0,-1.33099,-2.7525
 7,-1.22925\C,0,-0.68996,1.70293,0.\C,0,0.62092,1.79391,0.\H,0,-1.1922,
 0.74623,0.\H,0,-1.27671,2.6082,0.\H,0,1.19381,2.71118,0.\F,0,1.41318,0
 .71244,0.\\Version=ES64L-G16RevC.01\State=1-A'\HF=-255.2120356\RMSD=9.

 Normal termination of Gaussian 16 at Wed Apr  9 03:02:40 2025.
