 Gaussian 16, Revision C.01,

 ----------------------------------------------------------------------
 #t hf aug-cc-pvdz symm=none int=(grid=ultrafine) guess=(read,tcheck) s
 table=(opt,rrhf)
 ----------------------------------------------------------------------
 -----
 title
 -----
 Symbolic Z-matrix:
 Charge =  0 Multiplicity = 1

 SCF Done:  E(RHF) =  -1048.90354218     A.U. after   13 cycles
 Normal termination of Gaussian 16 at Wed Apr  9 03:05:23 2025.
 Gaussian 16:  ES64L-G16RevC.01  3-Jul-2019

 ----------------------------------------------------------------------
 #t hf aug-cc-pvdz iop(5/13=1,5/36=2,99/5=2) pseudo=read geom=check gue
 ss=(read,tcheck) scf=(maxcycle=1)
 ----------------------------------------------------------------------
 -----
 title
 -----
 Structure from the checkpoint file:  "F-set_cf3co2h_cf3co2h_095_dimer_mol1.chk"
 Charge =  0 Multiplicity = 1

                         Standard orientation:
 ---------------------------------------------------------------------
 Center     Atomic      Atomic             Coordinates (Angstroms)
 Number     Number       Type             X           Y           Z
 ---------------------------------------------------------------------
      1          6           0       -0.003426    1.754304   -0.000009
      2          8           0        1.200285    1.272035    0.000121
      3          8           0       -1.040114    1.135247    0.000041
      4          6           0        0.003426    3.305690   -0.000049
      5          1           0        1.176940    0.279609    0.000091
      6          9           0        0.634020    3.757201    1.081531
      7          9           0        0.636030    3.757224   -1.080449
      8          9           0       -1.230295    3.776361   -0.001199
      9          6           0        0.003426   -1.754304   -0.000009
     10          8           0       -1.200285   -1.272035    0.000121
     11          8           0        1.040114   -1.135247    0.000041
     12          6           0       -0.003426   -3.305690   -0.000049
     13          1           0       -1.176940   -0.279609    0.000091
     14          9           0        1.230295   -3.776361   -0.001199
     15          9           0       -0.634020   -3.757201    1.081531
     16          9           0       -0.636030   -3.757224   -1.080449
 ---------------------------------------------------------------------

 SCF Done:  E(RHF) =  -1049.87570791     A.U. after    2 cycles

 The electronic state is 1-A.
 Alpha  occ. eigenvalues --  -26.53727 -26.53727 -26.53724 -26.53723 -26.53564
 Alpha  occ. eigenvalues --  -26.53564 -20.62912 -20.62910 -20.60891 -20.60890
 Alpha  occ. eigenvalues --  -11.55811 -11.55810 -11.46871 -11.46867  -1.75619
 Alpha  occ. eigenvalues --   -1.75546  -1.65105  -1.65091  -1.64956  -1.64954
 Alpha  occ. eigenvalues --   -1.62790  -1.60100  -1.54407  -1.51381  -1.06930
 Alpha  occ. eigenvalues --   -1.04558  -0.93988  -0.91774  -0.87979  -0.85060
 Alpha  occ. eigenvalues --   -0.84821  -0.84794  -0.84116  -0.83281  -0.80577
 Alpha  occ. eigenvalues --   -0.73984  -0.73551  -0.72610  -0.72286  -0.71533
 Alpha  occ. eigenvalues --   -0.70848  -0.69014  -0.67962  -0.67800  -0.66791
 Alpha  occ. eigenvalues --   -0.66786  -0.66249  -0.65699  -0.64831  -0.64817
 Alpha  occ. eigenvalues --   -0.61331  -0.60385  -0.54542  -0.52472  -0.52148
 Alpha  occ. eigenvalues --   -0.50209
 Alpha virt. eigenvalues --    0.04276   0.05705   0.05973   0.07461   0.07548
 Alpha virt. eigenvalues --    0.08724   0.08874   0.09683   0.11329   0.11934
 Alpha virt. eigenvalues --    0.12013   0.12122   0.12543   0.16699   0.16959

 Mulliken charges:
               1
     1  C    1.120085
     2  O   -1.363868
     3  O   -1.385888
     4  C    2.929960
     5  H    0.927337
     6  F   -0.719192
     7  F   -0.719216
     8  F   -0.789218
     9  C    1.120085
    10  O   -1.363868
    11  O   -1.385888
    12  C    2.929960
    13  H    0.927337
    14  F   -0.789218
    15  F   -0.719192
    16  F   -0.719216
 Sum of Mulliken charges =  -0.00000

 Dipole moment (field-independent basis, Debye):
    X=             -0.0000    Y=             -0.0000    Z=             -0.0004  Tot=              0.0004

 Test job not archived.
 1\1\GINC-SE083\SP\RHF\Aug-CC-pVDZ\C4H2F6O4\OHZDE\09-Apr-2025\0\\#t hf
 aug-cc-pvdz iop(5/13=1,5/36=2,99/5=2) pseudo=read geom=check guess=(re
 ad,tcheck) scf=(maxcycle=1)\\title\\0,1\C,0,-0.00078,1.87956,-0.00001\
 O,0,1.20457,1.4014,0.00012\O,0,-1.03535,1.25697,0.00004\C,0,0.00078,3.
 43096,-0.00005\H,0,1.18461,0.4089,0.00009\F,0,0.62983,3.88462,1.08153\
 F,0,0.63184,3.88465,-1.08045\F,0,-1.23454,3.89742,-0.0012\C,0,0.018042
 ,-1.629004,-0.00001\O,0,-1.187308,-1.150844,0.00012\O,0,1.052612,-1.00
 6414,0.00004\C,0,0.016482,-3.180404,-0.00005\H,0,-1.167348,-0.158344,0

 Normal termination of Gaussian 16 at Wed Apr  9 03:05:33 2025.
