 Gaussian 16, Revision C.01,

 ----------------------------------------------------------------------
 #t hf aug-cc-pvdz symm=none int=(grid=ultrafine) guess=(read,tcheck) s
 table=(opt,rrhf)
 ----------------------------------------------------------------------
 -----
 title
 -----
 Symbolic Z-matrix:
 Charge =  0 Multiplicity = 1

 SCF Done:  E(RHF) =  -369.786918629     A.U. after   14 cycles
 Normal termination of Gaussian 16 at Wed Apr  9 03:03:45 2025.
 Gaussian 16:  ES64L-G16RevC.01  3-Jul-2019

 ----------------------------------------------------------------------
 #t hf aug-cc-pvdz iop(5/13=1,5/36=2,99/5=2) pseudo=read geom=check gue
 ss=(read,tcheck) scf=(maxcycle=1)
 ----------------------------------------------------------------------
 -----
 title
 -----
 Structure from the checkpoint file:  "F-set_c6h6_ch3f_105_dimer_mol1.chk"
 Charge =  0 Multiplicity = 1

                         Standard orientation:
 ---------------------------------------------------------------------
 Center     Atomic      Atomic             Coordinates (Angstroms)
 Number     Number       Type             X           Y           Z
 ---------------------------------------------------------------------
      1          6           0        1.334937   -0.671899   -1.201598
      2          6           0        1.170917    0.705211   -1.199558
      3          6           0        1.413877   -1.362508   -0.001318
      4          1           0        1.400607   -1.207314   -2.138758
      5          6           0        1.085817    1.391804    0.002652
      6          1           0        1.109818    1.243778   -2.135388
      7          6           0        1.328958   -0.676076    1.200952
      8          1           0        1.541075   -2.436328   -0.002858
      9          6           0        1.164958    0.701035    1.202872
     10          1           0        0.959678    2.465976    0.004212
     11          1           0        1.389957   -1.214712    2.136582
     12          1           0        1.099278    1.236399    2.140252
     13          6           0       -2.358609    0.262513    0.000766
     14          1           0       -2.286603    0.873440    0.899776
     15          1           0       -1.558168   -0.475612   -0.009564
     16          1           0       -2.290350    0.894410   -0.883924
     17          9           0       -3.578936   -0.386724   -0.004324
 ---------------------------------------------------------------------

 SCF Done:  E(RHF) =  -370.166051461     A.U. after    2 cycles

 The electronic state is 1-A.
 Alpha  occ. eigenvalues --  -26.43385 -11.30399 -11.24964 -11.24919 -11.24914
 Alpha  occ. eigenvalues --  -11.24842 -11.24805 -11.24800  -1.55617  -1.16584
 Alpha  occ. eigenvalues --   -1.02696  -1.02689  -0.93787  -0.84148  -0.84145
 Alpha  occ. eigenvalues --   -0.73328  -0.67312  -0.67281  -0.65667  -0.65376
 Alpha  occ. eigenvalues --   -0.64800  -0.60924  -0.60922  -0.52641  -0.51375
 Alpha  occ. eigenvalues --   -0.51369  -0.51100  -0.50591  -0.35629  -0.35587
 Alpha virt. eigenvalues --    0.03189   0.03320   0.03440   0.05030   0.05033
 Alpha virt. eigenvalues --    0.05290   0.07312   0.07653   0.07763   0.09640
 Alpha virt. eigenvalues --    0.09752   0.11896   0.12826   0.13811   0.13849

 Mulliken charges:
               1
     1  C    0.217395
     2  C    0.192634
     3  C    0.242002
     4  H   -0.225841
     5  C    0.321542
     6  H   -0.244512
     7  C    0.214708
     8  H   -0.226149
     9  C    0.195439
    10  H   -0.243366
    11  H   -0.225900
    12  H   -0.245056
    13  C    0.421291
    14  H    0.101428
    15  H    0.083069
    16  H    0.100966
    17  F   -0.679651
 Sum of Mulliken charges =  -0.00000

 Dipole moment (field-independent basis, Debye):
    X=              2.0347    Y=              0.8000    Z=              0.0065  Tot=              2.1863

 Test job not archived.
 1\1\GINC-SE094\SP\RHF\Aug-CC-pVDZ\C7H9F1\OHZDE\09-Apr-2025\0\\#t hf au
 g-cc-pvdz iop(5/13=1,5/36=2,99/5=2) pseudo=read geom=check guess=(read
 ,tcheck) scf=(maxcycle=1)\\title\\0,1\C,0,1.28077,-0.67224,-1.2016\C,0
 ,1.12048,0.70531,-1.19956\C,0,1.35784,-1.36306,-0.00132\H,0,1.34499,-1
 .20783,-2.13876\C,0,1.03724,1.39213,0.00265\H,0,1.06084,1.24404,-2.135
 39\C,0,1.27478,-0.6764,1.20095\H,0,1.48213,-2.43722,-0.00286\C,0,1.114
 51,0.70115,1.20287\H,0,0.91401,2.46664,0.00421\H,0,1.33432,-1.2152,2.1
 3658\H,0,1.05028,1.23669,2.14025\C,0,-2.41023223,0.27217066,0.00076408

 Normal termination of Gaussian 16 at Wed Apr  9 03:03:51 2025.
