 Gaussian 16, Revision C.01,

 ----------------------------------------------------------------------
 #t hf aug-cc-pvdz symm=none int=(grid=ultrafine) guess=(read,tcheck) s
 table=(opt,rrhf)
 ----------------------------------------------------------------------
 -----
 title
 -----
 Symbolic Z-matrix:
 Charge =  0 Multiplicity = 1

 SCF Done:  E(RHF) =  -823.409145341     A.U. after   11 cycles
 Normal termination of Gaussian 16 at Wed Apr  9 03:04:02 2025.
 Gaussian 16:  ES64L-G16RevC.01  3-Jul-2019

 ----------------------------------------------------------------------
 #t hf aug-cc-pvdz iop(5/13=1,5/36=2,99/5=2) pseudo=read geom=check gue
 ss=(read,tcheck) scf=(maxcycle=1)
 ----------------------------------------------------------------------
 -----
 title
 -----
 Structure from the checkpoint file:  "F-set_cf3oh_cf3oh_090_dimer_mol1.chk"
 Charge =  0 Multiplicity = 1

                         Standard orientation:
 ---------------------------------------------------------------------
 Center     Atomic      Atomic             Coordinates (Angstroms)
 Number     Number       Type             X           Y           Z
 ---------------------------------------------------------------------
      1          6           0        1.948241    0.038184    0.004868
      2          8           0        1.360515    1.187257   -0.325429
      3          9           0        1.712016   -0.934489   -0.905396
      4          9           0        3.253025    0.219635    0.082476
      5          9           0        1.516877   -0.446501    1.179309
      6          1           0        0.413893    1.030761   -0.443756
      7          8           0       -0.833939    0.053364   -0.788189
      8          6           0       -1.934963    0.008823   -0.000873
      9          1           0       -0.646764   -0.815953   -1.152627
     10          9           0       -1.813310   -0.896942    0.968894
     11          9           0       -3.026112   -0.300877   -0.700003
     12          9           0       -2.093541    1.201195    0.539315
 ---------------------------------------------------------------------

 SCF Done:  E(RHF) =  -824.170220471     A.U. after    2 cycles

 The electronic state is 1-A.
 Alpha  occ. eigenvalues --  -26.54665 -26.54136 -26.54122 -26.51738 -26.51407
 Alpha  occ. eigenvalues --  -26.51101 -20.66144 -20.59813 -11.60751 -11.57134
 Alpha  occ. eigenvalues --   -1.77851  -1.74380  -1.66421  -1.65567  -1.63226
 Alpha  occ. eigenvalues --   -1.62444  -1.58536  -1.53018  -1.00041  -0.96235
 Alpha  occ. eigenvalues --   -0.89812  -0.87602  -0.86724  -0.85524  -0.83614
 Alpha  occ. eigenvalues --   -0.82711  -0.75714  -0.73178  -0.71761  -0.70667
 Alpha  occ. eigenvalues --   -0.70114  -0.68822  -0.67527  -0.67212  -0.65596
 Alpha  occ. eigenvalues --   -0.64643  -0.64521  -0.63487  -0.62915  -0.60720
 Alpha  occ. eigenvalues --   -0.57979  -0.54189
 Alpha virt. eigenvalues --    0.03517   0.06098   0.08114   0.08433   0.10314
 Alpha virt. eigenvalues --    0.10685   0.10883   0.11963   0.14830   0.16617
 Alpha virt. eigenvalues --    0.18091   0.19101   0.21329   0.21974   0.23940

 Mulliken charges:
               1
     1  C    2.904194
     2  O   -1.227291
     3  F   -0.728870
     4  F   -0.691445
     5  F   -0.688710
     6  H    0.560249
     7  O   -1.441483
     8  C    2.907898
     9  H    0.408843
    10  F   -0.661946
    11  F   -0.688189
    12  F   -0.653250
 Sum of Mulliken charges =  -0.00000

 Dipole moment (field-independent basis, Debye):
    X=             -1.9291    Y=             -1.1969    Z=             -1.2705  Tot=              2.6015

 Test job not archived.
 1\1\GINC-SE116\SP\RHF\Aug-CC-pVDZ\C2H2F6O2\OHZDE\09-Apr-2025\0\\#t hf
 aug-cc-pvdz iop(5/13=1,5/36=2,99/5=2) pseudo=read geom=check guess=(re
 ad,tcheck) scf=(maxcycle=1)\\title\\0,1\C,0,2.13896,0.0375,0.00421\O,0
 ,1.55972,1.18917,-0.33198\F,0,1.89162,-0.93932,-0.89863\F,0,3.44546,0.
 20858,0.07631\F,0,1.70749,-0.43559,1.18333\H,0,0.61144,1.03978,-0.4461
 4\O,0,-0.6456215,0.07051433,-0.7798225\C,0,-1.7443515,0.04050433,0.011
 3775\H,0,-0.4669015,-0.80278567,-1.1389425\F,0,-1.6270115,-0.85964567,
 0.9868875\F,0,-2.8403615,-0.26481567,-0.6820525\F,0,-1.8912015,1.23779

 Normal termination of Gaussian 16 at Wed Apr  9 03:04:09 2025.
