 Gaussian 16, Revision C.01,

 ----------------------------------------------------------------------
 #t hf aug-cc-pvdz symm=none int=(grid=ultrafine) guess=(read,tcheck) s
 table=(opt,rrhf)
 ----------------------------------------------------------------------
 -----
 title
 -----
 Symbolic Z-matrix:
 Charge =  0 Multiplicity = 1

 SCF Done:  E(RHF) =  -524.449012997     A.U. after   13 cycles
 Normal termination of Gaussian 16 at Wed Apr  9 03:03:21 2025.
 Gaussian 16:  ES64L-G16RevC.01  3-Jul-2019

 ----------------------------------------------------------------------
 #t hf aug-cc-pvdz iop(5/13=1,5/36=2,99/5=2) pseudo=read geom=check gue
 ss=(read,tcheck) scf=(maxcycle=1)
 ----------------------------------------------------------------------
 -----
 title
 -----
 Structure from the checkpoint file:  "F-set_cf3co2h_cf3co2h_090_dimer_mol2.chk"
 Charge =  0 Multiplicity = 1

                         Standard orientation:
 ---------------------------------------------------------------------
 Center     Atomic      Atomic             Coordinates (Angstroms)
 Number     Number       Type             X           Y           Z
 ---------------------------------------------------------------------
      1          6           0       -0.940661    0.159470   -0.000010
      2          8           0       -1.522232   -1.034079   -0.000020
      3          8           0       -1.492330    1.212811   -0.000010
      4          1           0       -2.476532   -0.903338    0.000080
      5          6           0        0.602029   -0.001141   -0.000010
      6          9           0        0.996798   -0.672462    1.081430
      7          9           0        0.996698   -0.674082   -1.080470
      8          9           0        1.187040    1.182488   -0.000930
 ---------------------------------------------------------------------

 SCF Done:  E(RHF) =  -524.935489471     A.U. after    2 cycles

 The electronic state is 1-A.
 Alpha  occ. eigenvalues --  -26.52995 -26.52992 -26.52718 -20.64492 -20.58922
 Alpha  occ. eigenvalues --  -11.54972 -11.44559  -1.74754  -1.64266  -1.64175
 Alpha  occ. eigenvalues --   -1.60135  -1.51039  -1.04464  -0.91793  -0.84581
 Alpha  occ. eigenvalues --   -0.84002  -0.81903  -0.75067  -0.71622  -0.71095
 Alpha  occ. eigenvalues --   -0.68564  -0.67364  -0.65987  -0.65155  -0.64068
 Alpha  occ. eigenvalues --   -0.60763  -0.52115  -0.49370
 Alpha virt. eigenvalues --    0.02994   0.07800   0.08964   0.09188   0.10813
 Alpha virt. eigenvalues --    0.11340   0.11858   0.13215   0.13523   0.18735
 Alpha virt. eigenvalues --    0.19936   0.20227   0.21518   0.25071   0.26721

 Mulliken charges:
               1
     1  C    1.306761
     2  O   -1.086120
     3  O   -1.016540
     4  H    0.362481
     5  C    2.502381
     6  F   -0.675294
     7  F   -0.675294
     8  F   -0.718375
 Sum of Mulliken charges =  -0.00000

 Dipole moment (field-independent basis, Debye):
    X=             -1.6758    Y=             -1.4226    Z=              0.0001  Tot=              2.1982

 Test job not archived.
 1\1\GINC-SE106\SP\RHF\Aug-CC-pVDZ\C2H1F3O2\OHZDE\09-Apr-2025\0\\#t hf
 aug-cc-pvdz iop(5/13=1,5/36=2,99/5=2) pseudo=read geom=check guess=(re
 ad,tcheck) scf=(maxcycle=1)\\title\\0,1\C,0,-0.94066,0.15947,-0.00001\
 O,0,-1.52223,-1.03408,-0.00002\O,0,-1.49233,1.21281,-0.00001\H,0,-2.47
 653,-0.90334,0.00008\C,0,0.60203,-0.00114,-0.00001\F,0,0.9968,-0.67246
 ,1.08143\F,0,0.9967,-0.67408,-1.08047\F,0,1.18704,1.18249,-0.00093\\Ve
 rsion=ES64L-G16RevC.01\State=1-A\HF=-524.9354895\RMSD=7.198e-03\Dipole
 =-0.6592966,-0.5596862,0.0000258\Quadrupole=3.4685739,-3.3579616,-0.11

 Normal termination of Gaussian 16 at Wed Apr  9 03:03:23 2025.
