 Gaussian 16, Revision C.01,

 ----------------------------------------------------------------------
 #t hf aug-cc-pvdz symm=none int=(grid=ultrafine) guess=(read,tcheck) s
 table=(opt,rrhf)
 ----------------------------------------------------------------------
 -----
 title
 -----
 Symbolic Z-matrix:
 Charge =  0 Multiplicity = 1

 SCF Done:  E(RHF) =  -176.866386220     A.U. after   11 cycles
 Normal termination of Gaussian 16 at Wed Apr  9 03:02:28 2025.
 Gaussian 16:  ES64L-G16RevC.01  3-Jul-2019

 ----------------------------------------------------------------------
 #t hf aug-cc-pvdz iop(5/13=1,5/36=2,99/5=2) pseudo=read geom=check gue
 ss=(read,tcheck) scf=(maxcycle=1)
 ----------------------------------------------------------------------
 -----
 title
 -----
 Structure from the checkpoint file:  "F-set_c2h2_hf_100_dimer_mol1.chk"
 Charge =  0 Multiplicity = 1

                         Standard orientation:
 ---------------------------------------------------------------------
 Center     Atomic      Atomic             Coordinates (Angstroms)
 Number     Number       Type             X           Y           Z
 ---------------------------------------------------------------------
      1          6           0        0.600926   -1.236324    0.000000
      2          6           0       -0.594174   -1.237672    0.000000
      3          1           0        1.664836   -1.241856    0.000000
      4          1           0       -1.658114   -1.245040    0.000000
      5          9           0       -0.005248    1.825687    0.000000
      6          1           0        0.000000    0.899687    0.000000
 ---------------------------------------------------------------------

 SCF Done:  E(RHF) =  -177.041643972     A.U. after    2 cycles

 The electronic state is 1-A'.
 Alpha  occ. eigenvalues --  -26.43888 -11.28245 -11.27884  -1.55111  -1.07032
 Alpha  occ. eigenvalues --   -0.79652  -0.72625  -0.71994  -0.59911  -0.59904
 Alpha  occ. eigenvalues --   -0.45686  -0.45177
 Alpha virt. eigenvalues --    0.03375   0.03385   0.07935   0.09489   0.09564
 Alpha virt. eigenvalues --    0.11028   0.11556   0.13047   0.15028   0.16398
 Alpha virt. eigenvalues --    0.19726   0.20956   0.24664   0.26403   0.27339

 Mulliken charges:
               1
     1  C    0.187956
     2  C    0.188861
     3  H   -0.205855
     4  H   -0.205722
     5  F   -0.648096
     6  H    0.682856
 Sum of Mulliken charges =  -0.00000

 Dipole moment (field-independent basis, Debye):
    X=              0.0107    Y=             -2.5436    Z=              0.0000  Tot=              2.5436

 Test job not archived.
 1\1\GINC-SE042\SP\RHF\Aug-CC-pVDZ\C2H3F1\OHZDE\09-Apr-2025\0\\#t hf au
 g-cc-pvdz iop(5/13=1,5/36=2,99/5=2) pseudo=read geom=check guess=(read
 ,tcheck) scf=(maxcycle=1)\\title\\0,1\C,0,0.60093,-1.23632,0.\C,0,-0.5
 9417,-1.23767,0.\H,0,1.66484,-1.24185,0.\H,0,-1.65811,-1.24504,0.\F,0,
 -0.00525,1.82569,0.\H,0,0.,0.89969,0.\\Version=ES64L-G16RevC.01\State=
 1-A'\HF=-177.041644\RMSD=2.470e-02\Dipole=0.0042206,-1.0007227,0.\Quad
 rupole=4.8098189,-3.8261082,-0.9837108,0.0172321,0.,0.\PG=CS [SG(C2H3F
 1)]\\@

 Normal termination of Gaussian 16 at Wed Apr  9 03:02:30 2025.
