 Gaussian 16, Revision C.01,

 ----------------------------------------------------------------------
 #t hf aug-cc-pvdz symm=none int=(grid=ultrafine) guess=(read,tcheck) s
 table=(opt,rrhf)
 ----------------------------------------------------------------------
 -----
 title
 -----
 Symbolic Z-matrix:
 Charge =  0 Multiplicity = 1

 SCF Done:  E(RHF) =  -254.952556598     A.U. after   12 cycles
 Normal termination of Gaussian 16 at Wed Apr  9 03:02:35 2025.
 Gaussian 16:  ES64L-G16RevC.01  3-Jul-2019

 ----------------------------------------------------------------------
 #t hf aug-cc-pvdz iop(5/13=1,5/36=2,99/5=2) pseudo=read geom=check gue
 ss=(read,tcheck) scf=(maxcycle=1)
 ----------------------------------------------------------------------
 -----
 title
 -----
 Structure from the checkpoint file:  "F-set_c2h4_c2h3f_105_dimer_mol1.chk"
 Charge =  0 Multiplicity = 1

                         Standard orientation:
 ---------------------------------------------------------------------
 Center     Atomic      Atomic             Coordinates (Angstroms)
 Number     Number       Type             X           Y           Z
 ---------------------------------------------------------------------
      1          6           0       -0.691562   -2.211417    0.660810
      2          6           0       -0.691562   -2.211417   -0.660810
      3          1           0       -0.051294   -1.544489    1.223580
      4          1           0       -1.326759   -2.878440    1.229250
      5          1           0       -0.051294   -1.544489   -1.223580
      6          1           0       -1.326759   -2.878440   -1.229250
      7          6           0       -0.691562    1.773001    0.000000
      8          6           0        0.618468    1.875489    0.000000
      9          1           0       -1.185382    0.811927    0.000000
     10          1           0       -1.286239    2.673083    0.000000
     11          1           0        1.183281    2.797754    0.000000
     12          9           0        1.420195    0.801018    0.000000
 ---------------------------------------------------------------------

 SCF Done:  E(RHF) =  -255.212670704     A.U. after    2 cycles

 The electronic state is 1-A'.
 Alpha  occ. eigenvalues --  -26.47623 -11.33563 -11.24299 -11.23629 -11.23483
 Alpha  occ. eigenvalues --   -1.60872  -1.05370  -1.03698  -0.83268  -0.79149
 Alpha  occ. eigenvalues --   -0.73400  -0.68308  -0.67032  -0.65001  -0.59939
 Alpha  occ. eigenvalues --   -0.58587  -0.55777  -0.50868  -0.39093  -0.38435
 Alpha virt. eigenvalues --    0.03683   0.04059   0.04836   0.05015   0.06479
 Alpha virt. eigenvalues --    0.07371   0.07876   0.09561   0.11644   0.11717
 Alpha virt. eigenvalues --    0.13401   0.13910   0.14713   0.15674   0.15719

 Mulliken charges:
               1
     1  C    0.114324
     2  C    0.114324
     3  H   -0.057897
     4  H   -0.063522
     5  H   -0.057897
     6  H   -0.063522
     7  C   -0.107306
     8  C    0.970723
     9  H   -0.037885
    10  H   -0.065035
    11  H    0.001823
    12  F   -0.748130
 Sum of Mulliken charges =  -0.00000

 Dipole moment (field-independent basis, Debye):
    X=             -0.7685    Y=              1.1661    Z=              0.0000  Tot=              1.3966

 Test job not archived.
 1\1\GINC-SE419\SP\RHF\Aug-CC-pVDZ\C4H7F1\OHZDE\09-Apr-2025\0\\#t hf au
 g-cc-pvdz iop(5/13=1,5/36=2,99/5=2) pseudo=read geom=check guess=(read
 ,tcheck) scf=(maxcycle=1)\\title\\0,1\C,0,-0.68996,-2.09115,0.66081\C,
 0,-0.68996,-2.09115,-0.66081\H,0,-0.04386,-1.42987,1.22358\H,0,-1.3309
 9,-2.75257,1.22925\H,0,-0.04386,-1.42987,-1.22358\H,0,-1.33099,-2.7525
 7,-1.22925\C,0,-0.65497117,1.89311392,0.\C,0,0.65590883,1.98409392,0.\
 H,0,-1.15721117,0.93641392,0.\H,0,-1.24172117,2.79838392,0.\H,0,1.2287
 9883,2.90136392,0.\F,0,1.44816883,0.90262392,0.\\Version=ES64L-G16RevC

 Normal termination of Gaussian 16 at Wed Apr  9 03:02:37 2025.
