 Gaussian 16, Revision C.01,

 ----------------------------------------------------------------------
 #t hf aug-cc-pvdz symm=none int=(grid=ultrafine) guess=(read,tcheck) s
 table=(opt,rrhf)
 ----------------------------------------------------------------------
 -----
 title
 -----
 Symbolic Z-matrix:
 Charge =  0 Multiplicity = 1

 SCF Done:  E(RHF) =  -1048.91457895     A.U. after   13 cycles
 Normal termination of Gaussian 16 at Wed Apr  9 03:05:00 2025.
 Gaussian 16:  ES64L-G16RevC.01  3-Jul-2019

 ----------------------------------------------------------------------
 #t hf aug-cc-pvdz iop(5/13=1,5/36=2,99/5=2) pseudo=read geom=check gue
 ss=(read,tcheck) scf=(maxcycle=1)
 ----------------------------------------------------------------------
 -----
 title
 -----
 Structure from the checkpoint file:  "F-set_cf3co2h_cf3co2h_105_dimer_mol1.chk"
 Charge =  0 Multiplicity = 1

                         Standard orientation:
 ---------------------------------------------------------------------
 Center     Atomic      Atomic             Coordinates (Angstroms)
 Number     Number       Type             X           Y           Z
 ---------------------------------------------------------------------
      1          6           0        0.001628    2.004853   -0.000009
      2          8           0        1.208456    1.530436    0.000121
      3          8           0       -1.031005    1.379054    0.000041
      4          6           0       -0.001628    3.556250   -0.000049
      5          1           0        1.191577    0.537879    0.000091
      6          9           0        0.626011    4.011861    1.081531
      7          9           0        0.628021    4.011897   -1.080449
      8          9           0       -1.238390    4.018873   -0.001199
      9          6           0       -0.001628   -2.004853   -0.000009
     10          8           0       -1.208456   -1.530436    0.000121
     11          8           0        1.031005   -1.379054    0.000041
     12          6           0        0.001628   -3.556250   -0.000049
     13          1           0       -1.191577   -0.537879    0.000091
     14          9           0        1.238390   -4.018873   -0.001199
     15          9           0       -0.626011   -4.011861    1.081531
     16          9           0       -0.628021   -4.011897   -1.080449
 ---------------------------------------------------------------------

 SCF Done:  E(RHF) =  -1049.88599064     A.U. after    2 cycles

 The electronic state is 1-A.
 Alpha  occ. eigenvalues --  -26.53653 -26.53653 -26.53650 -26.53650 -26.53418
 Alpha  occ. eigenvalues --  -26.53418 -20.65016 -20.65016 -20.60284 -20.60284
 Alpha  occ. eigenvalues --  -11.55706 -11.55706 -11.46220 -11.46218  -1.75510
 Alpha  occ. eigenvalues --   -1.75465  -1.64977  -1.64968  -1.64904  -1.64903
 Alpha  occ. eigenvalues --   -1.61614  -1.61029  -1.52198  -1.51615  -1.05700
 Alpha  occ. eigenvalues --   -1.04914  -0.92966  -0.92247  -0.85817  -0.85146
 Alpha  occ. eigenvalues --   -0.84731  -0.84722  -0.83277  -0.82978  -0.78346
 Alpha  occ. eigenvalues --   -0.75106  -0.72456  -0.72352  -0.72300  -0.71550
 Alpha  occ. eigenvalues --   -0.70284  -0.68655  -0.68540  -0.68216  -0.66690
 Alpha  occ. eigenvalues --   -0.66686  -0.66061  -0.65901  -0.64737  -0.64733
 Alpha  occ. eigenvalues --   -0.61162  -0.60495  -0.53396  -0.52650  -0.51883
 Alpha  occ. eigenvalues --   -0.50316
 Alpha virt. eigenvalues --    0.04198   0.05702   0.06353   0.07475   0.07655
 Alpha virt. eigenvalues --    0.08911   0.09204   0.09631   0.10997   0.11659
 Alpha virt. eigenvalues --    0.12033   0.12094   0.12589   0.16217   0.16266

 Mulliken charges:
               1
     1  C    1.115577
     2  O   -1.271095
     3  O   -1.123410
     4  C    2.833189
     5  H    0.626304
     6  F   -0.703782
     7  F   -0.703790
     8  F   -0.772993
     9  C    1.115577
    10  O   -1.271095
    11  O   -1.123410
    12  C    2.833189
    13  H    0.626304
    14  F   -0.772993
    15  F   -0.703782
    16  F   -0.703790
 Sum of Mulliken charges =  -0.00000

 Dipole moment (field-independent basis, Debye):
    X=              0.0000    Y=             -0.0000    Z=             -0.0004  Tot=              0.0004

 Test job not archived.
 1\1\GINC-SE188\SP\RHF\Aug-CC-pVDZ\C4H2F6O4\OHZDE\09-Apr-2025\0\\#t hf
 aug-cc-pvdz iop(5/13=1,5/36=2,99/5=2) pseudo=read geom=check guess=(re
 ad,tcheck) scf=(maxcycle=1)\\title\\0,1\C,0,-0.00078,1.87956,-0.00001\
 O,0,1.20457,1.4014,0.00012\O,0,-1.03535,1.25697,0.00004\C,0,0.00078,3.
 43096,-0.00005\H,0,1.18461,0.4089,0.00009\F,0,0.62983,3.88462,1.08153\
 F,0,0.63184,3.88465,-1.08045\F,0,-1.23454,3.89742,-0.0012\C,0,-0.01648
 2,-2.130116,-0.00001\O,0,-1.221832,-1.651956,0.00012\O,0,1.018088,-1.5
 07526,0.00004\C,0,-0.018042,-3.681516,-0.00005\H,0,-1.201872,-0.659456

 Normal termination of Gaussian 16 at Wed Apr  9 03:05:10 2025.
