 Gaussian 16, Revision C.01,

 ----------------------------------------------------------------------
 #t hf aug-cc-pvdz symm=none int=(grid=ultrafine) guess=(read,tcheck) s
 table=(opt,rrhf)
 ----------------------------------------------------------------------
 -----
 title
 -----
 Symbolic Z-matrix:
 Charge =  0 Multiplicity = 1

 SCF Done:  E(RHF) =  -823.416981555     A.U. after   11 cycles
 Normal termination of Gaussian 16 at Wed Apr  9 03:03:51 2025.
 Gaussian 16:  ES64L-G16RevC.01  3-Jul-2019

 ----------------------------------------------------------------------
 #t hf aug-cc-pvdz iop(5/13=1,5/36=2,99/5=2) pseudo=read geom=check gue
 ss=(read,tcheck) scf=(maxcycle=1)
 ----------------------------------------------------------------------
 -----
 title
 -----
 Structure from the checkpoint file:  "F-set_cf3oh_cf3oh_110_dimer_mol1.chk"
 Charge =  0 Multiplicity = 1

                         Standard orientation:
 ---------------------------------------------------------------------
 Center     Atomic      Atomic             Coordinates (Angstroms)
 Number     Number       Type             X           Y           Z
 ---------------------------------------------------------------------
      1          6           0        2.329756    0.036916    0.003659
      2          8           0        1.757603    1.190639   -0.337587
      3          9           0        2.073203   -0.943312   -0.892894
      4          9           0        3.637601    0.199325    0.071284
      5          9           0        1.898216   -0.426411    1.186625
      6          1           0        0.808004    1.047190   -0.448353
      7          8           0       -1.218978    0.027777   -0.794627
      8          6           0       -2.315740    0.009929   -0.000334
      9          1           0       -1.047291   -0.848784   -1.149204
     10          9           0       -2.201997   -0.885418    0.980010
     11          9           0       -3.415716   -0.291732   -0.689068
     12          9           0       -2.452842    1.211238    0.525745
 ---------------------------------------------------------------------

 SCF Done:  E(RHF) =  -824.177869673     A.U. after    2 cycles

 The electronic state is 1-A.
 Alpha  occ. eigenvalues --  -26.53709 -26.53424 -26.53330 -26.51948 -26.51635
 Alpha  occ. eigenvalues --  -26.51464 -20.64749 -20.62139 -11.59730 -11.57771
 Alpha  occ. eigenvalues --   -1.76917  -1.74734  -1.65539  -1.64835  -1.63523
 Alpha  occ. eigenvalues --   -1.62510  -1.56304  -1.54511  -0.98798  -0.96672
 Alpha  occ. eigenvalues --   -0.88570  -0.86535  -0.85940  -0.85370  -0.83884
 Alpha  occ. eigenvalues --   -0.83189  -0.73861  -0.72306  -0.71756  -0.70474
 Alpha  occ. eigenvalues --   -0.69483  -0.67865  -0.66758  -0.66619  -0.64863
 Alpha  occ. eigenvalues --   -0.64827  -0.64686  -0.63193  -0.63084  -0.61071
 Alpha  occ. eigenvalues --   -0.58157  -0.55683
 Alpha virt. eigenvalues --    0.03377   0.05888   0.08222   0.08508   0.09904
 Alpha virt. eigenvalues --    0.10394   0.10480   0.12170   0.14347   0.15510
 Alpha virt. eigenvalues --    0.17978   0.18351   0.19938   0.20980   0.23374

 Mulliken charges:
               1
     1  C    2.839956
     2  O   -1.185764
     3  F   -0.705429
     4  F   -0.680185
     5  F   -0.678040
     6  H    0.422010
     7  O   -1.245896
     8  C    2.875850
     9  H    0.353956
    10  F   -0.661099
    11  F   -0.678871
    12  F   -0.656490
 Sum of Mulliken charges =  -0.00000

 Dipole moment (field-independent basis, Debye):
    X=             -1.5134    Y=             -1.0257    Z=             -1.2249  Tot=              2.2006

 Test job not archived.
 1\1\GINC-SE368\SP\RHF\Aug-CC-pVDZ\C2H2F6O2\OHZDE\09-Apr-2025\0\\#t hf
 aug-cc-pvdz iop(5/13=1,5/36=2,99/5=2) pseudo=read geom=check guess=(re
 ad,tcheck) scf=(maxcycle=1)\\title\\0,1\C,0,2.13896,0.0375,0.00421\O,0
 ,1.55972,1.18917,-0.33198\F,0,1.89162,-0.93932,-0.89863\F,0,3.44546,0.
 20858,0.07631\F,0,1.70749,-0.43559,1.18333\H,0,0.61144,1.03978,-0.4461
 4\O,0,-1.4074785,0.00834567,-0.8037375\C,0,-2.5062085,-0.02166433,-0.0
 125375\H,0,-1.2287585,-0.86495433,-1.1628575\F,0,-2.3888685,-0.9218143
 3,0.9629725\F,0,-3.6022185,-0.32698433,-0.7059675\F,0,-2.6530585,1.175

 Normal termination of Gaussian 16 at Wed Apr  9 03:03:56 2025.
