 Gaussian 16, Revision C.01,

 ----------------------------------------------------------------------
 #t hf aug-cc-pvdz symm=none int=(grid=ultrafine) guess=(read,tcheck) s
 table=(opt,rrhf)
 ----------------------------------------------------------------------
 -----
 title
 -----
 Symbolic Z-matrix:
 Charge =  0 Multiplicity = 1

 SCF Done:  E(RHF) =  -1054.58550779     A.U. after   14 cycles

 1\1\GINC-SE367\Stability\RHF\Aug-CC-pVDZ\C12H6F6\OHZDE\09-Apr-2025\0\\
 #t hf aug-cc-pvdz symm=none int=(grid=ultrafine) guess=(read,tcheck) s
 table=(opt,rrhf)\\title\\0,1\C,0,-1.05492,1.38134,-0.46157\C,0,-0.2198
 5,0.74322,-1.36181\C,0,-1.8503,0.63831,0.39257\F,0,-1.07636,2.70339,-0
 .40254\C,0,-0.17808,-0.63935,-1.40641\F,0,0.545,1.45496,-2.17284\C,0,-
 1.80849,-0.74408,0.34809\F,0,-2.63364,1.24984,1.26796\C,0,-0.97186,-1.
 38232,-0.55041\F,0,0.62544,-1.25007,-2.26137\F,0,-2.5528,-1.4566,1.180
 18\F,0,-0.91673,-2.70456,-0.57861\C,0,1.14961583,-0.57496837,1.9243370

 Normal termination of Gaussian 16 at Wed Apr  9 03:09:26 2025.
 Gaussian 16:  ES64L-G16RevC.01  3-Jul-2019

 ----------------------------------------------------------------------
 #t hf aug-cc-pvdz iop(5/13=1,5/36=2,99/5=2) pseudo=read geom=check gue
 ss=(read,tcheck) scf=(maxcycle=1)
 ----------------------------------------------------------------------
 -----
 title
 -----
 Structure from the checkpoint file:  "F-set_c6h6_c6f6_095_dimer_mol1.chk"
 Charge =  0 Multiplicity = 1

                         Standard orientation:
 ---------------------------------------------------------------------
 Center     Atomic      Atomic             Coordinates (Angstroms)
 Number     Number       Type             X           Y           Z
 ---------------------------------------------------------------------
      1          6           0       -0.966687   -1.381302    0.515274
      2          6           0       -0.062305   -0.743392    1.346017
      3          6           0       -1.827650   -0.638073   -0.272527
      4          9           0       -0.992940   -2.703342    0.457992
      5          6           0       -0.016932    0.639167    1.387299
      6          9           0        0.764787   -1.455323    2.093288
      7          6           0       -1.782247    0.744307   -0.231368
      8          9           0       -2.678480   -1.249402   -1.082628
      9          6           0       -0.876448    1.382337    0.597516
     10          9           0        0.852382    1.249686    2.175423
     11          9           0       -2.590546    1.457018   -1.001272
     12          9           0       -0.819076    2.704567    0.621376
     13          6           0        1.040498    0.575048   -2.038855
     14          1           0        0.321407    1.024927   -2.710302
     15          6           0        1.869869    1.379785   -1.270730
     16          6           0        1.132751   -0.805174   -1.946090
     17          1           0        1.795974    2.456803   -1.342021
     18          6           0        2.790280    0.803279   -0.408699
     19          6           0        2.053900   -1.381800   -1.084108
     20          1           0        0.485662   -1.432393   -2.544188
     21          1           0        3.432882    1.429768    0.194263
     22          6           0        2.881790   -0.577843   -0.315062
     23          1           0        2.122488   -2.458237   -1.008309
     24          1           0        3.595529   -1.027741    0.360957
 ---------------------------------------------------------------------

 SCF Done:  E(RHF) =  -1055.58423592     A.U. after    2 cycles

 The electronic state is 1-A.
 Alpha  occ. eigenvalues --  -26.52144 -26.52140 -26.52137 -26.52135 -26.52013
 Alpha  occ. eigenvalues --  -26.51998 -11.38283 -11.38255 -11.38238 -11.38167
 Alpha  occ. eigenvalues --  -11.38142 -11.38122 -11.25134 -11.25061 -11.24975
 Alpha  occ. eigenvalues --  -11.24954 -11.24872 -11.24828  -1.67490  -1.66524
 Alpha  occ. eigenvalues --   -1.66483  -1.64909  -1.64879  -1.64050  -1.22183
 Alpha  occ. eigenvalues --   -1.16780  -1.07748  -1.07736  -1.02890  -1.02861
 Alpha  occ. eigenvalues --   -0.93353  -0.93347  -0.86014  -0.84323  -0.84311
 Alpha  occ. eigenvalues --   -0.82438  -0.80884  -0.76342  -0.76190  -0.76170
 Alpha  occ. eigenvalues --   -0.75713  -0.75705  -0.73461  -0.72933  -0.72895
 Alpha  occ. eigenvalues --   -0.69913  -0.69883  -0.69091  -0.67687  -0.67661
 Alpha  occ. eigenvalues --   -0.66375  -0.65800  -0.64938  -0.62002  -0.61964
 Alpha  occ. eigenvalues --   -0.61062  -0.61026  -0.58744  -0.54614  -0.51494
 Alpha  occ. eigenvalues --   -0.51487  -0.51250  -0.39197  -0.38618  -0.35445
 Alpha  occ. eigenvalues --   -0.34963
 Alpha virt. eigenvalues --    0.03618   0.03857   0.03887   0.05344   0.05356
 Alpha virt. eigenvalues --    0.05916   0.07763   0.07895   0.08053   0.09012
 Alpha virt. eigenvalues --    0.09155   0.10005   0.10049   0.10504   0.11408

 Mulliken charges:
               1
     1  C    0.946206
     2  C    1.054750
     3  C    0.951527
     4  F   -1.030460
     5  C    1.149453
     6  F   -1.047611
     7  C    1.072588
     8  F   -1.012027
     9  C    0.998792
    10  F   -1.045849
    11  F   -1.017100
    12  F   -1.034850
    13  C    0.472410
    14  H   -0.343394
    15  C    0.302823
    16  C    0.426977
    17  H   -0.313278
    18  C    0.277157
    19  C    0.179679
    20  H   -0.356098
    21  H   -0.300560
    22  C    0.260464
    23  H   -0.306378
    24  H   -0.285222
 Sum of Mulliken charges =  -0.00000

 Dipole moment (field-independent basis, Debye):
    X=              0.5661    Y=              0.0008    Z=             -0.0888  Tot=              0.5730

 Test job not archived.
 1\1\GINC-SE367\SP\RHF\Aug-CC-pVDZ\C12H6F6\OHZDE\09-Apr-2025\0\\#t hf a
 ug-cc-pvdz iop(5/13=1,5/36=2,99/5=2) pseudo=read geom=check guess=(rea
 d,tcheck) scf=(maxcycle=1)\\title\\0,1\C,0,-1.05492,1.38134,-0.46157\C
 ,0,-0.21985,0.74322,-1.36181\C,0,-1.8503,0.63831,0.39257\F,0,-1.07636,
 2.70339,-0.40254\C,0,-0.17808,-0.63935,-1.40641\F,0,0.545,1.45496,-2.1
 7284\C,0,-1.80849,-0.74408,0.34809\F,0,-2.63364,1.24984,1.26796\C,0,-0
 .97186,-1.38232,-0.55041\F,0,0.62544,-1.25007,-2.26137\F,0,-2.5528,-1.
 4566,1.18018\F,0,-0.91673,-2.70456,-0.57861\C,0,1.14961583,-0.57496837

 Normal termination of Gaussian 16 at Wed Apr  9 03:09:53 2025.
