 Gaussian 16, Revision C.01,

 ----------------------------------------------------------------------
 #t hf aug-cc-pvdz symm=none int=(grid=ultrafine) guess=(read,tcheck) s
 table=(opt,rrhf)
 ----------------------------------------------------------------------
 -----
 title
 -----
 Symbolic Z-matrix:
 Charge =  0 Multiplicity = 1

 SCF Done:  E(RHF) =  -823.414683347     A.U. after   11 cycles
 Normal termination of Gaussian 16 at Wed Apr  9 03:03:52 2025.
 Gaussian 16:  ES64L-G16RevC.01  3-Jul-2019

 ----------------------------------------------------------------------
 #t hf aug-cc-pvdz iop(5/13=1,5/36=2,99/5=2) pseudo=read geom=check gue
 ss=(read,tcheck) scf=(maxcycle=1)
 ----------------------------------------------------------------------
 -----
 title
 -----
 Structure from the checkpoint file:  "F-set_cf3oh_cf3oh_125_dimer_mol1.chk"
 Charge =  0 Multiplicity = 1

                         Standard orientation:
 ---------------------------------------------------------------------
 Center     Atomic      Atomic             Coordinates (Angstroms)
 Number     Number       Type             X           Y           Z
 ---------------------------------------------------------------------
      1          6           0        2.616054    0.036180    0.002991
      2          8           0        2.052580    1.192367   -0.344304
      3          9           0        2.348306   -0.947915   -0.886021
      4          9           0        3.925439    0.187944    0.065334
      5          9           0        2.184452   -0.415408    1.190464
      6          1           0        1.101446    1.056229   -0.451059
      7          8           0       -1.507342    0.013703   -0.797920
      8          6           0       -2.601631    0.010565   -0.000030
      9          1           0       -1.344230   -0.866676   -1.147045
     10          9           0       -2.492287   -0.879022    0.986041
     11          9           0       -3.706352   -0.286433   -0.683177
     12          9           0       -2.726854    1.216546    0.518263
 ---------------------------------------------------------------------

 SCF Done:  E(RHF) =  -824.175303453     A.U. after    2 cycles

 The electronic state is 1-A.
 Alpha  occ. eigenvalues --  -26.53289 -26.53093 -26.52950 -26.52090 -26.51595
 Alpha  occ. eigenvalues --  -26.51585 -20.63992 -20.62649 -11.59247 -11.57939
 Alpha  occ. eigenvalues --   -1.76510  -1.74849  -1.65145  -1.64491  -1.63628
 Alpha  occ. eigenvalues --   -1.62540  -1.55532  -1.54894  -0.98313  -0.96835
 Alpha  occ. eigenvalues --   -0.88073  -0.86639  -0.85561  -0.84931  -0.83966
 Alpha  occ. eigenvalues --   -0.83349  -0.73321  -0.71928  -0.71854  -0.70548
 Alpha  occ. eigenvalues --   -0.69009  -0.67867  -0.66427  -0.66233  -0.64953
 Alpha  occ. eigenvalues --   -0.64738  -0.64502  -0.63137  -0.62489  -0.61387
 Alpha  occ. eigenvalues --   -0.57453  -0.56055
 Alpha virt. eigenvalues --    0.03190   0.05658   0.08212   0.08556   0.09596
 Alpha virt. eigenvalues --    0.10160   0.10229   0.12248   0.13714   0.14705
 Alpha virt. eigenvalues --    0.17164   0.18144   0.19182   0.20910   0.22813

 Mulliken charges:
               1
     1  C    2.821387
     2  O   -1.153498
     3  F   -0.695713
     4  F   -0.673391
     5  F   -0.677307
     6  H    0.373642
     7  O   -1.169820
     8  C    2.850644
     9  H    0.332965
    10  F   -0.669534
    11  F   -0.678987
    12  F   -0.660388
 Sum of Mulliken charges =  -0.00000

 Dipole moment (field-independent basis, Debye):
    X=             -1.3647    Y=             -0.9814    Z=             -1.2245  Tot=              2.0797

 Test job not archived.
 1\1\GINC-SE423\SP\RHF\Aug-CC-pVDZ\C2H2F6O2\OHZDE\09-Apr-2025\0\\#t hf
 aug-cc-pvdz iop(5/13=1,5/36=2,99/5=2) pseudo=read geom=check guess=(re
 ad,tcheck) scf=(maxcycle=1)\\title\\0,1\C,0,2.13896,0.0375,0.00421\O,0
 ,1.55972,1.18917,-0.33198\F,0,1.89162,-0.93932,-0.89863\F,0,3.44546,0.
 20858,0.07631\F,0,1.70749,-0.43559,1.18333\H,0,0.61144,1.03978,-0.4461
 4\O,0,-1.97887125,-0.03828083,-0.82167375\C,0,-3.07760125,-0.06829083,
 -0.03047375\H,0,-1.80015125,-0.91158083,-1.18079375\F,0,-2.96026125,-0
 .96844083,0.94503625\F,0,-4.17361125,-0.37361083,-0.72390375\F,0,-3.22

 Normal termination of Gaussian 16 at Wed Apr  9 03:03:58 2025.
