 Gaussian 16, Revision C.01,

 ----------------------------------------------------------------------
 #t hf aug-cc-pvdz symm=none int=(grid=ultrafine) guess=(read,tcheck) s
 table=(opt,rrhf)
 ----------------------------------------------------------------------
 -----
 title
 -----
 Symbolic Z-matrix:
 Charge =  0 Multiplicity = 1

 SCF Done:  E(RHF) =  -254.950661812     A.U. after   12 cycles
 Normal termination of Gaussian 16 at Wed Apr  9 03:02:37 2025.
 Gaussian 16:  ES64L-G16RevC.01  3-Jul-2019

 ----------------------------------------------------------------------
 #t hf aug-cc-pvdz iop(5/13=1,5/36=2,99/5=2) pseudo=read geom=check gue
 ss=(read,tcheck) scf=(maxcycle=1)
 ----------------------------------------------------------------------
 -----
 title
 -----
 Structure from the checkpoint file:  "F-set_c2h4_c2h3f_095_dimer_mol1.chk"
 Charge =  0 Multiplicity = 1

                         Standard orientation:
 ---------------------------------------------------------------------
 Center     Atomic      Atomic             Coordinates (Angstroms)
 Number     Number       Type             X           Y           Z
 ---------------------------------------------------------------------
      1          6           0       -0.688130   -1.970450    0.660810
      2          6           0       -0.688130   -1.970450   -0.660810
      3          1           0       -0.035641   -1.315474    1.223580
      4          1           0       -1.335551   -2.625616    1.229250
      5          1           0       -0.035641   -1.315474   -1.223580
      6          1           0       -1.335551   -2.625616   -1.229250
      7          6           0       -0.688130    1.633616    0.000000
      8          6           0        0.623571    1.711865    0.000000
      9          1           0       -1.199634    0.681837    0.000000
     10          1           0       -1.266064    2.544539    0.000000
     11          1           0        1.205339    2.623530    0.000000
     12          9           0        1.405295    0.622755    0.000000
 ---------------------------------------------------------------------

 SCF Done:  E(RHF) =  -255.210726513     A.U. after    2 cycles

 The electronic state is 1-A'.
 Alpha  occ. eigenvalues --  -26.47631 -11.33474 -11.24121 -11.23525 -11.23379
 Alpha  occ. eigenvalues --   -1.60917  -1.05322  -1.03663  -0.83243  -0.79115
 Alpha  occ. eigenvalues --   -0.73415  -0.68295  -0.67093  -0.64972  -0.59882
 Alpha  occ. eigenvalues --   -0.58557  -0.55642  -0.50808  -0.39028  -0.38382
 Alpha virt. eigenvalues --    0.03667   0.04028   0.04804   0.05026   0.06598
 Alpha virt. eigenvalues --    0.07361   0.07866   0.09556   0.11736   0.12011
 Alpha virt. eigenvalues --    0.13525   0.14213   0.14956   0.15690   0.15794

 Mulliken charges:
               1
     1  C    0.098692
     2  C    0.098692
     3  H   -0.047426
     4  H   -0.067009
     5  H   -0.047426
     6  H   -0.067009
     7  C   -0.024545
     8  C    0.901699
     9  H   -0.020176
    10  H   -0.072857
    11  H   -0.001748
    12  F   -0.750887
 Sum of Mulliken charges =   0.00000

 Dipole moment (field-independent basis, Debye):
    X=             -0.7415    Y=              1.1641    Z=              0.0000  Tot=              1.3802

 Test job not archived.
 1\1\GINC-SE322\SP\RHF\Aug-CC-pVDZ\C4H7F1\OHZDE\09-Apr-2025\0\\#t hf au
 g-cc-pvdz iop(5/13=1,5/36=2,99/5=2) pseudo=read geom=check guess=(read
 ,tcheck) scf=(maxcycle=1)\\title\\0,1\C,0,-0.68996,-2.09115,0.66081\C,
 0,-0.68996,-2.09115,-0.66081\H,0,-0.04386,-1.42987,1.22358\H,0,-1.3309
 9,-2.75257,1.22925\H,0,-0.04386,-1.42987,-1.22358\H,0,-1.33099,-2.7525
 7,-1.22925\C,0,-0.72494883,1.51274608,0.\C,0,0.58593117,1.60372608,0.\
 H,0,-1.22718883,0.55604608,0.\H,0,-1.31169883,2.41801608,0.\H,0,1.1588
 2117,2.52099608,0.\F,0,1.37819117,0.52225608,0.\\Version=ES64L-G16RevC

 Normal termination of Gaussian 16 at Wed Apr  9 03:02:40 2025.
