 Gaussian 16, Revision C.01,

 ----------------------------------------------------------------------
 #t hf aug-cc-pvdz symm=none int=(grid=ultrafine) guess=(read,tcheck) s
 table=(opt,rrhf)
 ----------------------------------------------------------------------
 -----
 title
 -----
 Symbolic Z-matrix:
 Charge =  0 Multiplicity = 1

 SCF Done:  E(RHF) =  -1054.59242694     A.U. after   14 cycles

 1\1\GINC-SE460\Stability\RHF\Aug-CC-pVDZ\C12H6F6\OHZDE\09-Apr-2025\0\\
 #t hf aug-cc-pvdz symm=none int=(grid=ultrafine) guess=(read,tcheck) s
 table=(opt,rrhf)\\title\\0,1\C,0,-1.05492,1.38134,-0.46157\C,0,-0.2198
 5,0.74322,-1.36181\C,0,-1.8503,0.63831,0.39257\F,0,-1.07636,2.70339,-0
 .40254\C,0,-0.17808,-0.63935,-1.40641\F,0,0.545,1.45496,-2.17284\C,0,-
 1.80849,-0.74408,0.34809\F,0,-2.63364,1.24984,1.26796\C,0,-0.97186,-1.
 38232,-0.55041\F,0,0.62544,-1.25007,-2.26137\F,0,-2.5528,-1.4566,1.180
 18\F,0,-0.91673,-2.70456,-0.57861\C,0,1.62413833,-0.57473325,2.1598159

 Normal termination of Gaussian 16 at Wed Apr  9 03:10:43 2025.
 Gaussian 16:  ES64L-G16RevC.01  3-Jul-2019

 ----------------------------------------------------------------------
 #t hf aug-cc-pvdz iop(5/13=1,5/36=2,99/5=2) pseudo=read geom=check gue
 ss=(read,tcheck) scf=(maxcycle=1)
 ----------------------------------------------------------------------
 -----
 title
 -----
 Structure from the checkpoint file:  "F-set_c6h6_c6f6_110_dimer_mol1.chk"
 Charge =  0 Multiplicity = 1

                         Standard orientation:
 ---------------------------------------------------------------------
 Center     Atomic      Atomic             Coordinates (Angstroms)
 Number     Number       Type             X           Y           Z
 ---------------------------------------------------------------------
      1          6           0       -1.209294   -1.381400    0.366483
      2          6           0       -0.490840   -0.742944    1.362058
      3          6           0       -1.894221   -0.638690   -0.578786
      4          9           0       -1.223134   -2.703466    0.305567
      5          6           0       -0.455065    0.639643    1.411128
      6          9           0        0.169061   -1.454378    2.260796
      7          6           0       -1.858392    0.743716   -0.529830
      8          9           0       -2.564382   -1.250542   -1.543369
      9          6           0       -1.138177    1.382293    0.464208
     10          9           0        0.237625    1.250684    2.357906
     11          9           0       -2.495329    1.455930   -1.446955
     12          9           0       -1.087125    2.704549    0.498651
     13          6           0        1.770271    0.574639   -1.907574
     14          1           0        1.200963    1.024080   -2.710204
     15          6           0        2.427813    1.379879   -0.988498
     16          6           0        1.842318   -0.805525   -1.797636
     17          1           0        2.369505    2.456851   -1.073595
     18          6           0        3.155984    0.803935    0.041390
     19          6           0        2.571222   -1.381589   -0.767648
     20          1           0        1.329051   -1.433136   -2.513534
     21          1           0        3.663878    1.430817    0.761149
     22          6           0        3.227127   -0.577129    0.152033
     23          1           0        2.623424   -2.457981   -0.679203
     24          1           0        3.790273   -1.026589    0.958064
 ---------------------------------------------------------------------

 SCF Done:  E(RHF) =  -1055.59186397     A.U. after    2 cycles

 The electronic state is 1-A.
 Alpha  occ. eigenvalues --  -26.52285 -26.52276 -26.52235 -26.52222 -26.52110
 Alpha  occ. eigenvalues --  -26.52102 -11.38551 -11.38524 -11.38516 -11.38431
 Alpha  occ. eigenvalues --  -11.38414 -11.38399 -11.24934 -11.24876 -11.24845
 Alpha  occ. eigenvalues --  -11.24806 -11.24749 -11.24724  -1.67617  -1.66628
 Alpha  occ. eigenvalues --   -1.66603  -1.65030  -1.65016  -1.64175  -1.22409
 Alpha  occ. eigenvalues --   -1.16548  -1.07964  -1.07953  -1.02645  -1.02619
 Alpha  occ. eigenvalues --   -0.93542  -0.93534  -0.86197  -0.84102  -0.84094
 Alpha  occ. eigenvalues --   -0.82584  -0.81006  -0.76434  -0.76337  -0.76328
 Alpha  occ. eigenvalues --   -0.75843  -0.75834  -0.73273  -0.73021  -0.72989
 Alpha  occ. eigenvalues --   -0.69994  -0.69983  -0.69162  -0.67795  -0.67784
 Alpha  occ. eigenvalues --   -0.66487  -0.65612  -0.64753  -0.62157  -0.62133
 Alpha  occ. eigenvalues --   -0.60874  -0.60845  -0.58912  -0.53859  -0.51968
 Alpha  occ. eigenvalues --   -0.51317  -0.51308  -0.38667  -0.38498  -0.35518
 Alpha  occ. eigenvalues --   -0.35384
 Alpha virt. eigenvalues --    0.03594   0.03831   0.03852   0.05330   0.05338
 Alpha virt. eigenvalues --    0.05872   0.07773   0.07964   0.07981   0.09289
 Alpha virt. eigenvalues --    0.09363   0.09804   0.09825   0.11003   0.11036

 Mulliken charges:
               1
     1  C    0.935396
     2  C    1.083750
     3  C    0.958735
     4  F   -1.012194
     5  C    1.132886
     6  F   -1.025975
     7  C    0.999943
     8  F   -0.993540
     9  C    0.950896
    10  F   -1.025233
    11  F   -0.994690
    12  F   -1.010349
    13  C    0.535748
    14  H   -0.334014
    15  C    0.230582
    16  C    0.450322
    17  H   -0.306844
    18  C    0.223955
    19  C    0.165091
    20  H   -0.339602
    21  H   -0.283031
    22  C    0.233261
    23  H   -0.298150
    24  H   -0.276942
 Sum of Mulliken charges =  -0.00000

 Dipole moment (field-independent basis, Debye):
    X=              0.4787    Y=             -0.0004    Z=              0.0245  Tot=              0.4793

 Test job not archived.
 1\1\GINC-SE460\SP\RHF\Aug-CC-pVDZ\C12H6F6\OHZDE\09-Apr-2025\0\\#t hf a
 ug-cc-pvdz iop(5/13=1,5/36=2,99/5=2) pseudo=read geom=check guess=(rea
 d,tcheck) scf=(maxcycle=1)\\title\\0,1\C,0,-1.05492,1.38134,-0.46157\C
 ,0,-0.21985,0.74322,-1.36181\C,0,-1.8503,0.63831,0.39257\F,0,-1.07636,
 2.70339,-0.40254\C,0,-0.17808,-0.63935,-1.40641\F,0,0.545,1.45496,-2.1
 7284\C,0,-1.80849,-0.74408,0.34809\F,0,-2.63364,1.24984,1.26796\C,0,-0
 .97186,-1.38232,-0.55041\F,0,0.62544,-1.25007,-2.26137\F,0,-2.5528,-1.
 4566,1.18018\F,0,-0.91673,-2.70456,-0.57861\C,0,1.62413833,-0.57473325

 Normal termination of Gaussian 16 at Wed Apr  9 03:11:12 2025.
