 Gaussian 16, Revision C.01,

 ----------------------------------------------------------------------
 #t hf aug-cc-pvdz symm=none int=(grid=ultrafine) guess=(read,tcheck) s
 table=(opt,rrhf)
 ----------------------------------------------------------------------
 -----
 title
 -----
 Symbolic Z-matrix:
 Charge =  0 Multiplicity = 1

 SCF Done:  E(RHF) =  -369.786022094     A.U. after   14 cycles
 Normal termination of Gaussian 16 at Wed Apr  9 03:03:50 2025.
 Gaussian 16:  ES64L-G16RevC.01  3-Jul-2019

 ----------------------------------------------------------------------
 #t hf aug-cc-pvdz iop(5/13=1,5/36=2,99/5=2) pseudo=read geom=check gue
 ss=(read,tcheck) scf=(maxcycle=1)
 ----------------------------------------------------------------------
 -----
 title
 -----
 Structure from the checkpoint file:  "F-set_c6h6_ch3f_100_dimer_mol1.chk"
 Charge =  0 Multiplicity = 1

                         Standard orientation:
 ---------------------------------------------------------------------
 Center     Atomic      Atomic             Coordinates (Angstroms)
 Number     Number       Type             X           Y           Z
 ---------------------------------------------------------------------
      1          6           0        1.280771   -0.672240   -1.201600
      2          6           0        1.120480    0.705310   -1.199560
      3          6           0        1.357842   -1.363060   -0.001320
      4          1           0        1.344992   -1.207830   -2.138760
      5          6           0        1.037239    1.392129    0.002650
      6          1           0        1.060839    1.244039   -2.135390
      7          6           0        1.274781   -0.676400    1.200950
      8          1           0        1.482133   -2.437220   -0.002860
      9          6           0        1.114510    0.701150    1.202870
     10          1           0        0.914008    2.466639    0.004210
     11          1           0        1.334322   -1.215200    2.136580
     12          1           0        1.050279    1.236689    2.140250
     13          6           0       -2.235760    0.261266    0.000770
     14          1           0       -2.162100    0.871996    0.899780
     15          1           0       -1.437319   -0.479023   -0.009560
     16          1           0       -2.165790    0.892976   -0.883920
     17          9           0       -3.457839   -0.384665   -0.004320
 ---------------------------------------------------------------------

 SCF Done:  E(RHF) =  -370.165006942     A.U. after    2 cycles

 The electronic state is 1-A.
 Alpha  occ. eigenvalues --  -26.43249 -11.30207 -11.25010 -11.24965 -11.24959
 Alpha  occ. eigenvalues --  -11.24889 -11.24849 -11.24844  -1.55489  -1.16641
 Alpha  occ. eigenvalues --   -1.02753  -1.02743  -0.93651  -0.84194  -0.84191
 Alpha  occ. eigenvalues --   -0.73376  -0.67179  -0.67160  -0.65708  -0.65284
 Alpha  occ. eigenvalues --   -0.64842  -0.60968  -0.60966  -0.52796  -0.51415
 Alpha  occ. eigenvalues --   -0.51409  -0.50979  -0.50311  -0.35697  -0.35641
 Alpha virt. eigenvalues --    0.03194   0.03316   0.03438   0.05030   0.05036
 Alpha virt. eigenvalues --    0.05333   0.07351   0.07652   0.07813   0.09576
 Alpha virt. eigenvalues --    0.09693   0.11588   0.13072   0.13774   0.13778

 Mulliken charges:
               1
     1  C    0.233106
     2  C    0.175779
     3  C    0.222681
     4  H   -0.225389
     5  C    0.311723
     6  H   -0.242452
     7  C    0.230273
     8  H   -0.226703
     9  C    0.178536
    10  H   -0.243425
    11  H   -0.225430
    12  H   -0.243039
    13  C    0.436162
    14  H    0.111540
    15  H    0.081154
    16  H    0.110964
    17  F   -0.685481
 Sum of Mulliken charges =  -0.00000

 Dipole moment (field-independent basis, Debye):
    X=              2.0618    Y=              0.7905    Z=              0.0065  Tot=              2.2082

 Test job not archived.
 1\1\GINC-SE220\SP\RHF\Aug-CC-pVDZ\C7H9F1\OHZDE\09-Apr-2025\0\\#t hf au
 g-cc-pvdz iop(5/13=1,5/36=2,99/5=2) pseudo=read geom=check guess=(read
 ,tcheck) scf=(maxcycle=1)\\title\\0,1\C,0,1.28077,-0.67224,-1.2016\C,0
 ,1.12048,0.70531,-1.19956\C,0,1.35784,-1.36306,-0.00132\H,0,1.34499,-1
 .20783,-2.13876\C,0,1.03724,1.39213,0.00265\H,0,1.06084,1.24404,-2.135
 39\C,0,1.27478,-0.6764,1.20095\H,0,1.48213,-2.43722,-0.00286\C,0,1.114
 51,0.70115,1.20287\H,0,0.91401,2.46664,0.00421\H,0,1.33432,-1.2152,2.1
 3658\H,0,1.05028,1.23669,2.14025\C,0,-2.23576,0.26127,0.00077\H,0,-2.1

 Normal termination of Gaussian 16 at Wed Apr  9 03:03:57 2025.
