 Gaussian 16, Revision C.01,

 ----------------------------------------------------------------------
 #t hf aug-cc-pvdz symm=none int=(grid=ultrafine) guess=(read,tcheck) s
 table=(opt,rrhf)
 ----------------------------------------------------------------------
 -----
 title
 -----
 Symbolic Z-matrix:
 Charge =  0 Multiplicity = 1

 SCF Done:  E(RHF) =  -475.894321267     A.U. after   10 cycles
 Normal termination of Gaussian 16 at Wed Apr  9 03:03:36 2025.
 Gaussian 16:  ES64L-G16RevC.01  3-Jul-2019

 ----------------------------------------------------------------------
 #t hf aug-cc-pvdz iop(5/13=1,5/36=2,99/5=2) pseudo=read geom=check gue
 ss=(read,tcheck) scf=(maxcycle=1)
 ----------------------------------------------------------------------
 -----
 title
 -----
 Structure from the checkpoint file:  "F-set_ch4_cf4_100_dimer_mol1.chk"
 Charge =  0 Multiplicity = 1

                         Standard orientation:
 ---------------------------------------------------------------------
 Center     Atomic      Atomic             Coordinates (Angstroms)
 Number     Number       Type             X           Y           Z
 ---------------------------------------------------------------------
      1          6           0        0.000000   -3.099382    0.000000
      2          1           0        0.000000   -4.186812    0.000000
      3          1           0        1.025560   -2.737412    0.000000
      4          1           0       -0.512780   -2.737412    0.888160
      5          1           0       -0.512780   -2.737412   -0.888160
      6          6           0        0.000000    0.737208    0.000000
      7          9           0        0.000000    2.056088    0.000000
      8          9           0       -1.243220    0.298788    0.000000
      9          9           0        0.621610    0.298788    1.076660
     10          9           0        0.621610    0.298788   -1.076660
 ---------------------------------------------------------------------

 SCF Done:  E(RHF) =  -476.339570127     A.U. after    2 cycles

 The electronic state is 1-A'.
 Alpha  occ. eigenvalues --  -26.54128 -26.54128 -26.54124 -26.54110 -11.62256
 Alpha  occ. eigenvalues --  -11.21967  -1.79466  -1.66193  -1.66193  -1.66170
 Alpha  occ. eigenvalues --   -0.99316  -0.94791  -0.87919  -0.87919  -0.87910
 Alpha  occ. eigenvalues --   -0.74249  -0.74249  -0.68564  -0.68562  -0.68562
 Alpha  occ. eigenvalues --   -0.65417  -0.65414  -0.65414  -0.55219  -0.55219
 Alpha  occ. eigenvalues --   -0.55190
 Alpha virt. eigenvalues --    0.04080   0.06145   0.06270   0.06270   0.09057
 Alpha virt. eigenvalues --    0.10426   0.10426   0.14854   0.14854   0.15069
 Alpha virt. eigenvalues --    0.17255   0.20180   0.23088   0.23088   0.25070

 Mulliken charges:
               1
     1  C   -0.270429
     2  H    0.035796
     3  H    0.075151
     4  H    0.075149
     5  H    0.075149
     6  C    2.547350
     7  F   -0.638160
     8  F   -0.633336
     9  F   -0.633336
    10  F   -0.633336
 Sum of Mulliken charges =  -0.00000

 Dipole moment (field-independent basis, Debye):
    X=             -0.0000    Y=             -0.0264    Z=              0.0000  Tot=              0.0264

 Test job not archived.
 1\1\GINC-SE460\SP\RHF\Aug-CC-pVDZ\C2H4F4\OHZDE\09-Apr-2025\0\\#t hf au
 g-cc-pvdz iop(5/13=1,5/36=2,99/5=2) pseudo=read geom=check guess=(read
 ,tcheck) scf=(maxcycle=1)\\title\\0,1\C,0,0.,0.,-3.09938\H,0,0.,0.,-4.
 18681\H,0,0.,-1.02556,-2.73741\H,0,-0.88816,0.51278,-2.73741\H,0,0.888
 16,0.51278,-2.73741\C,0,0.,0.,0.73721\F,0,0.,0.,2.05609\F,0,0.,1.24322
 ,0.29879\F,0,-1.07666,-0.62161,0.29879\F,0,1.07666,-0.62161,0.29879\\V
 ersion=ES64L-G16RevC.01\State=1-A'\HF=-476.3395701\RMSD=3.736e-03\Dipo
 le=0.,0.0000002,-0.0103897\Quadrupole=-0.001002,-0.0009996,0.0020016,0

 Normal termination of Gaussian 16 at Wed Apr  9 03:03:39 2025.
