 Gaussian 16, Revision C.01,

 ----------------------------------------------------------------------
 #t hf aug-cc-pvdz symm=none int=(grid=ultrafine) guess=(read,tcheck) s
 table=(opt,rrhf)
 ----------------------------------------------------------------------
 -----
 title
 -----
 Symbolic Z-matrix:
 Charge =  0 Multiplicity = 1

 SCF Done:  E(RHF) =  -411.706196709     A.U. after   11 cycles
 Normal termination of Gaussian 16 at Wed Apr  9 03:03:31 2025.
 Gaussian 16:  ES64L-G16RevC.01  3-Jul-2019

 ----------------------------------------------------------------------
 #t hf aug-cc-pvdz iop(5/13=1,5/36=2,99/5=2) pseudo=read geom=check gue
 ss=(read,tcheck) scf=(maxcycle=1)
 ----------------------------------------------------------------------
 -----
 title
 -----
 Structure from the checkpoint file:  "F-set_cf3oh_cf3oh_090_dimer_mol2.chk"
 Charge =  0 Multiplicity = 1

                         Standard orientation:
 ---------------------------------------------------------------------
 Center     Atomic      Atomic             Coordinates (Angstroms)
 Number     Number       Type             X           Y           Z
 ---------------------------------------------------------------------
      1          6           0        0.005389    0.022228   -0.000278
      2          8           0        1.280373    0.441066   -0.000458
      3          1           0        1.867283   -0.317436    0.001152
      4          9           0       -0.283011   -0.723506    1.075792
      5          9           0       -0.783866    1.079857   -0.002338
      6          9           0       -0.282301   -0.727956   -1.072988
 ---------------------------------------------------------------------

 SCF Done:  E(RHF) =  -412.087101744     A.U. after    2 cycles

 The electronic state is 1-A.
 Alpha  occ. eigenvalues --  -26.52001 -26.51685 -26.51666 -20.62568 -11.57914
 Alpha  occ. eigenvalues --   -1.75013  -1.63695  -1.62871  -1.54627  -0.96949
 Alpha  occ. eigenvalues --   -0.86751  -0.84104  -0.83458  -0.71933  -0.70592
 Alpha  occ. eigenvalues --   -0.67776  -0.64946  -0.64913  -0.63183  -0.61238
 Alpha  occ. eigenvalues --   -0.56035
 Alpha virt. eigenvalues --    0.03245   0.09231   0.09335   0.09471   0.13518
 Alpha virt. eigenvalues --    0.17841   0.19498   0.21416   0.23228   0.24023
 Alpha virt. eigenvalues --    0.29760   0.30595   0.31104   0.33904   0.34321

 Mulliken charges:
               1
     1  C    2.792533
     2  O   -1.073454
     3  H    0.289361
     4  F   -0.673169
     5  F   -0.662374
     6  F   -0.672896
 Sum of Mulliken charges =  -0.00000

 Dipole moment (field-independent basis, Debye):
    X=              1.6772    Y=             -1.0284    Z=             -0.0000  Tot=              1.9674

 Test job not archived.
 1\1\GINC-SE114\SP\RHF\Aug-CC-pVDZ\C1H1F3O1\OHZDE\09-Apr-2025\0\\#t hf
 aug-cc-pvdz iop(5/13=1,5/36=2,99/5=2) pseudo=read geom=check guess=(re
 ad,tcheck) scf=(maxcycle=1)\\title\\0,1\C,0,-0.00539,-0.02223,-0.00028
 \O,0,-1.28038,-0.44105,-0.00046\H,0,-1.86728,0.31746,0.00115\F,0,0.283
 02,0.7235,1.07579\F,0,0.78385,-1.07987,-0.00234\F,0,0.28231,0.72795,-1
 .07299\\Version=ES64L-G16RevC.01\State=1-A\HF=-412.0871017\RMSD=4.989e
 -03\Dipole=-0.6598648,0.4046057,-0.0000117\Quadrupole=2.3051362,-1.032
 3549,-1.2727812,-1.8745289,-0.0051675,0.0000343\PG=C01 [X(C1H1F3O1)]\\

 Normal termination of Gaussian 16 at Wed Apr  9 03:03:32 2025.
