 Gaussian 16, Revision C.01,

 ----------------------------------------------------------------------
 #t hf aug-cc-pvdz symm=none int=(grid=ultrafine) guess=(read,tcheck) s
 table=(opt,rrhf)
 ----------------------------------------------------------------------
 -----
 title
 -----
 Symbolic Z-matrix:
 Charge =  0 Multiplicity = 1

 SCF Done:  E(RHF) =  -1054.57819709     A.U. after   14 cycles

 1\1\GINC-SE454\Stability\RHF\Aug-CC-pVDZ\C12H6F6\OHZDE\09-Apr-2025\0\\
 #t hf aug-cc-pvdz symm=none int=(grid=ultrafine) guess=(read,tcheck) s
 table=(opt,rrhf)\\title\\0,1\C,0,-1.05492,1.38134,-0.46157\C,0,-0.2198
 5,0.74322,-1.36181\C,0,-1.8503,0.63831,0.39257\F,0,-1.07636,2.70339,-0
 .40254\C,0,-0.17808,-0.63935,-1.40641\F,0,0.545,1.45496,-2.17284\C,0,-
 1.80849,-0.74408,0.34809\F,0,-2.63364,1.24984,1.26796\C,0,-0.97186,-1.
 38232,-0.55041\F,0,0.62544,-1.25007,-2.26137\F,0,-2.5528,-1.4566,1.180
 18\F,0,-0.91673,-2.70456,-0.57861\C,0,0.99144167,-0.57504675,1.8458440

 Normal termination of Gaussian 16 at Wed Apr  9 03:10:02 2025.
 Gaussian 16:  ES64L-G16RevC.01  3-Jul-2019

 ----------------------------------------------------------------------
 #t hf aug-cc-pvdz iop(5/13=1,5/36=2,99/5=2) pseudo=read geom=check gue
 ss=(read,tcheck) scf=(maxcycle=1)
 ----------------------------------------------------------------------
 -----
 title
 -----
 Structure from the checkpoint file:  "F-set_c6h6_c6f6_090_dimer_mol1.chk"
 Charge =  0 Multiplicity = 1

                         Standard orientation:
 ---------------------------------------------------------------------
 Center     Atomic      Atomic             Coordinates (Angstroms)
 Number     Number       Type             X           Y           Z
 ---------------------------------------------------------------------
      1          6           0       -0.870802   -1.381261    0.567546
      2          6           0        0.105346   -0.743597    1.312859
      3          6           0       -1.799593   -0.637798   -0.138774
      4          9           0       -0.902355   -2.703290    0.512721
      5          6           0        0.154497    0.638950    1.350020
      6          9           0        0.996731   -1.455750    1.981894
      7          6           0       -1.750422    0.744569   -0.101738
      8          9           0       -2.720531   -1.248892   -0.868388
      9          6           0       -0.773033    1.382354    0.641595
     10          9           0        1.091848    1.249235    2.056070
     11          9           0       -2.625147    1.457503   -0.795018
     12          9           0       -0.713522    2.704572    0.660311
     13          6           0        0.754075    0.575239   -2.053731
     14          1           0       -0.022916    1.025314   -2.657088
     15          6           0        1.649864    1.379749   -1.363949
     16          6           0        0.854148   -0.805010   -1.969889
     17          1           0        1.569975    2.456787   -1.428108
     18          6           0        2.644621    0.802991   -0.589080
     19          6           0        1.849636   -1.381888   -1.195136
     20          1           0        0.155348   -1.432053   -2.506867
     21          1           0        3.339395    1.429304   -0.046852
     22          6           0        2.744033   -0.578157   -0.504303
     23          1           0        1.924649   -2.458346   -1.126006
     24          1           0        3.516109   -1.028252    0.104094
 ---------------------------------------------------------------------

 SCF Done:  E(RHF) =  -1055.57638566     A.U. after    2 cycles

 The electronic state is 1-A.
 Alpha  occ. eigenvalues --  -26.52136 -26.52135 -26.52097 -26.52091 -26.52016
 Alpha  occ. eigenvalues --  -26.51997 -11.38212 -11.38165 -11.38109 -11.38085
 Alpha  occ. eigenvalues --  -11.38023 -11.37978 -11.25206 -11.25131 -11.24998
 Alpha  occ. eigenvalues --  -11.24965 -11.24870 -11.24818  -1.67455  -1.66511
 Alpha  occ. eigenvalues --   -1.66463  -1.64893  -1.64854  -1.64031  -1.22131
 Alpha  occ. eigenvalues --   -1.16857  -1.07705  -1.07684  -1.02991  -1.02958
 Alpha  occ. eigenvalues --   -0.93305  -0.93300  -0.85975  -0.84421  -0.84393
 Alpha  occ. eigenvalues --   -0.82404  -0.80861  -0.76395  -0.76155  -0.76129
 Alpha  occ. eigenvalues --   -0.75688  -0.75678  -0.73515  -0.72935  -0.72895
 Alpha  occ. eigenvalues --   -0.69919  -0.69872  -0.69113  -0.67673  -0.67638
 Alpha  occ. eigenvalues --   -0.66359  -0.65858  -0.64999  -0.61968  -0.61919
 Alpha  occ. eigenvalues --   -0.61126  -0.61082  -0.58698  -0.55080  -0.51553
 Alpha  occ. eigenvalues --   -0.51543  -0.50796  -0.39632  -0.38841  -0.35229
 Alpha  occ. eigenvalues --   -0.34568
 Alpha virt. eigenvalues --    0.03629   0.03861   0.03894   0.05342   0.05357
 Alpha virt. eigenvalues --    0.05917   0.07766   0.07874   0.08078   0.08813
 Alpha virt. eigenvalues --    0.08984   0.10092   0.10146   0.10302   0.11581

 Mulliken charges:
               1
     1  C    0.959255
     2  C    1.057684
     3  C    0.948983
     4  F   -1.038283
     5  C    1.170193
     6  F   -1.054812
     7  C    1.082856
     8  F   -1.021367
     9  C    1.027640
    10  F   -1.052130
    11  F   -1.027717
    12  F   -1.046178
    13  C    0.420413
    14  H   -0.336545
    15  C    0.321199
    16  C    0.387098
    17  H   -0.313657
    18  C    0.294541
    19  C    0.189226
    20  H   -0.352663
    21  H   -0.305277
    22  C    0.284099
    23  H   -0.308314
    24  H   -0.286245
 Sum of Mulliken charges =  -0.00000

 Dipole moment (field-independent basis, Debye):
    X=              0.5705    Y=              0.0017    Z=             -0.1348  Tot=              0.5862

 Test job not archived.
 1\1\GINC-SE454\SP\RHF\Aug-CC-pVDZ\C12H6F6\OHZDE\09-Apr-2025\0\\#t hf a
 ug-cc-pvdz iop(5/13=1,5/36=2,99/5=2) pseudo=read geom=check guess=(rea
 d,tcheck) scf=(maxcycle=1)\\title\\0,1\C,0,-1.05492,1.38134,-0.46157\C
 ,0,-0.21985,0.74322,-1.36181\C,0,-1.8503,0.63831,0.39257\F,0,-1.07636,
 2.70339,-0.40254\C,0,-0.17808,-0.63935,-1.40641\F,0,0.545,1.45496,-2.1
 7284\C,0,-1.80849,-0.74408,0.34809\F,0,-2.63364,1.24984,1.26796\C,0,-0
 .97186,-1.38232,-0.55041\F,0,0.62544,-1.25007,-2.26137\F,0,-2.5528,-1.
 4566,1.18018\F,0,-0.91673,-2.70456,-0.57861\C,0,0.99144167,-0.57504675

 Normal termination of Gaussian 16 at Wed Apr  9 03:10:35 2025.
