 Gaussian 16, Revision C.01,

 ----------------------------------------------------------------------
 #t hf aug-cc-pvdz symm=none int=(grid=ultrafine) guess=(read,tcheck) s
 table=(opt,rrhf)
 ----------------------------------------------------------------------
 -----
 title
 -----
 Symbolic Z-matrix:
 Charge =  0 Multiplicity = 1

 SCF Done:  E(RHF) =  -176.865306934     A.U. after   11 cycles
 Normal termination of Gaussian 16 at Wed Apr  9 03:02:28 2025.
 Gaussian 16:  ES64L-G16RevC.01  3-Jul-2019

 ----------------------------------------------------------------------
 #t hf aug-cc-pvdz iop(5/13=1,5/36=2,99/5=2) pseudo=read geom=check gue
 ss=(read,tcheck) scf=(maxcycle=1)
 ----------------------------------------------------------------------
 -----
 title
 -----
 Structure from the checkpoint file:  "F-set_c2h2_hf_095_dimer_mol1.chk"
 Charge =  0 Multiplicity = 1

                         Standard orientation:
 ---------------------------------------------------------------------
 Center     Atomic      Atomic             Coordinates (Angstroms)
 Number     Number       Type             X           Y           Z
 ---------------------------------------------------------------------
      1          6           0        0.601052   -1.181969    0.000000
      2          6           0       -0.594048   -1.183571    0.000000
      3          1           0        1.664963   -1.187275    0.000000
      4          1           0       -1.657986   -1.191164    0.000000
      5          9           0       -0.005445    1.749768    0.000000
      6          1           0        0.000000    0.823769    0.000000
 ---------------------------------------------------------------------

 SCF Done:  E(RHF) =  -177.040581389     A.U. after    2 cycles

 The electronic state is 1-A'.
 Alpha  occ. eigenvalues --  -26.43355 -11.28425 -11.28061  -1.54739  -1.07385
 Alpha  occ. eigenvalues --   -0.79842  -0.72489  -0.72158  -0.59501  -0.59496
 Alpha  occ. eigenvalues --   -0.45909  -0.45401
 Alpha virt. eigenvalues --    0.03368   0.03385   0.08027   0.09448   0.09550
 Alpha virt. eigenvalues --    0.11019   0.11475   0.13049   0.14974   0.16562
 Alpha virt. eigenvalues --    0.19506   0.20843   0.24801   0.26557   0.28039

 Mulliken charges:
               1
     1  C    0.175266
     2  C    0.176721
     3  H   -0.206150
     4  H   -0.205928
     5  F   -0.673761
     6  H    0.733852
 Sum of Mulliken charges =  -0.00000

 Dipole moment (field-independent basis, Debye):
    X=              0.0113    Y=             -2.6100    Z=              0.0000  Tot=              2.6100

 Test job not archived.
 1\1\GINC-SE040\SP\RHF\Aug-CC-pVDZ\C2H3F1\OHZDE\09-Apr-2025\0\\#t hf au
 g-cc-pvdz iop(5/13=1,5/36=2,99/5=2) pseudo=read geom=check guess=(read
 ,tcheck) scf=(maxcycle=1)\\title\\0,1\C,0,0.60093,-1.23632,0.\C,0,-0.5
 9417,-1.23767,0.\H,0,1.66484,-1.24185,0.\H,0,-1.65811,-1.24504,0.\F,0,
 -0.00495012,1.6955445,0.\H,0,0.00029988,0.7695445,0.\\Version=ES64L-G1
 6RevC.01\State=1-A'\HF=-177.0405814\RMSD=2.473e-02\Dipole=0.004222,-1.
 0268551,0.\Quadrupole=4.7852263,-3.7515399,-1.0336864,0.0168001,0.,0.\
 PG=CS [SG(C2H3F1)]\\@

 Normal termination of Gaussian 16 at Wed Apr  9 03:02:30 2025.
