 Gaussian 16, Revision C.01,

 ----------------------------------------------------------------------
 #t hf aug-cc-pvdz symm=none int=(grid=ultrafine) guess=(read,tcheck) s
 table=(opt,rrhf)
 ----------------------------------------------------------------------
 -----
 title
 -----
 Symbolic Z-matrix:
 Charge =  0 Multiplicity = 1

 SCF Done:  E(RHF) =  -254.948179130     A.U. after   13 cycles
 Normal termination of Gaussian 16 at Wed Apr  9 03:02:36 2025.
 Gaussian 16:  ES64L-G16RevC.01  3-Jul-2019

 ----------------------------------------------------------------------
 #t hf aug-cc-pvdz iop(5/13=1,5/36=2,99/5=2) pseudo=read geom=check gue
 ss=(read,tcheck) scf=(maxcycle=1)
 ----------------------------------------------------------------------
 -----
 title
 -----
 Structure from the checkpoint file:  "F-set_c2h4_c2h3f_090_dimer_mol1.chk"
 Charge =  0 Multiplicity = 1

                         Standard orientation:
 ---------------------------------------------------------------------
 Center     Atomic      Atomic             Coordinates (Angstroms)
 Number     Number       Type             X           Y           Z
 ---------------------------------------------------------------------
      1          6           0       -0.686019   -1.849256    0.660810
      2          6           0       -0.686019   -1.849256   -0.660810
      3          1           0       -0.026502   -1.201357    1.223580
      4          1           0       -1.340470   -2.497400    1.229250
      5          1           0       -0.026502   -1.201357   -1.223580
      6          1           0       -1.340470   -2.497400   -1.229250
      7          6           0       -0.686019    1.565173    0.000000
      8          6           0        0.626450    1.629268    0.000000
      9          1           0       -1.207761    0.618967    0.000000
     10          1           0       -1.254092    2.482278    0.000000
     11          1           0        1.218019    2.534604    0.000000
     12          9           0        1.396380    0.531788    0.000000
 ---------------------------------------------------------------------

 SCF Done:  E(RHF) =  -255.208241059     A.U. after    2 cycles

 The electronic state is 1-A'.
 Alpha  occ. eigenvalues --  -26.47627 -11.33407 -11.23977 -11.23443 -11.23296
 Alpha  occ. eigenvalues --   -1.60953  -1.05309  -1.03640  -0.83231  -0.79105
 Alpha  occ. eigenvalues --   -0.73438  -0.68305  -0.67143  -0.64956  -0.59844
 Alpha  occ. eigenvalues --   -0.58551  -0.55521  -0.50769  -0.38983  -0.38314
 Alpha virt. eigenvalues --    0.03659   0.04013   0.04779   0.05024   0.06646
 Alpha virt. eigenvalues --    0.07341   0.07851   0.09553   0.11783   0.12185
 Alpha virt. eigenvalues --    0.13583   0.14339   0.15060   0.15690   0.15852

 Mulliken charges:
               1
     1  C    0.083972
     2  C    0.083972
     3  H   -0.031963
     4  H   -0.071529
     5  H   -0.031963
     6  H   -0.071529
     7  C    0.018809
     8  C    0.862945
     9  H   -0.007354
    10  H   -0.077976
    11  H   -0.005917
    12  F   -0.751466
 Sum of Mulliken charges =   0.00000

 Dipole moment (field-independent basis, Debye):
    X=             -0.7277    Y=              1.1625    Z=              0.0000  Tot=              1.3714

 Test job not archived.
 1\1\GINC-SE113\SP\RHF\Aug-CC-pVDZ\C4H7F1\OHZDE\09-Apr-2025\0\\#t hf au
 g-cc-pvdz iop(5/13=1,5/36=2,99/5=2) pseudo=read geom=check guess=(read
 ,tcheck) scf=(maxcycle=1)\\title\\0,1\C,0,-0.68996,-2.09115,0.66081\C,
 0,-0.68996,-2.09115,-0.66081\H,0,-0.04386,-1.42987,1.22358\H,0,-1.3309
 9,-2.75257,1.22925\H,0,-0.04386,-1.42987,-1.22358\H,0,-1.33099,-2.7525
 7,-1.22925\C,0,-0.75993767,1.32256217,0.\C,0,0.55094233,1.41354217,0.\
 H,0,-1.26217767,0.36586217,0.\H,0,-1.34668767,2.22783217,0.\H,0,1.1238
 3233,2.33081217,0.\F,0,1.34320233,0.33207217,0.\\Version=ES64L-G16RevC

 Normal termination of Gaussian 16 at Wed Apr  9 03:02:39 2025.
