 Gaussian 16, Revision C.01,

 ----------------------------------------------------------------------
 #t hf aug-cc-pvdz symm=none int=(grid=ultrafine) guess=(read,tcheck) s
 table=(opt,rrhf)
 ----------------------------------------------------------------------
 -----
 title
 -----
 Symbolic Z-matrix:
 Charge =  0 Multiplicity = 1

 SCF Done:  E(RHF) =  -179.257271214     A.U. after   11 cycles
 Normal termination of Gaussian 16 at Wed Apr  9 03:04:03 2025.
 Gaussian 16:  ES64L-G16RevC.01  3-Jul-2019

 ----------------------------------------------------------------------
 #t hf aug-cc-pvdz iop(5/13=1,5/36=2,99/5=2) pseudo=read geom=check gue
 ss=(read,tcheck) scf=(maxcycle=1)
 ----------------------------------------------------------------------
 -----
 title
 -----
 Structure from the checkpoint file:  "F-set_ch4_ch3f_110_dimer_mol1.chk"
 Charge =  0 Multiplicity = 1

                         Standard orientation:
 ---------------------------------------------------------------------
 Center     Atomic      Atomic             Coordinates (Angstroms)
 Number     Number       Type             X           Y           Z
 ---------------------------------------------------------------------
      1          6           0        1.024565   -2.218829    0.000000
      2          1           0        1.225161   -3.287622    0.000000
      3          1           0        0.450450   -1.955865    0.885270
      4          1           0        0.450450   -1.955865   -0.885270
      5          1           0        1.967142   -1.675286    0.000000
      6          6           0        0.000000    1.504912    0.000000
      7          9           0       -1.244431    0.909807    0.000000
      8          1           0        0.542592    1.191330    0.891170
      9          1           0        0.542592    1.191330   -0.891170
     10          1           0       -0.125901    2.587208    0.000000
 ---------------------------------------------------------------------

 SCF Done:  E(RHF) =  -179.444635235     A.U. after    2 cycles

 The electronic state is 1-A'.
 Alpha  occ. eigenvalues --  -26.44472 -11.31758 -11.21858  -1.56790  -0.95061
 Alpha  occ. eigenvalues --   -0.94599  -0.68557  -0.68505  -0.66510  -0.55166
 Alpha  occ. eigenvalues --   -0.55086  -0.54950  -0.52223  -0.52183
 Alpha virt. eigenvalues --    0.03485   0.04094   0.05392   0.05736   0.06681
 Alpha virt. eigenvalues --    0.08110   0.08765   0.11053   0.13865   0.15066
 Alpha virt. eigenvalues --    0.15902   0.16167   0.17258   0.18704   0.21809

 Mulliken charges:
               1
     1  C   -0.286045
     2  H    0.031243
     3  H    0.083688
     4  H    0.083688
     5  H    0.080542
     6  C    0.379166
     7  F   -0.647376
     8  H    0.095712
     9  H    0.095712
    10  H    0.083669
 Sum of Mulliken charges =   0.00000

 Dipole moment (field-independent basis, Debye):
    X=              1.6316    Y=              0.7819    Z=             -0.0000  Tot=              1.8093

 Test job not archived.
 1\1\GINC-SE059\SP\RHF\Aug-CC-pVDZ\C2H7F1\OHZDE\09-Apr-2025\0\\#t hf au
 g-cc-pvdz iop(5/13=1,5/36=2,99/5=2) pseudo=read geom=check guess=(read
 ,tcheck) scf=(maxcycle=1)\\title\\0,1\C,0,-1.01183,-1.97786,0.\H,0,-1.
 23943,-3.04123,0.\H,0,-0.43124,-1.72952,-0.88527\H,0,-0.43124,-1.72952
 ,0.88527\H,0,-1.94034,-1.41062,0.\C,0,0.1067118,1.718739,0.\F,0,1.3356
 718,1.092309,0.\H,0,-0.4436482,1.418999,-0.89117\H,0,-0.4436482,1.4189
 99,0.89117\H,0,0.2599818,2.797499,0.\\Version=ES64L-G16RevC.01\State=1
 -A'\HF=-179.4446352\RMSD=5.823e-03\Dipole=-0.6339226,0.3237994,0.\Quad

 Normal termination of Gaussian 16 at Wed Apr  9 03:04:05 2025.
