 Gaussian 16, Revision C.01,

 ----------------------------------------------------------------------
 #t hf aug-cc-pvdz symm=none int=(grid=ultrafine) guess=(read,tcheck) s
 table=(opt,rrhf)
 ----------------------------------------------------------------------
 -----
 title
 -----
 Symbolic Z-matrix:
 Charge =  0 Multiplicity = 1

 SCF Done:  E(RHF) =  -823.415106724     A.U. after   11 cycles
 Normal termination of Gaussian 16 at Wed Apr  9 03:03:58 2025.
 Gaussian 16:  ES64L-G16RevC.01  3-Jul-2019

 ----------------------------------------------------------------------
 #t hf aug-cc-pvdz iop(5/13=1,5/36=2,99/5=2) pseudo=read geom=check gue
 ss=(read,tcheck) scf=(maxcycle=1)
 ----------------------------------------------------------------------
 -----
 title
 -----
 Structure from the checkpoint file:  "F-set_cf3oh_cf3oh_095_dimer_mol1.chk"
 Charge =  0 Multiplicity = 1

                         Standard orientation:
 ---------------------------------------------------------------------
 Center     Atomic      Atomic             Coordinates (Angstroms)
 Number     Number       Type             X           Y           Z
 ---------------------------------------------------------------------
      1          6           0        2.043590    0.037829    0.004522
      2          8           0        1.460306    1.188259   -0.328909
      3          9           0        1.801535   -0.937080   -0.901809
      4          9           0        3.349287    0.213857    0.079216
      5          9           0        1.612167   -0.440726    1.181452
      6          1           0        0.512805    1.035475   -0.445032
      7          8           0       -0.930269    0.046023   -0.790096
      8          6           0       -2.030101    0.009134   -0.000720
      9          1           0       -0.747524   -0.825412   -1.151712
     10          9           0       -1.910706   -0.893650    0.972103
     11          9           0       -3.123809   -0.298317   -0.696837
     12          9           0       -2.182532    1.204128    0.535427
 ---------------------------------------------------------------------

 SCF Done:  E(RHF) =  -824.176141931     A.U. after    2 cycles

 The electronic state is 1-A.
 Alpha  occ. eigenvalues --  -26.54372 -26.53917 -26.53901 -26.51689 -26.51595
 Alpha  occ. eigenvalues --  -26.51212 -20.65804 -20.60707 -11.60454 -11.57358
 Alpha  occ. eigenvalues --   -1.77560  -1.74483  -1.66151  -1.65351  -1.63303
 Alpha  occ. eigenvalues --   -1.62452  -1.57751  -1.53563  -0.99631  -0.96352
 Alpha  occ. eigenvalues --   -0.89394  -0.87060  -0.86456  -0.85595  -0.83696
 Alpha  occ. eigenvalues --   -0.82848  -0.75038  -0.72910  -0.71666  -0.70474
 Alpha  occ. eigenvalues --   -0.70079  -0.68457  -0.67281  -0.67015  -0.65374
 Alpha  occ. eigenvalues --   -0.64656  -0.64566  -0.63669  -0.62965  -0.60571
 Alpha  occ. eigenvalues --   -0.58551  -0.54737
 Alpha virt. eigenvalues --    0.03499   0.06059   0.08157   0.08454   0.10206
 Alpha virt. eigenvalues --    0.10611   0.10787   0.12012   0.14761   0.16356
 Alpha virt. eigenvalues --    0.18166   0.18841   0.21124   0.21578   0.23798

 Mulliken charges:
               1
     1  C    2.875736
     2  O   -1.215928
     3  F   -0.718663
     4  F   -0.689022
     5  F   -0.685506
     6  H    0.511738
     7  O   -1.366367
     8  C    2.900024
     9  H    0.385934
    10  F   -0.660054
    11  F   -0.683283
    12  F   -0.654610
 Sum of Mulliken charges =  -0.00000

 Dipole moment (field-independent basis, Debye):
    X=             -1.7979    Y=             -1.1338    Z=             -1.2495  Tot=              2.4656

 Test job not archived.
 1\1\GINC-SE273\SP\RHF\Aug-CC-pVDZ\C2H2F6O2\OHZDE\09-Apr-2025\0\\#t hf
 aug-cc-pvdz iop(5/13=1,5/36=2,99/5=2) pseudo=read geom=check guess=(re
 ad,tcheck) scf=(maxcycle=1)\\title\\0,1\C,0,2.13896,0.0375,0.00421\O,0
 ,1.55972,1.18917,-0.33198\F,0,1.89162,-0.93932,-0.89863\F,0,3.44546,0.
 20858,0.07631\F,0,1.70749,-0.43559,1.18333\H,0,0.61144,1.03978,-0.4461
 4\O,0,-0.83608575,0.05497217,-0.78580125\C,0,-1.93481575,0.02496217,0.
 00539875\H,0,-0.65736575,-0.81832783,-1.14492125\F,0,-1.81747575,-0.87
 518783,0.98090875\F,0,-3.03082575,-0.28035783,-0.68803125\F,0,-2.08166

 Normal termination of Gaussian 16 at Wed Apr  9 03:04:05 2025.
