 Gaussian 16, Revision C.01,

 ----------------------------------------------------------------------
 #t hf aug-cc-pvdz symm=none int=(grid=ultrafine) guess=(read,tcheck) s
 table=(opt,rrhf)
 ----------------------------------------------------------------------
 -----
 title
 -----
 Symbolic Z-matrix:
 Charge =  0 Multiplicity = 1

 SCF Done:  E(RHF) =  -1048.91060891     A.U. after   13 cycles
 Normal termination of Gaussian 16 at Wed Apr  9 03:05:09 2025.
 Gaussian 16:  ES64L-G16RevC.01  3-Jul-2019

 ----------------------------------------------------------------------
 #t hf aug-cc-pvdz iop(5/13=1,5/36=2,99/5=2) pseudo=read geom=check gue
 ss=(read,tcheck) scf=(maxcycle=1)
 ----------------------------------------------------------------------
 -----
 title
 -----
 Structure from the checkpoint file:  "F-set_cf3co2h_cf3co2h_110_dimer_mol1.chk"
 Charge =  0 Multiplicity = 1

                         Standard orientation:
 ---------------------------------------------------------------------
 Center     Atomic      Atomic             Coordinates (Angstroms)
 Number     Number       Type             X           Y           Z
 ---------------------------------------------------------------------
      1          6           0        0.003828    2.130176   -0.000009
      2          8           0        1.211997    1.659185    0.000121
      3          8           0       -1.027025    1.501452    0.000041
      4          6           0       -0.003828    3.681558   -0.000049
      5          1           0        1.197933    0.666584    0.000091
      6          9           0        0.622516    4.138947    1.081531
      7          9           0        0.624526    4.138989   -1.080449
      8          9           0       -1.241897    4.140672   -0.001199
      9          6           0       -0.003828   -2.130176   -0.000009
     10          8           0       -1.211997   -1.659185    0.000121
     11          8           0        1.027025   -1.501452    0.000041
     12          6           0        0.003828   -3.681558   -0.000049
     13          1           0       -1.197933   -0.666584    0.000091
     14          9           0        1.241897   -4.140672   -0.001199
     15          9           0       -0.622516   -4.138947    1.081531
     16          9           0       -0.624526   -4.138989   -1.080449
 ---------------------------------------------------------------------

 SCF Done:  E(RHF) =  -1049.88181220     A.U. after    2 cycles

 The electronic state is 1-A.
 Alpha  occ. eigenvalues --  -26.53600 -26.53600 -26.53597 -26.53596 -26.53341
 Alpha  occ. eigenvalues --  -26.53341 -20.65425 -20.65424 -20.59971 -20.59970
 Alpha  occ. eigenvalues --  -11.55635 -11.55635 -11.45970 -11.45968  -1.75442
 Alpha  occ. eigenvalues --   -1.75411  -1.64906  -1.64901  -1.64857  -1.64856
 Alpha  occ. eigenvalues --   -1.61486  -1.61199  -1.51721  -1.51479  -1.05424
 Alpha  occ. eigenvalues --   -1.04975  -0.92767  -0.92364  -0.85566  -0.85183
 Alpha  occ. eigenvalues --   -0.84674  -0.84668  -0.83166  -0.83024  -0.77346
 Alpha  occ. eigenvalues --   -0.75411  -0.72398  -0.72338  -0.71969  -0.71548
 Alpha  occ. eigenvalues --   -0.69909  -0.68867  -0.68430  -0.68254  -0.66624
 Alpha  occ. eigenvalues --   -0.66623  -0.65996  -0.65909  -0.64678  -0.64676
 Alpha  occ. eigenvalues --   -0.61017  -0.60531  -0.53053  -0.52632  -0.51441
 Alpha  occ. eigenvalues --   -0.50177
 Alpha virt. eigenvalues --    0.04119   0.05654   0.06615   0.07444   0.07691
 Alpha virt. eigenvalues --    0.08936   0.09316   0.09610   0.10814   0.11515
 Alpha virt. eigenvalues --    0.11972   0.12076   0.12631   0.15801   0.15978

 Mulliken charges:
               1
     1  C    1.146361
     2  O   -1.245750
     3  O   -1.085434
     4  C    2.776135
     5  H    0.569073
     6  F   -0.698014
     7  F   -0.698020
     8  F   -0.764351
     9  C    1.146361
    10  O   -1.245750
    11  O   -1.085434
    12  C    2.776135
    13  H    0.569073
    14  F   -0.764351
    15  F   -0.698014
    16  F   -0.698020
 Sum of Mulliken charges =  -0.00000

 Dipole moment (field-independent basis, Debye):
    X=             -0.0000    Y=              0.0000    Z=             -0.0004  Tot=              0.0004

 Test job not archived.
 1\1\GINC-SE041\SP\RHF\Aug-CC-pVDZ\C4H2F6O4\OHZDE\09-Apr-2025\0\\#t hf
 aug-cc-pvdz iop(5/13=1,5/36=2,99/5=2) pseudo=read geom=check guess=(re
 ad,tcheck) scf=(maxcycle=1)\\title\\0,1\C,0,-0.00078,1.87956,-0.00001\
 O,0,1.20457,1.4014,0.00012\O,0,-1.03535,1.25697,0.00004\C,0,0.00078,3.
 43096,-0.00005\H,0,1.18461,0.4089,0.00009\F,0,0.62983,3.88462,1.08153\
 F,0,0.63184,3.88465,-1.08045\F,0,-1.23454,3.89742,-0.0012\C,0,-0.03374
 4,-2.380672,-0.00001\O,0,-1.239094,-1.902512,0.00012\O,0,1.000826,-1.7
 58082,0.00004\C,0,-0.035304,-3.932072,-0.00005\H,0,-1.219134,-0.910012

 Normal termination of Gaussian 16 at Wed Apr  9 03:05:16 2025.
