 Gaussian 16, Revision C.01,

 ----------------------------------------------------------------------
 #t hf aug-cc-pvdz symm=none int=(grid=ultrafine) guess=(read,tcheck) s
 table=(opt,rrhf)
 ----------------------------------------------------------------------
 -----
 title
 -----
 Symbolic Z-matrix:
 Charge =  0 Multiplicity = 1

 SCF Done:  E(RHF) =  -666.422582323     A.U. after   14 cycles
 Normal termination of Gaussian 16 at Wed Apr  9 03:04:17 2025.
 Gaussian 16:  ES64L-G16RevC.01  3-Jul-2019

 ----------------------------------------------------------------------
 #t hf aug-cc-pvdz iop(5/13=1,5/36=2,99/5=2) pseudo=read geom=check gue
 ss=(read,tcheck) scf=(maxcycle=1)
 ----------------------------------------------------------------------
 -----
 title
 -----
 Structure from the checkpoint file:  "F-set_c6h6_cf4_100_dimer_mol1.chk"
 Charge =  0 Multiplicity = 1

                         Standard orientation:
 ---------------------------------------------------------------------
 Center     Atomic      Atomic             Coordinates (Angstroms)
 Number     Number       Type             X           Y           Z
 ---------------------------------------------------------------------
      1          6           0       -2.237109   -1.167210   -0.601279
      2          6           0       -1.763689   -1.231980    0.700391
      3          6           0       -2.454769    0.064810   -1.199259
      4          1           0       -2.435359   -2.077560   -1.150429
      5          6           0       -1.508059   -0.064710    1.404061
      6          1           0       -1.590859   -2.192560    1.166101
      7          6           0       -2.198518    1.232000   -0.495899
      8          1           0       -2.822709    0.115320   -2.214959
      9          6           0       -1.725218    1.167290    0.805841
     10          1           0       -1.135899   -0.115270    2.418241
     11          1           0       -2.366458    2.192820   -0.962949
     12          1           0       -1.522098    2.077350    1.353551
     13          6           0        1.976711   -0.000031   -0.102889
     14          9           0        3.212671   -0.002461   -0.570459
     15          9           0        1.129441   -0.000491   -1.108599
     16          9           0        1.793592    1.078279    0.633611
     17          9           0        1.790661   -1.075451    0.637071
 ---------------------------------------------------------------------

 SCF Done:  E(RHF) =  -667.059008444     A.U. after    2 cycles

 The electronic state is 1-A.
 Alpha  occ. eigenvalues --  -26.53343 -26.53340 -26.53335 -26.53150 -11.61440
 Alpha  occ. eigenvalues --  -11.24120 -11.24095 -11.24091 -11.23999 -11.23985
 Alpha  occ. eigenvalues --  -11.23981  -1.78657  -1.65387  -1.65365  -1.65306
 Alpha  occ. eigenvalues --   -1.15702  -1.01917  -1.01916  -0.98503  -0.87136
 Alpha  occ. eigenvalues --   -0.87104  -0.87055  -0.83390  -0.83384  -0.73445
 Alpha  occ. eigenvalues --   -0.73414  -0.72526  -0.67819  -0.67752  -0.67686
 Alpha  occ. eigenvalues --   -0.64911  -0.64655  -0.64571  -0.64556  -0.64002
 Alpha  occ. eigenvalues --   -0.60131  -0.60128  -0.51370  -0.50603  -0.50598
 Alpha  occ. eigenvalues --   -0.34791  -0.34771
 Alpha virt. eigenvalues --    0.03682   0.03886   0.03953   0.05377   0.05401
 Alpha virt. eigenvalues --    0.07819   0.08487   0.10126   0.10263   0.10565
 Alpha virt. eigenvalues --    0.10587   0.11711   0.13788   0.14304   0.14463

 Mulliken charges:
               1
     1  C    0.106794
     2  C    0.317255
     3  C    0.354911
     4  H   -0.230818
     5  C    0.257462
     6  H   -0.263960
     7  C    0.091485
     8  H   -0.238070
     9  C    0.353659
    10  H   -0.289607
    11  H   -0.231267
    12  H   -0.269434
    13  C    2.627218
    14  F   -0.650582
    15  F   -0.648405
    16  F   -0.643152
    17  F   -0.643489
 Sum of Mulliken charges =  -0.00000

 Dipole moment (field-independent basis, Debye):
    X=             -0.1162    Y=             -0.0001    Z=             -0.0512  Tot=              0.1270

 Test job not archived.
 1\1\GINC-SE024\SP\RHF\Aug-CC-pVDZ\C7H6F4\OHZDE\09-Apr-2025\0\\#t hf au
 g-cc-pvdz iop(5/13=1,5/36=2,99/5=2) pseudo=read geom=check guess=(read
 ,tcheck) scf=(maxcycle=1)\\title\\0,1\C,0,2.23711,-1.16721,0.60128\C,0
 ,1.76369,-1.23198,-0.70039\C,0,2.45477,0.06481,1.19926\H,0,2.43536,-2.
 07756,1.15043\C,0,1.50806,-0.06471,-1.40406\H,0,1.59086,-2.19256,-1.16
 61\C,0,2.19852,1.232,0.4959\H,0,2.82271,0.11532,2.21496\C,0,1.72522,1.
 16729,-0.80584\H,0,1.1359,-0.11527,-2.41824\H,0,2.36646,2.19282,0.9629
 5\H,0,1.5221,2.07735,-1.35355\C,0,-1.97671,-0.00003,0.10289\F,0,-3.212

 Normal termination of Gaussian 16 at Wed Apr  9 03:04:26 2025.
