 Gaussian 16, Revision C.01,

 ----------------------------------------------------------------------
 #t hf aug-cc-pvdz symm=none int=(grid=ultrafine) guess=(read,tcheck) s
 table=(opt,rrhf)
 ----------------------------------------------------------------------
 -----
 title
 -----
 Symbolic Z-matrix:
 Charge =  0 Multiplicity = 1

 SCF Done:  E(RHF) =  -179.254315611     A.U. after   11 cycles
 Normal termination of Gaussian 16 at Wed Apr  9 03:03:31 2025.
 Gaussian 16:  ES64L-G16RevC.01  3-Jul-2019

 ----------------------------------------------------------------------
 #t hf aug-cc-pvdz iop(5/13=1,5/36=2,99/5=2) pseudo=read geom=check gue
 ss=(read,tcheck) scf=(maxcycle=1)
 ----------------------------------------------------------------------
 -----
 title
 -----
 Structure from the checkpoint file:  "F-set_ch4_ch3f_090_dimer_mol1.chk"
 Charge =  0 Multiplicity = 1

                         Standard orientation:
 ---------------------------------------------------------------------
 Center     Atomic      Atomic             Coordinates (Angstroms)
 Number     Number       Type             X           Y           Z
 ---------------------------------------------------------------------
      1          6           0        0.995852   -1.734380    0.000000
      2          1           0        1.255337   -2.790422    0.000000
      3          1           0        0.408054   -1.503618    0.885270
      4          1           0        0.408054   -1.503618   -0.885270
      5          1           0        1.906878   -1.139466    0.000000
      6          6           0        0.000000    1.266882    0.000000
      7          9           0       -1.209560    0.603767    0.000000
      8          1           0        0.559128    0.983834    0.891170
      9          1           0        0.559128    0.983834   -0.891170
     10          1           0       -0.185652    2.340543    0.000000
 ---------------------------------------------------------------------

 SCF Done:  E(RHF) =  -179.441437645     A.U. after    2 cycles

 The electronic state is 1-A'.
 Alpha  occ. eigenvalues --  -26.44434 -11.31577 -11.21743  -1.56776  -0.95506
 Alpha  occ. eigenvalues --   -0.94163  -0.68625  -0.68519  -0.66472  -0.55397
 Alpha  occ. eigenvalues --   -0.55019  -0.54915  -0.52063  -0.51980
 Alpha virt. eigenvalues --    0.03537   0.04058   0.05283   0.05738   0.06911
 Alpha virt. eigenvalues --    0.08384   0.09097   0.11431   0.13544   0.15208
 Alpha virt. eigenvalues --    0.16456   0.16656   0.17002   0.19366   0.22072

 Mulliken charges:
               1
     1  C   -0.314930
     2  H   -0.016638
     3  H    0.115576
     4  H    0.115576
     5  H    0.088607
     6  C    0.389451
     7  F   -0.653815
     8  H    0.114787
     9  H    0.114787
    10  H    0.046599
 Sum of Mulliken charges =   0.00000

 Dipole moment (field-independent basis, Debye):
    X=              1.5456    Y=              0.8541    Z=             -0.0000  Tot=              1.7659

 Test job not archived.
 1\1\GINC-SE461\SP\RHF\Aug-CC-pVDZ\C2H7F1\OHZDE\09-Apr-2025\0\\#t hf au
 g-cc-pvdz iop(5/13=1,5/36=2,99/5=2) pseudo=read geom=check guess=(read
 ,tcheck) scf=(maxcycle=1)\\title\\0,1\C,0,-1.01183,-1.97786,0.\H,0,-1.
 23943,-3.04123,0.\H,0,-0.43124,-1.72952,-0.88527\H,0,-0.43124,-1.72952
 ,0.88527\H,0,-1.94034,-1.41062,0.\C,0,-0.1067118,1.052001,0.\F,0,1.122
 2482,0.425571,0.\H,0,-0.6570718,0.752261,-0.89117\H,0,-0.6570718,0.752
 261,0.89117\H,0,0.0465582,2.130761,0.\\Version=ES64L-G16RevC.01\State=
 1-A'\HF=-179.4414376\RMSD=6.271e-03\Dipole=-0.6179127,0.3175993,0.\Qua

 Normal termination of Gaussian 16 at Wed Apr  9 03:03:33 2025.
