 Gaussian 16, Revision C.01,

 ----------------------------------------------------------------------
 #t hf aug-cc-pvdz symm=none int=(grid=ultrafine) guess=(read,tcheck) s
 table=(opt,rrhf)
 ----------------------------------------------------------------------
 -----
 title
 -----
 Symbolic Z-matrix:
 Charge =  0 Multiplicity = 1

 SCF Done:  E(RHF) =  -823.861294811     A.U. after   11 cycles
 Normal termination of Gaussian 16 at Wed Apr  9 03:03:00 2025.
 Gaussian 16:  ES64L-G16RevC.01  3-Jul-2019

 ----------------------------------------------------------------------
 #t hf aug-cc-pvdz iop(5/13=1,5/36=2,99/5=2) pseudo=read geom=check gue
 ss=(read,tcheck) scf=(maxcycle=1)
 ----------------------------------------------------------------------
 -----
 title
 -----
 Structure from the checkpoint file:  "F-set_c6f6_c6f6_090_dimer_mol2.chk"
 Charge =  0 Multiplicity = 1

                         Standard orientation:
 ---------------------------------------------------------------------
 Center     Atomic      Atomic             Coordinates (Angstroms)
 Number     Number       Type             X           Y           Z
 ---------------------------------------------------------------------
      1          6           0        1.384930    0.000502    0.000000
      2          6           0        0.692460    0.000452    1.199440
      3          6           0        0.692460    0.000452   -1.199440
      4          6           0       -0.692470    0.000311    1.199450
      5          6           0       -1.384910    0.000151   -0.000000
      6          6           0       -0.692470    0.000311   -1.199450
      7          9           0        1.353790   -0.000178    2.344730
      8          9           0       -1.353790   -0.000129    2.344700
      9          9           0       -2.707380   -0.000359   -0.000000
     10          9           0       -1.353790   -0.000129   -2.344700
     11          9           0        1.353790   -0.000178   -2.344730
     12          9           0        2.707380   -0.000478    0.000000
 ---------------------------------------------------------------------

 SCF Done:  E(RHF) =  -824.621846809     A.U. after    2 cycles

 The electronic state is 1-A'.
 Alpha  occ. eigenvalues --  -26.52882 -26.52879 -26.52879 -26.52878 -26.52878
 Alpha  occ. eigenvalues --  -26.52877 -11.39382 -11.39369 -11.39369 -11.39260
 Alpha  occ. eigenvalues --  -11.39259 -11.39248  -1.68243  -1.67370  -1.67368
 Alpha  occ. eigenvalues --   -1.65785  -1.65784  -1.64928  -1.23174  -1.08768
 Alpha  occ. eigenvalues --   -1.08765  -0.94304  -0.94304  -0.86972  -0.83288
 Alpha  occ. eigenvalues --   -0.81721  -0.77135  -0.77065  -0.77064  -0.76570
 Alpha  occ. eigenvalues --   -0.76570  -0.73717  -0.73717  -0.70689  -0.70688
 Alpha  occ. eigenvalues --   -0.69867  -0.68477  -0.68477  -0.67181  -0.62848
 Alpha  occ. eigenvalues --   -0.62847  -0.59592  -0.54220  -0.39256  -0.39253
 Alpha virt. eigenvalues --    0.05491   0.07078   0.07078   0.08683   0.08683
 Alpha virt. eigenvalues --    0.09085   0.09086   0.09509   0.11495   0.12061
 Alpha virt. eigenvalues --    0.12061   0.12867   0.14922   0.15256   0.15256

 Mulliken charges:
               1
     1  C    0.942072
     2  C    0.943770
     3  C    0.943770
     4  C    0.942301
     5  C    0.943577
     6  C    0.942301
     7  F   -0.943002
     8  F   -0.942881
     9  F   -0.943075
    10  F   -0.942881
    11  F   -0.943002
    12  F   -0.942949
 Sum of Mulliken charges =  -0.00000

 Dipole moment (field-independent basis, Debye):
    X=             -0.0001    Y=              0.0013    Z=              0.0000  Tot=              0.0013

 Test job not archived.
 1\1\GINC-SE339\SP\RHF\Aug-CC-pVDZ\C6F6\OHZDE\09-Apr-2025\0\\#t hf aug-
 cc-pvdz iop(5/13=1,5/36=2,99/5=2) pseudo=read geom=check guess=(read,t
 check) scf=(maxcycle=1)\\title\\0,1\C,0,-1.38493,-0.0005,0.\C,0,-0.692
 46,-0.00045,1.19944\C,0,-0.69246,-0.00045,-1.19944\C,0,0.69247,-0.0003
 1,1.19945\C,0,1.38491,-0.00015,0.\C,0,0.69247,-0.00031,-1.19945\F,0,-1
 .35379,0.00018,2.34473\F,0,1.35379,0.00013,2.3447\F,0,2.70738,0.00036,
 0.\F,0,1.35379,0.00013,-2.3447\F,0,-1.35379,0.00018,-2.34473\F,0,-2.70
 738,0.00048,0.\\Version=ES64L-G16RevC.01\State=1-A'\HF=-824.6218468\RM

 Normal termination of Gaussian 16 at Wed Apr  9 03:03:07 2025.
