 Gaussian 16, Revision C.01,

 ----------------------------------------------------------------------
 #t hf aug-cc-pvdz symm=none int=(grid=ultrafine) guess=(read,tcheck) s
 table=(opt,rrhf)
 ----------------------------------------------------------------------
 -----
 title
 -----
 Symbolic Z-matrix:
 Charge =  0 Multiplicity = 1

 SCF Done:  E(RHF) =  -1048.90024265     A.U. after   13 cycles
 Normal termination of Gaussian 16 at Wed Apr  9 03:04:58 2025.
 Gaussian 16:  ES64L-G16RevC.01  3-Jul-2019

 ----------------------------------------------------------------------
 #t hf aug-cc-pvdz iop(5/13=1,5/36=2,99/5=2) pseudo=read geom=check gue
 ss=(read,tcheck) scf=(maxcycle=1)
 ----------------------------------------------------------------------
 -----
 title
 -----
 Structure from the checkpoint file:  "F-set_cf3co2h_cf3co2h_125_dimer_mol1.chk"
 Charge =  0 Multiplicity = 1

                         Standard orientation:
 ---------------------------------------------------------------------
 Center     Atomic      Atomic             Coordinates (Angstroms)
 Number     Number       Type             X           Y           Z
 ---------------------------------------------------------------------
      1          6           0        0.009420    2.506291   -0.000009
      2          8           0        1.220953    2.044021    0.000121
      3          8           0       -1.016874    1.870151    0.000041
      4          6           0       -0.009420    4.057577   -0.000049
      5          1           0        1.214046    1.051345    0.000091
      6          9           0        0.613610    4.519469    1.081531
      7          9           0        0.615620    4.519526   -1.080449
      8          9           0       -1.250767    4.507753   -0.001199
      9          6           0       -0.009420   -2.506291   -0.000009
     10          8           0       -1.220953   -2.044021    0.000121
     11          8           0        1.016874   -1.870151    0.000041
     12          6           0        0.009420   -4.057577   -0.000049
     13          1           0       -1.214046   -1.051345    0.000091
     14          9           0        1.250767   -4.507753   -0.001199
     15          9           0       -0.613610   -4.519469    1.081531
     16          9           0       -0.615620   -4.519526   -1.080449
 ---------------------------------------------------------------------

 SCF Done:  E(RHF) =  -1049.87111967     A.U. after    2 cycles

 The electronic state is 1-A.
 Alpha  occ. eigenvalues --  -26.53444 -26.53444 -26.53441 -26.53441 -26.53141
 Alpha  occ. eigenvalues --  -26.53141 -20.65782 -20.65782 -20.59310 -20.59309
 Alpha  occ. eigenvalues --  -11.55427 -11.55427 -11.45447 -11.45444  -1.75259
 Alpha  occ. eigenvalues --   -1.75254  -1.64720  -1.64720  -1.64712  -1.64712
 Alpha  occ. eigenvalues --   -1.61314  -1.61274  -1.51024  -1.51007  -1.05012
 Alpha  occ. eigenvalues --   -1.04932  -0.92494  -0.92430  -0.85246  -0.85169
 Alpha  occ. eigenvalues --   -0.84513  -0.84512  -0.83011  -0.82994  -0.75946
 Alpha  occ. eigenvalues --   -0.75574  -0.72239  -0.72229  -0.71569  -0.71487
 Alpha  occ. eigenvalues --   -0.69195  -0.68984  -0.68219  -0.68187  -0.66448
 Alpha  occ. eigenvalues --   -0.66446  -0.65834  -0.65820  -0.64517  -0.64517
 Alpha  occ. eigenvalues --   -0.60657  -0.60489  -0.52439  -0.52361  -0.50385
 Alpha  occ. eigenvalues --   -0.49850
 Alpha virt. eigenvalues --    0.03723   0.05387   0.07263   0.07390   0.07713
 Alpha virt. eigenvalues --    0.08993   0.09440   0.09530   0.10307   0.11056
 Alpha virt. eigenvalues --    0.11077   0.12176   0.12764   0.14295   0.15014

 Mulliken charges:
               1
     1  C    1.216950
     2  O   -1.181181
     3  O   -1.050609
     4  C    2.656995
     5  H    0.478990
     6  F   -0.687698
     7  F   -0.687703
     8  F   -0.745744
     9  C    1.216950
    10  O   -1.181181
    11  O   -1.050609
    12  C    2.656995
    13  H    0.478990
    14  F   -0.745744
    15  F   -0.687698
    16  F   -0.687703
 Sum of Mulliken charges =  -0.00000

 Dipole moment (field-independent basis, Debye):
    X=              0.0000    Y=              0.0000    Z=             -0.0004  Tot=              0.0004

 Test job not archived.
 1\1\GINC-SE127\SP\RHF\Aug-CC-pVDZ\C4H2F6O4\OHZDE\09-Apr-2025\0\\#t hf
 aug-cc-pvdz iop(5/13=1,5/36=2,99/5=2) pseudo=read geom=check guess=(re
 ad,tcheck) scf=(maxcycle=1)\\title\\0,1\C,0,-0.00078,1.87956,-0.00001\
 O,0,1.20457,1.4014,0.00012\O,0,-1.03535,1.25697,0.00004\C,0,0.00078,3.
 43096,-0.00005\H,0,1.18461,0.4089,0.00009\F,0,0.62983,3.88462,1.08153\
 F,0,0.63184,3.88465,-1.08045\F,0,-1.23454,3.89742,-0.0012\C,0,-0.08553
 ,-3.13234,-0.00001\O,0,-1.29088,-2.65418,0.00012\O,0,0.94904,-2.50975,
 0.00004\C,0,-0.08709,-4.68374,-0.00005\H,0,-1.27092,-1.66168,0.00009\F

 Normal termination of Gaussian 16 at Wed Apr  9 03:05:10 2025.
