 Gaussian 16, Revision C.01,

 ----------------------------------------------------------------------
 #t hf aug-cc-pvdz symm=none int=(grid=ultrafine) guess=(read,tcheck) s
 table=(opt,rrhf)
 ----------------------------------------------------------------------
 -----
 title
 -----
 Symbolic Z-matrix:
 Charge =  0 Multiplicity = 1

 SCF Done:  E(RHF) =  -823.412665370     A.U. after   11 cycles
 Normal termination of Gaussian 16 at Wed Apr  9 03:03:50 2025.
 Gaussian 16:  ES64L-G16RevC.01  3-Jul-2019

 ----------------------------------------------------------------------
 #t hf aug-cc-pvdz iop(5/13=1,5/36=2,99/5=2) pseudo=read geom=check gue
 ss=(read,tcheck) scf=(maxcycle=1)
 ----------------------------------------------------------------------
 -----
 title
 -----
 Structure from the checkpoint file:  "F-set_cf3oh_cf3oh_150_dimer_mol1.chk"
 Charge =  0 Multiplicity = 1

                         Standard orientation:
 ---------------------------------------------------------------------
 Center     Atomic      Atomic             Coordinates (Angstroms)
 Number     Number       Type             X           Y           Z
 ---------------------------------------------------------------------
      1          6           0        3.093415    0.035231    0.002160
      2          8           0        2.540807    1.194378   -0.352648
      3          9           0        2.811785   -0.953365   -0.877519
      4          9           0        4.404565    0.173640    0.058169
      5          9           0        2.661767   -0.401828    1.195041
      6          1           0        1.587875    1.067430   -0.454581
      7          8           0       -1.987388   -0.003731   -0.801757
      8          6           0       -3.078488    0.011382    0.000352
      9          1           0       -1.834958   -0.888673   -1.144108
     10          9           0       -2.974643   -0.871046    0.993426
     11          9           0       -4.188972   -0.279600   -0.676004
     12          9           0       -3.188927    1.222908    0.508984
 ---------------------------------------------------------------------

 SCF Done:  E(RHF) =  -824.173412406     A.U. after    2 cycles

 The electronic state is 1-A.
 Alpha  occ. eigenvalues --  -26.52864 -26.52749 -26.52574 -26.52155 -26.51654
 Alpha  occ. eigenvalues --  -26.51531 -20.63268 -20.62910 -11.58772 -11.58017
 Alpha  occ. eigenvalues --   -1.76105  -1.74899  -1.64750  -1.64141  -1.63676
 Alpha  occ. eigenvalues --   -1.62532  -1.55105  -1.54840  -0.97852  -0.96920
 Alpha  occ. eigenvalues --   -0.87591  -0.86730  -0.85175  -0.84477  -0.83994
 Alpha  occ. eigenvalues --   -0.83427  -0.72858  -0.71910  -0.71546  -0.70577
 Alpha  occ. eigenvalues --   -0.68551  -0.67936  -0.66064  -0.65817  -0.65006
 Alpha  occ. eigenvalues --   -0.64746  -0.64148  -0.63144  -0.61803  -0.61541
 Alpha  occ. eigenvalues --   -0.56749  -0.56256
 Alpha virt. eigenvalues --    0.02845   0.05177   0.08080   0.08645   0.09206
 Alpha virt. eigenvalues --    0.09800   0.09909   0.12097   0.13163   0.13765
 Alpha virt. eigenvalues --    0.16075   0.17760   0.19438   0.21115   0.22085

 Mulliken charges:
               1
     1  C    2.819622
     2  O   -1.123347
     3  F   -0.687004
     4  F   -0.668589
     5  F   -0.674628
     6  H    0.331393
     7  O   -1.119259
     8  C    2.815221
     9  H    0.313867
    10  F   -0.670922
    11  F   -0.673495
    12  F   -0.662859
 Sum of Mulliken charges =  -0.00000

 Dipole moment (field-independent basis, Debye):
    X=             -1.2565    Y=             -0.9572    Z=             -1.2324  Tot=              2.0035

 Test job not archived.
 1\1\GINC-SE365\SP\RHF\Aug-CC-pVDZ\C2H2F6O2\OHZDE\09-Apr-2025\0\\#t hf
 aug-cc-pvdz iop(5/13=1,5/36=2,99/5=2) pseudo=read geom=check guess=(re
 ad,tcheck) scf=(maxcycle=1)\\title\\0,1\C,0,2.13896,0.0375,0.00421\O,0
 ,1.55972,1.18917,-0.33198\F,0,1.89162,-0.93932,-0.89863\F,0,3.44546,0.
 20858,0.07631\F,0,1.70749,-0.43559,1.18333\H,0,0.61144,1.03978,-0.4461
 4\O,0,-2.9311925,-0.11599167,-0.8515675\C,0,-4.0299225,-0.14600167,-0.
 0603675\H,0,-2.7524725,-0.98929167,-1.2106875\F,0,-3.9125825,-1.046151
 67,0.9151425\F,0,-5.1259325,-0.45132167,-0.7537975\F,0,-4.1767725,1.05

 Normal termination of Gaussian 16 at Wed Apr  9 03:03:55 2025.
