 Gaussian 16, Revision C.01,

 ----------------------------------------------------------------------
 #t hf aug-cc-pvdz symm=none int=(grid=ultrafine) guess=(read,tcheck) s
 table=(opt,rrhf)
 ----------------------------------------------------------------------
 -----
 title
 -----
 Symbolic Z-matrix:
 Charge =  0 Multiplicity = 1

 SCF Done:  E(RHF) =  -179.256729933     A.U. after   11 cycles
 Normal termination of Gaussian 16 at Wed Apr  9 03:04:05 2025.
 Gaussian 16:  ES64L-G16RevC.01  3-Jul-2019

 ----------------------------------------------------------------------
 #t hf aug-cc-pvdz iop(5/13=1,5/36=2,99/5=2) pseudo=read geom=check gue
 ss=(read,tcheck) scf=(maxcycle=1)
 ----------------------------------------------------------------------
 -----
 title
 -----
 Structure from the checkpoint file:  "F-set_ch4_ch3f_100_dimer_mol1.chk"
 Charge =  0 Multiplicity = 1

                         Standard orientation:
 ---------------------------------------------------------------------
 Center     Atomic      Atomic             Coordinates (Angstroms)
 Number     Number       Type             X           Y           Z
 ---------------------------------------------------------------------
      1          6           0        1.011827   -1.977862    0.000000
      2          1           0        1.239425   -3.041232    0.000000
      3          1           0        0.431237   -1.729521    0.885270
      4          1           0        0.431237   -1.729521   -0.885270
      5          1           0        1.940337   -1.410623    0.000000
      6          6           0       -0.000000    1.385369    0.000000
      7          9           0       -1.228961    0.758941    0.000000
      8          1           0        0.550360    1.085629    0.891170
      9          1           0        0.550360    1.085629   -0.891170
     10          1           0       -0.153269    2.464129    0.000000
 ---------------------------------------------------------------------

 SCF Done:  E(RHF) =  -179.443999195     A.U. after    2 cycles

 The electronic state is 1-A'.
 Alpha  occ. eigenvalues --  -26.44459 -11.31698 -11.21827  -1.56778  -0.95176
 Alpha  occ. eigenvalues --   -0.94476  -0.68561  -0.68497  -0.66492  -0.55223
 Alpha  occ. eigenvalues --   -0.55056  -0.54969  -0.52161  -0.52145
 Alpha virt. eigenvalues --    0.03512   0.04078   0.05358   0.05742   0.06789
 Alpha virt. eigenvalues --    0.08241   0.08928   0.11247   0.13709   0.15130
 Alpha virt. eigenvalues --    0.16205   0.16409   0.17147   0.19053   0.21953

 Mulliken charges:
               1
     1  C   -0.284992
     2  H    0.010326
     3  H    0.092753
     4  H    0.092753
     5  H    0.079780
     6  C    0.388871
     7  F   -0.650754
     8  H    0.102232
     9  H    0.102232
    10  H    0.066800
 Sum of Mulliken charges =   0.00000

 Dipole moment (field-independent basis, Debye):
    X=              1.5930    Y=              0.8155    Z=              0.0000  Tot=              1.7896

 Test job not archived.
 1\1\GINC-SE049\SP\RHF\Aug-CC-pVDZ\C2H7F1\OHZDE\09-Apr-2025\0\\#t hf au
 g-cc-pvdz iop(5/13=1,5/36=2,99/5=2) pseudo=read geom=check guess=(read
 ,tcheck) scf=(maxcycle=1)\\title\\0,1\C,0,-1.01183,-1.97786,0.\H,0,-1.
 23943,-3.04123,0.\H,0,-0.43124,-1.72952,-0.88527\H,0,-0.43124,-1.72952
 ,0.88527\H,0,-1.94034,-1.41062,0.\C,0,0.,1.38537,0.\F,0,1.22896,0.7589
 4,0.\H,0,-0.55036,1.08563,-0.89117\H,0,-0.55036,1.08563,0.89117\H,0,0.
 15327,2.46413,0.\\Version=ES64L-G16RevC.01\State=1-A'\HF=-179.4439992\
 RMSD=6.036e-03\Dipole=-0.6267361,0.3208352,0.\Quadrupole=-1.7851387,1.

 Normal termination of Gaussian 16 at Wed Apr  9 03:04:09 2025.
