 Gaussian 16, Revision C.01,

 ----------------------------------------------------------------------
 #t hf aug-cc-pvdz symm=none int=(grid=ultrafine) guess=(read,tcheck) s
 table=(opt,rrhf)
 ----------------------------------------------------------------------
 -----
 title
 -----
 Symbolic Z-matrix:
 Charge =  0 Multiplicity = 1

 SCF Done:  E(RHF) =  -278.113528038     A.U. after   10 cycles
 Normal termination of Gaussian 16 at Wed Apr  9 03:03:33 2025.
 Gaussian 16:  ES64L-G16RevC.01  3-Jul-2019

 ----------------------------------------------------------------------
 #t hf aug-cc-pvdz iop(5/13=1,5/36=2,99/5=2) pseudo=read geom=check gue
 ss=(read,tcheck) scf=(maxcycle=1)
 ----------------------------------------------------------------------
 -----
 title
 -----
 Structure from the checkpoint file:  "F-set_ch3f_ch3f_090_dimer_mol1.chk"
 Charge =  0 Multiplicity = 1

                         Standard orientation:
 ---------------------------------------------------------------------
 Center     Atomic      Atomic             Coordinates (Angstroms)
 Number     Number       Type             X           Y           Z
 ---------------------------------------------------------------------
      1          6           0       -1.500557    0.916784    0.000000
      2          1           0       -0.469517    1.267012    0.000000
      3          1           0       -2.016077    1.267013    0.892907
      4          1           0       -2.016077    1.267013   -0.892907
      5          9           0       -1.500557   -0.466216    0.000000
      6          6           0        1.500557   -0.916784    0.000000
      7          1           0        0.469517   -1.267012    0.000000
      8          9           0        1.500557    0.466216    0.000000
      9          1           0        2.016077   -1.267013   -0.892907
     10          1           0        2.016077   -1.267013    0.892907
 ---------------------------------------------------------------------

 SCF Done:  E(RHF) =  -278.387786608     A.U. after    2 cycles

 The electronic state is 1-AG.
 Alpha  occ. eigenvalues --  -26.44465 -26.44465 -11.30767 -11.30766  -1.57065
 Alpha  occ. eigenvalues --   -1.56620  -0.94902  -0.94088  -0.70923  -0.68491
 Alpha  occ. eigenvalues --   -0.68054  -0.66680  -0.66677  -0.64988  -0.54019
 Alpha  occ. eigenvalues --   -0.52119  -0.51861  -0.49587
 Alpha virt. eigenvalues --    0.04006   0.04224   0.04973   0.06392   0.06709
 Alpha virt. eigenvalues --    0.08142   0.10788   0.13914   0.14193   0.14996
 Alpha virt. eigenvalues --    0.15747   0.17281   0.18562   0.19482   0.25673

 Mulliken charges:
               1
     1  C    0.428316
     2  H    0.074904
     3  H    0.095731
     4  H    0.095731
     5  F   -0.694683
     6  C    0.428316
     7  H    0.074904
     8  F   -0.694683
     9  H    0.095731
    10  H    0.095731
 Sum of Mulliken charges =   0.00000

 Dipole moment (field-independent basis, Debye):
    X=              0.0000    Y=              0.0000    Z=              0.0000  Tot=              0.0000

 Test job not archived.
 1\1\GINC-SE073\SP\RHF\Aug-CC-pVDZ\C2H6F2\OHZDE\09-Apr-2025\0\\#t hf au
 g-cc-pvdz iop(5/13=1,5/36=2,99/5=2) pseudo=read geom=check guess=(read
 ,tcheck) scf=(maxcycle=1)\\title\\0,1\C,0,-1.667286,1.011264,0.\H,0,-0
 .636246,1.361492,0.\H,0,-2.182806,1.361493,0.892907\H,0,-2.182806,1.36
 1493,-0.892907\F,0,-1.667286,-0.371736,0.\C,0,1.3338288,-0.82230376,0.
 \H,0,0.3027888,-1.17253176,0.\F,0,1.3338288,0.56069624,0.\H,0,1.849348
 8,-1.17253276,-0.892907\H,0,1.8493488,-1.17253276,0.892907\\Version=ES
 64L-G16RevC.01\State=1-AG\HF=-278.3877866\RMSD=5.025e-03\Dipole=0.,0.,

 Normal termination of Gaussian 16 at Wed Apr  9 03:03:35 2025.
