 Gaussian 16, Revision C.01,

 ----------------------------------------------------------------------
 #t hf aug-cc-pvdz symm=none int=(grid=ultrafine) guess=(read,tcheck) s
 table=(opt,rrhf)
 ----------------------------------------------------------------------
 -----
 title
 -----
 Symbolic Z-matrix:
 Charge =  0 Multiplicity = 1

 SCF Done:  E(RHF) =  -1048.85379454     A.U. after   13 cycles
 Normal termination of Gaussian 16 at Wed Apr  9 03:04:48 2025.
 Gaussian 16:  ES64L-G16RevC.01  3-Jul-2019

 ----------------------------------------------------------------------
 #t hf aug-cc-pvdz iop(5/13=1,5/36=2,99/5=2) pseudo=read geom=check gue
 ss=(read,tcheck) scf=(maxcycle=1)
 ----------------------------------------------------------------------
 -----
 title
 -----
 Structure from the checkpoint file:  "F-set_cf3co2h_cf3co2h_090_dimer_mol1.chk"
 Charge =  0 Multiplicity = 1

                         Standard orientation:
 ---------------------------------------------------------------------
 Center     Atomic      Atomic             Coordinates (Angstroms)
 Number     Number       Type             X           Y           Z
 ---------------------------------------------------------------------
      1          6           0        0.003856    1.629099   -0.000009
      2          8           0        1.202670    1.134781    0.000121
      3          8           0       -1.038989    1.020472    0.000041
      4          6           0        0.026269    3.180338   -0.000049
      5          1           0        1.169371    0.142639    0.000091
      6          9           0        0.661360    3.625502    1.081531
      7          9           0        0.663370    3.625505   -1.080449
      8          9           0       -1.202670    3.663361   -0.001199
      9          6           0       -0.003856   -1.629099   -0.000009
     10          8           0       -1.202670   -1.134781    0.000121
     11          8           0        1.038989   -1.020472    0.000041
     12          6           0       -0.026269   -3.180338   -0.000049
     13          1           0       -1.169371   -0.142639    0.000091
     14          9           0        1.202670   -3.663361   -0.001199
     15          9           0       -0.661360   -3.625502    1.081531
     16          9           0       -0.663370   -3.625505   -1.080449
 ---------------------------------------------------------------------

 SCF Done:  E(RHF) =  -1049.82755944     A.U. after    2 cycles

 The electronic state is 1-A.
 Alpha  occ. eigenvalues --  -26.53720 -26.53720 -26.53717 -26.53717 -26.53615
 Alpha  occ. eigenvalues --  -26.53615 -20.61164 -20.61161 -20.60764 -20.60762
 Alpha  occ. eigenvalues --  -11.55820 -11.55818 -11.47261 -11.47256  -1.75634
 Alpha  occ. eigenvalues --   -1.75559  -1.65169  -1.65139  -1.65081  -1.64934
 Alpha  occ. eigenvalues --   -1.64932  -1.59664  -1.56718  -1.50480  -1.08562
 Alpha  occ. eigenvalues --   -1.04238  -0.95328  -0.92858  -0.90744  -0.85689
 Alpha  occ. eigenvalues --   -0.84834  -0.84792  -0.84702  -0.83892  -0.80088
 Alpha  occ. eigenvalues --   -0.75266  -0.72821  -0.72366  -0.72193  -0.71503
 Alpha  occ. eigenvalues --   -0.70636  -0.69627  -0.67796  -0.67285  -0.66800
 Alpha  occ. eigenvalues --   -0.66762  -0.66389  -0.65516  -0.64846  -0.64825
 Alpha  occ. eigenvalues --   -0.61162  -0.60619  -0.55451  -0.52035  -0.51285
 Alpha  occ. eigenvalues --   -0.49248
 Alpha virt. eigenvalues --    0.04266   0.05635   0.05935   0.07300   0.07484
 Alpha virt. eigenvalues --    0.08346   0.08884   0.09720   0.11466   0.12047
 Alpha virt. eigenvalues --    0.12090   0.12107   0.12553   0.16907   0.17213

 Mulliken charges:
               1
     1  C    1.210397
     2  O   -1.426012
     3  O   -1.429464
     4  C    2.945012
     5  H    0.951881
     6  F   -0.727703
     7  F   -0.727740
     8  F   -0.796371
     9  C    1.210397
    10  O   -1.426012
    11  O   -1.429464
    12  C    2.945012
    13  H    0.951881
    14  F   -0.796371
    15  F   -0.727703
    16  F   -0.727740
 Sum of Mulliken charges =  -0.00000

 Dipole moment (field-independent basis, Debye):
    X=             -0.0000    Y=             -0.0000    Z=             -0.0004  Tot=              0.0004

 Test job not archived.
 1\1\GINC-SE131\SP\RHF\Aug-CC-pVDZ\C4H2F6O4\OHZDE\09-Apr-2025\0\\#t hf
 aug-cc-pvdz iop(5/13=1,5/36=2,99/5=2) pseudo=read geom=check guess=(re
 ad,tcheck) scf=(maxcycle=1)\\title\\0,1\C,0,-0.00078,1.87956,-0.00001\
 O,0,1.20457,1.4014,0.00012\O,0,-1.03535,1.25697,0.00004\C,0,0.00078,3.
 43096,-0.00005\H,0,1.18461,0.4089,0.00009\F,0,0.62983,3.88462,1.08153\
 F,0,0.63184,3.88465,-1.08045\F,0,-1.23454,3.89742,-0.0012\C,0,0.035304
 ,-1.378448,-0.00001\O,0,-1.170046,-0.900288,0.00012\O,0,1.069874,-0.75
 5858,0.00004\C,0,0.033744,-2.929848,-0.00005\H,0,-1.150086,0.092212,0.

 Normal termination of Gaussian 16 at Wed Apr  9 03:05:11 2025.
