 Gaussian 16, Revision C.01,

 ----------------------------------------------------------------------
 #t hf aug-cc-pvdz symm=none int=(grid=ultrafine) guess=(read,tcheck) s
 table=(opt,rrhf)
 ----------------------------------------------------------------------
 -----
 title
 -----
 Symbolic Z-matrix:
 Charge =  0 Multiplicity = 1

 SCF Done:  E(RHF) =  -1048.91524780     A.U. after   13 cycles
 Normal termination of Gaussian 16 at Wed Apr  9 03:05:04 2025.
 Gaussian 16:  ES64L-G16RevC.01  3-Jul-2019

 ----------------------------------------------------------------------
 #t hf aug-cc-pvdz iop(5/13=1,5/36=2,99/5=2) pseudo=read geom=check gue
 ss=(read,tcheck) scf=(maxcycle=1)
 ----------------------------------------------------------------------
 -----
 title
 -----
 Structure from the checkpoint file:  "F-set_cf3co2h_cf3co2h_100_dimer_mol1.chk"
 Charge =  0 Multiplicity = 1

                         Standard orientation:
 ---------------------------------------------------------------------
 Center     Atomic      Atomic             Coordinates (Angstroms)
 Number     Number       Type             X           Y           Z
 ---------------------------------------------------------------------
      1          6           0       -0.000780    1.879560   -0.000009
      2          8           0        1.204570    1.401400    0.000121
      3          8           0       -1.035350    1.256970    0.000041
      4          6           0        0.000780    3.430960   -0.000049
      5          1           0        1.184610    0.408900    0.000091
      6          9           0        0.629830    3.884620    1.081531
      7          9           0        0.631840    3.884650   -1.080449
      8          9           0       -1.234540    3.897420   -0.001199
      9          6           0        0.000780   -1.879560   -0.000009
     10          8           0       -1.204570   -1.401400    0.000121
     11          8           0        1.035350   -1.256970    0.000041
     12          6           0       -0.000780   -3.430960   -0.000049
     13          1           0       -1.184610   -0.408900    0.000091
     14          9           0        1.234540   -3.897420   -0.001199
     15          9           0       -0.629830   -3.884620    1.081531
     16          9           0       -0.631840   -3.884650   -1.080449
 ---------------------------------------------------------------------

 SCF Done:  E(RHF) =  -1049.88672533     A.U. after    2 cycles

 The electronic state is 1-A.
 Alpha  occ. eigenvalues --  -26.53700 -26.53700 -26.53697 -26.53697 -26.53496
 Alpha  occ. eigenvalues --  -26.53496 -20.64256 -20.64255 -20.60613 -20.60613
 Alpha  occ. eigenvalues --  -11.55769 -11.55769 -11.46519 -11.46516  -1.75574
 Alpha  occ. eigenvalues --   -1.75513  -1.65047  -1.65034  -1.64942  -1.64940
 Alpha  occ. eigenvalues --   -1.61929  -1.60686  -1.52994  -1.51644  -1.06141
 Alpha  occ. eigenvalues --   -1.04783  -0.93316  -0.92045  -0.86375  -0.85091
 Alpha  occ. eigenvalues --   -0.84783  -0.84767  -0.83526  -0.82947  -0.79671
 Alpha  occ. eigenvalues --   -0.74554  -0.72900  -0.72521  -0.72338  -0.71547
 Alpha  occ. eigenvalues --   -0.70642  -0.68706  -0.68300  -0.68119  -0.66750
 Alpha  occ. eigenvalues --   -0.66745  -0.66141  -0.65841  -0.64791  -0.64783
 Alpha  occ. eigenvalues --   -0.61289  -0.60426  -0.53870  -0.52534  -0.52289
 Alpha  occ. eigenvalues --   -0.50392
 Alpha virt. eigenvalues --    0.04251   0.05724   0.06122   0.07491   0.07606
 Alpha virt. eigenvalues --    0.08887   0.09016   0.09654   0.11173   0.11795
 Alpha virt. eigenvalues --    0.12003   0.12139   0.12557   0.16469   0.16634

 Mulliken charges:
               1
     1  C    1.092321
     2  O   -1.303337
     3  O   -1.217546
     4  C    2.889862
     5  H    0.741382
     6  F   -0.710956
     7  F   -0.710970
     8  F   -0.780756
     9  C    1.092321
    10  O   -1.303337
    11  O   -1.217546
    12  C    2.889862
    13  H    0.741382
    14  F   -0.780756
    15  F   -0.710956
    16  F   -0.710970
 Sum of Mulliken charges =  -0.00000

 Dipole moment (field-independent basis, Debye):
    X=              0.0000    Y=             -0.0000    Z=             -0.0004  Tot=              0.0004

 Test job not archived.
 1\1\GINC-SE108\SP\RHF\Aug-CC-pVDZ\C4H2F6O4\OHZDE\09-Apr-2025\0\\#t hf
 aug-cc-pvdz iop(5/13=1,5/36=2,99/5=2) pseudo=read geom=check guess=(re
 ad,tcheck) scf=(maxcycle=1)\\title\\0,1\C,0,-0.00078,1.87956,-0.00001\
 O,0,1.20457,1.4014,0.00012\O,0,-1.03535,1.25697,0.00004\C,0,0.00078,3.
 43096,-0.00005\H,0,1.18461,0.4089,0.00009\F,0,0.62983,3.88462,1.08153\
 F,0,0.63184,3.88465,-1.08045\F,0,-1.23454,3.89742,-0.0012\C,0,0.00078,
 -1.87956,-0.00001\O,0,-1.20457,-1.4014,0.00012\O,0,1.03535,-1.25697,0.
 00004\C,0,-0.00078,-3.43096,-0.00005\H,0,-1.18461,-0.4089,0.00009\F,0,

 Normal termination of Gaussian 16 at Wed Apr  9 03:05:10 2025.
