 Gaussian 16, Revision C.01,

 ----------------------------------------------------------------------
 #t hf aug-cc-pvdz symm=none int=(grid=ultrafine) guess=(read,tcheck) s
 table=(opt,rrhf)
 ----------------------------------------------------------------------
 -----
 title
 -----
 Symbolic Z-matrix:
 Charge =  0 Multiplicity = 1

 SCF Done:  E(RHF) =  -369.784175875     A.U. after   13 cycles
 Normal termination of Gaussian 16 at Wed Apr  9 03:03:47 2025.
 Gaussian 16:  ES64L-G16RevC.01  3-Jul-2019

 ----------------------------------------------------------------------
 #t hf aug-cc-pvdz iop(5/13=1,5/36=2,99/5=2) pseudo=read geom=check gue
 ss=(read,tcheck) scf=(maxcycle=1)
 ----------------------------------------------------------------------
 -----
 title
 -----
 Structure from the checkpoint file:  "F-set_c6h6_ch3f_095_dimer_mol1.chk"
 Charge =  0 Multiplicity = 1

                         Standard orientation:
 ---------------------------------------------------------------------
 Center     Atomic      Atomic             Coordinates (Angstroms)
 Number     Number       Type             X           Y           Z
 ---------------------------------------------------------------------
      1          6           0        1.226428   -0.673160   -1.201307
      2          6           0        1.070340    0.704873   -1.199783
      3          6           0        1.301346   -1.363767   -0.000768
      4          1           0        1.289049   -1.209290   -2.138266
      5          6           0        0.989150    1.392389    0.002169
      6          1           0        1.012378    1.243436   -2.135815
      7          6           0        1.220336   -0.676412    1.201244
      8          1           0        1.422359   -2.438302   -0.001906
      9          6           0        1.064268    0.701621    1.202648
     10          1           0        0.869198    2.467270    0.003327
     11          1           0        1.278197   -1.215044    2.137076
     12          1           0        1.001636    1.237702    2.139827
     13          6           0       -2.112845    0.260083    0.000599
     14          1           0       -2.037357    0.870919    0.899385
     15          1           0       -1.316667   -0.482642   -0.009426
     16          1           0       -2.040916    0.891249   -0.884322
     17          9           0       -3.336890   -0.382118   -0.004299
 ---------------------------------------------------------------------

 SCF Done:  E(RHF) =  -370.162983000     A.U. after    2 cycles

 The electronic state is 1-A.
 Alpha  occ. eigenvalues --  -26.43084 -11.29973 -11.25057 -11.25011 -11.25000
 Alpha  occ. eigenvalues --  -11.24936 -11.24888 -11.24884  -1.55336  -1.16710
 Alpha  occ. eigenvalues --   -1.02819  -1.02802  -0.93505  -0.84242  -0.84242
 Alpha  occ. eigenvalues --   -0.73431  -0.67029  -0.67027  -0.65752  -0.65197
 Alpha  occ. eigenvalues --   -0.64885  -0.61016  -0.61012  -0.52965  -0.51457
 Alpha  occ. eigenvalues --   -0.51451  -0.50851  -0.49971  -0.35764  -0.35691
 Alpha virt. eigenvalues --    0.03197   0.03310   0.03436   0.05030   0.05039
 Alpha virt. eigenvalues --    0.05374   0.07382   0.07650   0.07860   0.09503
 Alpha virt. eigenvalues --    0.09629   0.11290   0.13281   0.13713   0.13761

 Mulliken charges:
               1
     1  C    0.252880
     2  C    0.157238
     3  C    0.195226
     4  H   -0.225957
     5  C    0.309485
     6  H   -0.241594
     7  C    0.250094
     8  H   -0.228114
     9  C    0.159944
    10  H   -0.245281
    11  H   -0.225983
    12  H   -0.242255
    13  C    0.452427
    14  H    0.124873
    15  H    0.076890
    16  H    0.124237
    17  F   -0.694110
 Sum of Mulliken charges =  -0.00000

 Dipole moment (field-independent basis, Debye):
    X=              2.0881    Y=              0.7820    Z=              0.0063  Tot=              2.2297

 Test job not archived.
 1\1\GINC-SE186\SP\RHF\Aug-CC-pVDZ\C7H9F1\OHZDE\09-Apr-2025\0\\#t hf au
 g-cc-pvdz iop(5/13=1,5/36=2,99/5=2) pseudo=read geom=check guess=(read
 ,tcheck) scf=(maxcycle=1)\\title\\0,1\C,0,1.28077,-0.67224,-1.2016\C,0
 ,1.12048,0.70531,-1.19956\C,0,1.35784,-1.36306,-0.00132\H,0,1.34499,-1
 .20783,-2.13876\C,0,1.03724,1.39213,0.00265\H,0,1.06084,1.24404,-2.135
 39\C,0,1.27478,-0.6764,1.20095\H,0,1.48213,-2.43722,-0.00286\C,0,1.114
 51,0.70115,1.20287\H,0,0.91401,2.46664,0.00421\H,0,1.33432,-1.2152,2.1
 3658\H,0,1.05028,1.23669,2.14025\C,0,-2.06128777,0.25036934,0.00077592

 Normal termination of Gaussian 16 at Wed Apr  9 03:03:54 2025.
