 Gaussian 16, Revision C.01,

 ----------------------------------------------------------------------
 #t hf aug-cc-pvdz symm=none int=(grid=ultrafine) guess=(read,tcheck) s
 table=(opt,rrhf)
 ----------------------------------------------------------------------
 -----
 title
 -----
 Symbolic Z-matrix:
 Charge =  0 Multiplicity = 1

 SCF Done:  E(RHF) =  -666.421232347     A.U. after   14 cycles
 Normal termination of Gaussian 16 at Wed Apr  9 03:03:40 2025.
 Gaussian 16:  ES64L-G16RevC.01  3-Jul-2019

 ----------------------------------------------------------------------
 #t hf aug-cc-pvdz iop(5/13=1,5/36=2,99/5=2) pseudo=read geom=check gue
 ss=(read,tcheck) scf=(maxcycle=1)
 ----------------------------------------------------------------------
 -----
 title
 -----
 Structure from the checkpoint file:  "F-set_c6h6_cf4_095_dimer_mol1.chk"
 Charge =  0 Multiplicity = 1

                         Standard orientation:
 ---------------------------------------------------------------------
 Center     Atomic      Atomic             Coordinates (Angstroms)
 Number     Number       Type             X           Y           Z
 ---------------------------------------------------------------------
      1          6           0       -2.141973   -1.167205   -0.592542
      2          6           0       -1.660141   -1.231981    0.706037
      3          6           0       -2.363494    0.064817   -1.189097
      4          1           0       -2.343773   -2.077553   -1.140401
      5          6           0       -1.399961   -0.064714    1.408043
      6          1           0       -1.484304   -2.192563    1.170616
      7          6           0       -2.102697    1.232004   -0.487405
      8          1           0       -2.737998    0.115332   -2.202395
      9          6           0       -1.620985    1.167289    0.811245
     10          1           0       -1.021248   -0.115278    2.419794
     11          1           0       -2.273653    2.192826   -0.953356
     12          1           0       -1.414323    2.077346    1.357633
     13          6           0        1.877022   -0.000033   -0.109930
     14          9           0        3.109931   -0.002464   -0.585487
     15          9           0        1.023263   -0.000487   -1.110137
     16          9           0        1.698674    1.078275    0.627743
     17          9           0        1.695761   -1.075455    0.631214
 ---------------------------------------------------------------------

 SCF Done:  E(RHF) =  -667.057374647     A.U. after    2 cycles

 The electronic state is 1-A.
 Alpha  occ. eigenvalues --  -26.53287 -26.53260 -26.53256 -26.53031 -11.61364
 Alpha  occ. eigenvalues --  -11.24082 -11.24058 -11.24053 -11.23959 -11.23947
 Alpha  occ. eigenvalues --  -11.23939  -1.78586  -1.65321  -1.65288  -1.65235
 Alpha  occ. eigenvalues --   -1.15676  -1.01899  -1.01896  -0.98430  -0.87072
 Alpha  occ. eigenvalues --   -0.87042  -0.86982  -0.83370  -0.83362  -0.73399
 Alpha  occ. eigenvalues --   -0.73350  -0.72490  -0.67749  -0.67683  -0.67652
 Alpha  occ. eigenvalues --   -0.64891  -0.64608  -0.64491  -0.64490  -0.63957
 Alpha  occ. eigenvalues --   -0.60098  -0.60095  -0.51301  -0.50574  -0.50567
 Alpha  occ. eigenvalues --   -0.34778  -0.34756
 Alpha virt. eigenvalues --    0.03687   0.03886   0.03954   0.05391   0.05418
 Alpha virt. eigenvalues --    0.07812   0.08355   0.10161   0.10318   0.10557
 Alpha virt. eigenvalues --    0.10634   0.11429   0.13714   0.14226   0.14659

 Mulliken charges:
               1
     1  C    0.084327
     2  C    0.328592
     3  C    0.361107
     4  H   -0.231665
     5  C    0.247146
     6  H   -0.264347
     7  C    0.068807
     8  H   -0.239423
     9  C    0.371272
    10  H   -0.293645
    11  H   -0.232433
    12  H   -0.269389
    13  C    2.666279
    14  F   -0.655175
    15  F   -0.646217
    16  F   -0.647397
    17  F   -0.647841
 Sum of Mulliken charges =  -0.00000

 Dipole moment (field-independent basis, Debye):
    X=             -0.0880    Y=             -0.0001    Z=             -0.0533  Tot=              0.1029

 Test job not archived.
 1\1\GINC-SE456\SP\RHF\Aug-CC-pVDZ\C7H6F4\OHZDE\09-Apr-2025\0\\#t hf au
 g-cc-pvdz iop(5/13=1,5/36=2,99/5=2) pseudo=read geom=check guess=(read
 ,tcheck) scf=(maxcycle=1)\\title\\0,1\C,0,2.23711,-1.16721,0.60128\C,0
 ,1.76369,-1.23198,-0.70039\C,0,2.45477,0.06481,1.19926\H,0,2.43536,-2.
 07756,1.15043\C,0,1.50806,-0.06471,-1.40406\H,0,1.59086,-2.19256,-1.16
 61\C,0,2.19852,1.232,0.4959\H,0,2.82271,0.11532,2.21496\C,0,1.72522,1.
 16729,-0.80584\H,0,1.1359,-0.11527,-2.41824\H,0,2.36646,2.19282,0.9629
 5\H,0,1.5221,2.07735,-1.35355\C,0,-1.77867613,-0.00002725,0.0926798\F,

 Normal termination of Gaussian 16 at Wed Apr  9 03:03:48 2025.
