 Gaussian 16, Revision C.01,

 ----------------------------------------------------------------------
 #t hf aug-cc-pvdz symm=none int=(grid=ultrafine) guess=(read,tcheck) s
 table=(opt,rrhf)
 ----------------------------------------------------------------------
 -----
 title
 -----
 Symbolic Z-matrix:
 Charge =  0 Multiplicity = 1

 SCF Done:  E(RHF) =  -278.115335031     A.U. after   10 cycles
 Normal termination of Gaussian 16 at Wed Apr  9 03:03:33 2025.
 Gaussian 16:  ES64L-G16RevC.01  3-Jul-2019

 ----------------------------------------------------------------------
 #t hf aug-cc-pvdz iop(5/13=1,5/36=2,99/5=2) pseudo=read geom=check gue
 ss=(read,tcheck) scf=(maxcycle=1)
 ----------------------------------------------------------------------
 -----
 title
 -----
 Structure from the checkpoint file:  "F-set_ch3f_ch3f_200_dimer_mol1.chk"
 Charge =  0 Multiplicity = 1

                         Standard orientation:
 ---------------------------------------------------------------------
 Center     Atomic      Atomic             Coordinates (Angstroms)
 Number     Number       Type             X           Y           Z
 ---------------------------------------------------------------------
      1          6           0       -3.334572    1.956065    0.000000
      2          1           0       -2.303532    2.306293    0.000000
      3          1           0       -3.850092    2.306294    0.892907
      4          1           0       -3.850092    2.306294   -0.892907
      5          9           0       -3.334572    0.573065    0.000000
      6          6           0        3.334572   -1.956065    0.000000
      7          1           0        2.303532   -2.306293    0.000000
      8          9           0        3.334572   -0.573065    0.000000
      9          1           0        3.850092   -2.306294   -0.892907
     10          1           0        3.850092   -2.306294    0.892907
 ---------------------------------------------------------------------

 SCF Done:  E(RHF) =  -278.390533213     A.U. after    2 cycles

 The electronic state is 1-AG.
 Alpha  occ. eigenvalues --  -26.44305 -26.44305 -11.31703 -11.31702  -1.56509
 Alpha  occ. eigenvalues --   -1.56509  -0.94932  -0.94932  -0.68363  -0.68363
 Alpha  occ. eigenvalues --   -0.68355  -0.68354  -0.66237  -0.66237  -0.52178
 Alpha  occ. eigenvalues --   -0.52178  -0.52164  -0.52164
 Alpha virt. eigenvalues --    0.03566   0.03894   0.05560   0.05713   0.05835
 Alpha virt. eigenvalues --    0.06373   0.08916   0.10985   0.14250   0.14676
 Alpha virt. eigenvalues --    0.14979   0.15313   0.17034   0.17157   0.25021

 Mulliken charges:
               1
     1  C    0.360287
     2  H    0.095962
     3  H    0.094789
     4  H    0.094789
     5  F   -0.645826
     6  C    0.360287
     7  H    0.095962
     8  F   -0.645826
     9  H    0.094789
    10  H    0.094789
 Sum of Mulliken charges =   0.00000

 Dipole moment (field-independent basis, Debye):
    X=             -0.0000    Y=              0.0000    Z=              0.0000  Tot=              0.0000

 Test job not archived.
 1\1\GINC-SE458\SP\RHF\Aug-CC-pVDZ\C2H6F2\OHZDE\09-Apr-2025\0\\#t hf au
 g-cc-pvdz iop(5/13=1,5/36=2,99/5=2) pseudo=read geom=check guess=(read
 ,tcheck) scf=(maxcycle=1)\\title\\0,1\C,0,-1.667286,1.011264,0.\H,0,-0
 .636246,1.361492,0.\H,0,-2.182806,1.361493,0.892907\H,0,-2.182806,1.36
 1493,-0.892907\F,0,-1.667286,-0.371736,0.\C,0,5.001858,-2.9008664,0.\H
 ,0,3.970818,-3.2510944,0.\F,0,5.001858,-1.5178664,0.\H,0,5.517378,-3.2
 510954,-0.892907\H,0,5.517378,-3.2510954,0.892907\\Version=ES64L-G16Re
 vC.01\State=1-AG\HF=-278.3905332\RMSD=4.516e-03\Dipole=0.,0.,0.\Quadru

 Normal termination of Gaussian 16 at Wed Apr  9 03:03:35 2025.
