 Gaussian 16, Revision C.01,

 ----------------------------------------------------------------------
 #t hf aug-cc-pvdz symm=none int=(grid=ultrafine) guess=(read,tcheck) s
 table=(opt,rrhf)
 ----------------------------------------------------------------------
 -----
 title
 -----
 Symbolic Z-matrix:
 Charge =  0 Multiplicity = 1

 SCF Done:  E(RHF) =  -278.116264239     A.U. after   10 cycles
 Normal termination of Gaussian 16 at Wed Apr  9 03:03:33 2025.
 Gaussian 16:  ES64L-G16RevC.01  3-Jul-2019

 ----------------------------------------------------------------------
 #t hf aug-cc-pvdz iop(5/13=1,5/36=2,99/5=2) pseudo=read geom=check gue
 ss=(read,tcheck) scf=(maxcycle=1)
 ----------------------------------------------------------------------
 -----
 title
 -----
 Structure from the checkpoint file:  "F-set_ch3f_ch3f_095_dimer_mol1.chk"
 Charge =  0 Multiplicity = 1

                         Standard orientation:
 ---------------------------------------------------------------------
 Center     Atomic      Atomic             Coordinates (Angstroms)
 Number     Number       Type             X           Y           Z
 ---------------------------------------------------------------------
      1          6           0       -1.583922    0.964024    0.000000
      2          1           0       -0.552882    1.314252    0.000000
      3          1           0       -2.099442    1.314253    0.892907
      4          1           0       -2.099442    1.314253   -0.892907
      5          9           0       -1.583922   -0.418976    0.000000
      6          6           0        1.583922   -0.964024    0.000000
      7          1           0        0.552882   -1.314252    0.000000
      8          9           0        1.583922    0.418976    0.000000
      9          1           0        2.099442   -1.314253   -0.892907
     10          1           0        2.099442   -1.314253    0.892907
 ---------------------------------------------------------------------

 SCF Done:  E(RHF) =  -278.390681986     A.U. after    2 cycles

 The electronic state is 1-AG.
 Alpha  occ. eigenvalues --  -26.44412 -26.44412 -11.30981 -11.30981  -1.56853
 Alpha  occ. eigenvalues --   -1.56563  -0.94820  -0.94262  -0.70053  -0.68397
 Alpha  occ. eigenvalues --   -0.68113  -0.66909  -0.66533  -0.65528  -0.53375
 Alpha  occ. eigenvalues --   -0.52079  -0.51926  -0.50333
 Alpha virt. eigenvalues --    0.03978   0.04208   0.05004   0.06468   0.06650
 Alpha virt. eigenvalues --    0.08066   0.10688   0.13752   0.14293   0.14796
 Alpha virt. eigenvalues --    0.15709   0.17164   0.18567   0.19324   0.25756

 Mulliken charges:
               1
     1  C    0.420387
     2  H    0.070981
     3  H    0.095469
     4  H    0.095469
     5  F   -0.682306
     6  C    0.420387
     7  H    0.070981
     8  F   -0.682306
     9  H    0.095469
    10  H    0.095469
 Sum of Mulliken charges =  -0.00000

 Dipole moment (field-independent basis, Debye):
    X=              0.0000    Y=              0.0000    Z=             -0.0000  Tot=              0.0000

 Test job not archived.
 1\1\GINC-SE080\SP\RHF\Aug-CC-pVDZ\C2H6F2\OHZDE\09-Apr-2025\0\\#t hf au
 g-cc-pvdz iop(5/13=1,5/36=2,99/5=2) pseudo=read geom=check guess=(read
 ,tcheck) scf=(maxcycle=1)\\title\\0,1\C,0,-1.667286,1.011264,0.\H,0,-0
 .636246,1.361492,0.\H,0,-2.182806,1.361493,0.892907\H,0,-2.182806,1.36
 1493,-0.892907\F,0,-1.667286,-0.371736,0.\C,0,1.5005574,-0.91678388,0.
 \H,0,0.4695174,-1.26701188,0.\F,0,1.5005574,0.46621612,0.\H,0,2.016077
 4,-1.26701288,-0.892907\H,0,2.0160774,-1.26701288,0.892907\\Version=ES
 64L-G16RevC.01\State=1-AG\HF=-278.390682\RMSD=4.935e-03\Dipole=0.,0.,0

 Normal termination of Gaussian 16 at Wed Apr  9 03:03:35 2025.
