 Gaussian 16, Revision C.01,

 ----------------------------------------------------------------------
 #t hf aug-cc-pvdz symm=none int=(grid=ultrafine) guess=(read,tcheck) s
 table=(opt,rrhf)
 ----------------------------------------------------------------------
 -----
 title
 -----
 Symbolic Z-matrix:
 Charge =  0 Multiplicity = 1

 SCF Done:  E(RHF) =  -779.391596826     A.U. after   13 cycles
 Normal termination of Gaussian 16 at Wed Apr  9 03:05:10 2025.
 Gaussian 16:  ES64L-G16RevC.01  3-Jul-2019

 ----------------------------------------------------------------------
 #t hf aug-cc-pvdz iop(5/13=1,5/36=2,99/5=2) pseudo=read geom=check gue
 ss=(read,tcheck) scf=(maxcycle=1)
 ----------------------------------------------------------------------
 -----
 title
 -----
 Structure from the checkpoint file:  "FH51_4_mol3.chk"
 Charge =  0 Multiplicity = 1

                         Standard orientation:
 ---------------------------------------------------------------------
 Center     Atomic      Atomic             Coordinates (Angstroms)
 Number     Number       Type             X           Y           Z
 ---------------------------------------------------------------------
      1          6           0        3.866330   -0.375305    0.043963
      2          1           0        3.854507   -1.137872   -0.748927
      3          1           0        3.860525   -0.899892    1.010857
      4          1           0        4.816088    0.171686   -0.033913
      5          6           0        2.670412    0.571552   -0.080184
      6          1           0        2.727873    1.345115    0.703691
      7          1           0        2.720154    1.106239   -1.043302
      8          6           0        1.324079   -0.158589    0.028202
      9          1           0        1.256055   -0.672983    0.998973
     10          1           0        1.263843   -0.933665   -0.752442
     11          6           0        0.145214    0.800589   -0.117746
     12          1           0        0.106429    1.280105   -1.106170
     13          1           0        0.163232    1.594195    0.645121
     14          8           0       -2.478206    1.046207   -0.144273
     15          8           0       -1.518404   -0.999229   -1.156329
     16          1           0       -1.457705   -1.897915   -0.774961
     17         16           0       -1.471504    0.043537    0.106977
     18          8           0       -1.478782   -0.757115    1.318605
 ---------------------------------------------------------------------

 SCF Done:  E(RHF) =  -779.851093618     A.U. after    2 cycles

 The electronic state is 1-A.
 Alpha  occ. eigenvalues --  -94.23616 -20.62239 -20.55534 -20.55009 -11.30004
 Alpha  occ. eigenvalues --  -11.26486 -11.25596 -11.24350  -8.48362  -6.46474
 Alpha  occ. eigenvalues --   -6.46367  -6.46158  -1.60489  -1.48353  -1.45387
 Alpha  occ. eigenvalues --   -1.12365  -1.04638  -0.94417  -0.86265  -0.82611
 Alpha  occ. eigenvalues --   -0.75342  -0.71142  -0.69380  -0.68315  -0.64067
 Alpha  occ. eigenvalues --   -0.62023  -0.61583  -0.57478  -0.55853  -0.54224
 Alpha  occ. eigenvalues --   -0.53670  -0.51186  -0.50878  -0.49770  -0.49453
 Alpha  occ. eigenvalues --   -0.47479  -0.46018
 Alpha virt. eigenvalues --    0.02993   0.03060   0.03575   0.04039   0.05597
 Alpha virt. eigenvalues --    0.06188   0.06900   0.07447   0.08900   0.09679
 Alpha virt. eigenvalues --    0.10203   0.11645   0.12905   0.13248   0.14312

 Mulliken charges:
               1
     1  C   -0.410076
     2  H    0.172682
     3  H    0.175921
     4  H    0.133729
     5  C   -0.252182
     6  H    0.123465
     7  H    0.129661
     8  C   -0.203659
     9  H    0.175562
    10  H    0.152232
    11  C   -0.915143
    12  H    0.210949
    13  H    0.277515
    14  O   -1.475184
    15  O   -1.278025
    16  H    0.349053
    17  S    4.127554
    18  O   -1.494053
 Sum of Mulliken charges =  -0.00000

 Dipole moment (field-independent basis, Debye):
    X=              4.6053    Y=             -0.8740    Z=             -1.2346  Tot=              4.8473

 Test job not archived.
 1\1\GINC-SE023\SP\RHF\Aug-CC-pVDZ\C4H10O3S1\OHZDE\09-Apr-2025\0\\#t hf
  aug-cc-pvdz iop(5/13=1,5/36=2,99/5=2) pseudo=read geom=check guess=(r
 ead,tcheck) scf=(maxcycle=1)\\title\\0,1\C,0,-5.73872102,-0.06181559,0
 .00503313\H,0,-5.41512052,-1.11326141,-0.00319632\H,0,-5.38568145,0.40
 274179,-0.92752136\H,0,-6.83732357,-0.05114033,-0.01119703\C,0,-5.1960
 2778,0.67525451,1.23156534\H,0,-5.56520423,1.71442258,1.23224176\H,0,-
 5.59160946,0.20838859,2.14890481\C,0,-3.66159286,0.68413755,1.28540318
 \H,0,-3.25979935,1.17306727,0.38477264\H,0,-3.28898574,-0.35265267,1.2

 Normal termination of Gaussian 16 at Wed Apr  9 03:05:18 2025.
