 Gaussian 16, Revision C.01,

 ----------------------------------------------------------------------
 #t hf aug-cc-pvdz symm=none int=(grid=ultrafine) guess=(read,tcheck) s
 table=(opt,rrhf)
 ----------------------------------------------------------------------
 -----
 title
 -----
 Symbolic Z-matrix:
 Charge =  0 Multiplicity = 1

 SCF Done:  E(RHF) =  -668.446504902     A.U. after   15 cycles

 1\1\GINC-SE126\Stability\RHF\Aug-CC-pVDZ\C7H10S1\OHZDE\09-Apr-2025\0\\
 #t hf aug-cc-pvdz symm=none int=(grid=ultrafine) guess=(read,tcheck) s
 table=(opt,rrhf)\\title\\0,1\C,0,-0.60872686,0.62597307,0.13364188\C,0
 ,0.76431894,0.6091095,0.01115003\C,0,1.28607737,1.93362395,-0.14048691
 \C,0,0.31597288,2.90565568,-0.13033053\S,0,-1.25309607,2.22273811,0.06
 560042\H,0,-1.27528286,-0.22326179,0.25664615\H,0,2.34652617,2.1554663
 4,-0.25996784\H,0,0.4359456,3.98010155,-0.23264096\C,0,1.60972622,-0.6
 3734995,0.05554091\H,0,2.29954138,-0.64406034,-0.80646677\H,0,0.963142

 Normal termination of Gaussian 16 at Wed Apr  9 03:05:08 2025.
 Gaussian 16:  ES64L-G16RevC.01  3-Jul-2019

 ----------------------------------------------------------------------
 #t hf aug-cc-pvdz iop(5/13=1,5/36=2,99/5=2) pseudo=read geom=check gue
 ss=(read,tcheck) scf=(maxcycle=1)
 ----------------------------------------------------------------------
 -----
 title
 -----
 Structure from the checkpoint file:  "FH51_28_mol3.chk"
 Charge =  0 Multiplicity = 1

                         Standard orientation:
 ---------------------------------------------------------------------
 Center     Atomic      Atomic             Coordinates (Angstroms)
 Number     Number       Type             X           Y           Z
 ---------------------------------------------------------------------
      1          6           0        0.936112   -1.073072    0.118456
      2          6           0        0.038348   -0.051237    0.342991
      3          6           0        0.672108    1.227582    0.231036
      4          6           0        2.009828    1.148090   -0.069360
      5         16           0        2.521294   -0.489510   -0.222360
      6          1           0        0.744771   -2.142430    0.140591
      7          1           0        0.152146    2.174539    0.375790
      8          1           0        2.720943    1.957915   -0.202758
      9          6           0       -1.424661   -0.251277    0.642883
     10          1           0       -1.701288    0.340447    1.532988
     11          1           0       -1.602074   -1.305627    0.908811
     12          6           0       -2.354425    0.139601   -0.521718
     13          1           0       -2.175585    1.193311   -0.790697
     14          1           0       -2.079706   -0.451058   -1.410595
     15          6           0       -3.833912   -0.067558   -0.191758
     16          1           0       -4.137313    0.533145    0.679472
     17          1           0       -4.476989    0.220594   -1.035372
     18          1           0       -4.045999   -1.121436    0.044334
 ---------------------------------------------------------------------

 SCF Done:  E(RHF) =  -668.794028081     A.U. after    2 cycles

 The electronic state is 1-A.
 Alpha  occ. eigenvalues --  -93.97298 -11.27033 -11.26240 -11.24760 -11.24357
 Alpha  occ. eigenvalues --  -11.24129 -11.23492 -11.22885  -8.25495  -6.23270
 Alpha  occ. eigenvalues --   -6.23175  -6.22967  -1.18490  -1.07749  -1.00564
 Alpha  occ. eigenvalues --   -0.98696  -0.91485  -0.81429  -0.77952  -0.74013
 Alpha  occ. eigenvalues --   -0.68453  -0.63769  -0.59288  -0.57864  -0.57126
 Alpha  occ. eigenvalues --   -0.55083  -0.52752  -0.52124  -0.50532  -0.48809
 Alpha  occ. eigenvalues --   -0.47888  -0.46973  -0.34504  -0.32716
 Alpha virt. eigenvalues --    0.03391   0.03668   0.03823   0.04033   0.04972
 Alpha virt. eigenvalues --    0.06144   0.06555   0.07072   0.07513   0.09041
 Alpha virt. eigenvalues --    0.10350   0.11000   0.11314   0.12025   0.12714

 Mulliken charges:
               1
     1  C   -0.635438
     2  C    1.445056
     3  C    0.422164
     4  C   -0.693871
     5  S    0.649035
     6  H   -0.241760
     7  H   -0.255858
     8  H   -0.149277
     9  C   -0.739140
    10  H    0.153631
    11  H    0.065416
    12  C   -0.333612
    13  H    0.146843
    14  H    0.139571
    15  C   -0.447599
    16  H    0.169782
    17  H    0.134316
    18  H    0.170741
 Sum of Mulliken charges =  -0.00000

 Dipole moment (field-independent basis, Debye):
    X=             -1.1365    Y=              0.3937    Z=              0.1304  Tot=              1.2099

 Test job not archived.
 1\1\GINC-SE126\SP\RHF\Aug-CC-pVDZ\C7H10S1\OHZDE\09-Apr-2025\0\\#t hf a
 ug-cc-pvdz iop(5/13=1,5/36=2,99/5=2) pseudo=read geom=check guess=(rea
 d,tcheck) scf=(maxcycle=1)\\title\\0,1\C,0,-0.60872686,0.62597307,0.13
 364188\C,0,0.76431894,0.6091095,0.01115003\C,0,1.28607737,1.93362395,-
 0.14048691\C,0,0.31597288,2.90565568,-0.13033053\S,0,-1.25309607,2.222
 73811,0.06560042\H,0,-1.27528286,-0.22326179,0.25664615\H,0,2.34652617
 ,2.15546634,-0.25996784\H,0,0.4359456,3.98010155,-0.23264096\C,0,1.609
 72622,-0.63734995,0.05554091\H,0,2.29954138,-0.64406034,-0.80646677\H,

 Normal termination of Gaussian 16 at Wed Apr  9 03:05:17 2025.
