 Gaussian 16, Revision C.01,

 ----------------------------------------------------------------------
 #t hf aug-cc-pvdz symm=none int=(grid=ultrafine) guess=(read,tcheck) s
 table=(opt,rrhf)
 ----------------------------------------------------------------------
 -----
 title
 -----
 Symbolic Z-matrix:
 Charge =  0 Multiplicity = 1

 SCF Done:  E(RHF) =  -704.530590458     A.U. after   14 cycles
 Normal termination of Gaussian 16 at Wed Apr  9 03:04:46 2025.
 Gaussian 16:  ES64L-G16RevC.01  3-Jul-2019

 ----------------------------------------------------------------------
 #t hf aug-cc-pvdz iop(5/13=1,5/36=2,99/5=2) pseudo=read geom=check gue
 ss=(read,tcheck) scf=(maxcycle=1)
 ----------------------------------------------------------------------
 -----
 title
 -----
 Structure from the checkpoint file:  "FH51_4_mol1.chk"
 Charge =  0 Multiplicity = 1

                         Standard orientation:
 ---------------------------------------------------------------------
 Center     Atomic      Atomic             Coordinates (Angstroms)
 Number     Number       Type             X           Y           Z
 ---------------------------------------------------------------------
      1          6           0        3.709637    0.273230   -0.178168
      2          1           0        3.692264    1.328169    0.133807
      3          1           0        3.771896    0.252797   -1.276593
      4          1           0        4.631539   -0.176219    0.216595
      5          6           0        2.469381   -0.472115    0.320345
      6          1           0        2.530446   -1.532968    0.024381
      7          1           0        2.449936   -0.463452    1.422797
      8          6           0        1.160155    0.128625   -0.211244
      9          1           0        1.176805    0.114486   -1.314611
     10          1           0        1.088400    1.185643    0.087744
     11          6           0       -0.069636   -0.621295    0.292990
     12          1           0       -0.208495   -0.545550    1.382268
     13          1           0       -0.045461   -1.687284    0.018659
     14         16           0       -1.648593   -0.037768   -0.427694
     15          8           0       -2.710214   -0.887105    0.158898
     16          8           0       -1.554131    1.419673    0.437534
     17          1           0       -2.212301    2.017450    0.033075
 ---------------------------------------------------------------------

 SCF Done:  E(RHF) =  -704.914164885     A.U. after    2 cycles

 The electronic state is 1-A.
 Alpha  occ. eigenvalues --  -94.12105 -20.59667 -20.51880 -11.27861 -11.25340
 Alpha  occ. eigenvalues --  -11.24703 -11.23718  -8.38243  -6.36093  -6.35933
 Alpha  occ. eigenvalues --   -6.35682  -1.50667  -1.42900  -1.10828  -1.03452
 Alpha  occ. eigenvalues --   -0.93821  -0.84976  -0.81453  -0.72149  -0.66287
 Alpha  occ. eigenvalues --   -0.64561  -0.63112  -0.60035  -0.59596  -0.58302
 Alpha  occ. eigenvalues --   -0.54720  -0.52788  -0.52286  -0.49795  -0.49511
 Alpha  occ. eigenvalues --   -0.48727  -0.44292  -0.38361
 Alpha virt. eigenvalues --    0.03246   0.03412   0.03732   0.04178   0.05381
 Alpha virt. eigenvalues --    0.06460   0.06788   0.07164   0.09046   0.09949
 Alpha virt. eigenvalues --    0.10312   0.10450   0.12197   0.12667   0.13889

 Mulliken charges:
               1
     1  C   -0.420245
     2  H    0.172325
     3  H    0.170838
     4  H    0.133455
     5  C   -0.276391
     6  H    0.117162
     7  H    0.135951
     8  C   -0.343666
     9  H    0.170885
    10  H    0.177817
    11  C   -0.821535
    12  H    0.207918
    13  H    0.225147
    14  S    2.652293
    15  O   -1.489900
    16  O   -1.244352
    17  H    0.432298
 Sum of Mulliken charges =  -0.00000

 Dipole moment (field-independent basis, Debye):
    X=              3.1516    Y=              1.6079    Z=             -1.1082  Tot=              3.7076

 Test job not archived.
 1\1\GINC-SE186\SP\RHF\Aug-CC-pVDZ\C4H10O2S1\OHZDE\09-Apr-2025\0\\#t hf
  aug-cc-pvdz iop(5/13=1,5/36=2,99/5=2) pseudo=read geom=check guess=(r
 ead,tcheck) scf=(maxcycle=1)\\title\\0,1\C,0,-5.79093711,-0.03263023,-
 0.00381635\H,0,-5.44448242,-1.07405809,-0.08077654\H,0,-5.47977405,0.4
 8945911,-0.92111218\H,0,-6.8896491,-0.04715549,0.01534334\C,0,-5.22157
 261,0.64969102,1.24219765\H,0,-5.61280391,1.67860775,1.31292339\H,0,-5
 .57513839,0.12593789,2.14581721\C,0,-3.68665748,0.68856024,1.25067745\
 H,0,-3.33269255,1.21804586,0.34942778\H,0,-3.28901443,-0.33607789,1.18

 Normal termination of Gaussian 16 at Wed Apr  9 03:05:12 2025.
