 Gaussian 16, Revision C.01,

 ----------------------------------------------------------------------
 #t hf aug-cc-pvdz symm=none int=(grid=ultrafine) guess=(read,tcheck) s
 table=(opt,rrhf)
 ----------------------------------------------------------------------
 -----
 title
 -----
 Symbolic Z-matrix:
 Charge =  0 Multiplicity = 1

 SCF Done:  E(RHF) =  -515.808506819     A.U. after   12 cycles
 Normal termination of Gaussian 16 at Wed Apr  9 03:04:06 2025.
 Gaussian 16:  ES64L-G16RevC.01  3-Jul-2019

 ----------------------------------------------------------------------
 #t hf aug-cc-pvdz iop(5/13=1,5/36=2,99/5=2) pseudo=read geom=check gue
 ss=(read,tcheck) scf=(maxcycle=1)
 ----------------------------------------------------------------------
 -----
 title
 -----
 Structure from the checkpoint file:  "FH51_38_mol3.chk"
 Charge =  0 Multiplicity = 1

                         Standard orientation:
 ---------------------------------------------------------------------
 Center     Atomic      Atomic             Coordinates (Angstroms)
 Number     Number       Type             X           Y           Z
 ---------------------------------------------------------------------
      1          6           0        2.417695    0.078530    0.000010
      2          1           0        2.595804    0.701662    0.889047
      3          1           0        2.595797    0.703848   -0.887554
      4          1           0        3.169410   -0.723076   -0.000828
      5          6           0        0.999223   -0.498935   -0.000709
      6          1           0        0.857123   -1.142352   -0.883865
      7          1           0        0.857232   -1.144328    0.880971
      8          6           0       -0.068214    0.595584    0.000695
      9          1           0        0.032939    1.229847   -0.891255
     10          1           0        0.033348    1.228544    0.893677
     11         16           0       -1.736596   -0.179735    0.000409
     12          1           0       -2.448351    0.970548   -0.006719
 ---------------------------------------------------------------------

 SCF Done:  E(RHF) =  -516.002936574     A.U. after    2 cycles

 The electronic state is 1-A.
 Alpha  occ. eigenvalues --  -93.94502 -11.27151 -11.24343 -11.23501  -8.22557
 Alpha  occ. eigenvalues --   -6.20409  -6.20266  -6.20037  -1.09521  -1.00677
 Alpha  occ. eigenvalues --   -0.89154  -0.80673  -0.65343  -0.60157  -0.59435
 Alpha  occ. eigenvalues --   -0.56472  -0.51301  -0.49050  -0.48938  -0.45574
 Alpha  occ. eigenvalues --   -0.36111
 Alpha virt. eigenvalues --    0.03681   0.03750   0.04366   0.04647   0.06508
 Alpha virt. eigenvalues --    0.07152   0.07683   0.08080   0.10759   0.11518
 Alpha virt. eigenvalues --    0.12961   0.14692   0.15595   0.15977   0.16606

 Mulliken charges:
               1
     1  C   -0.471599
     2  H    0.169700
     3  H    0.170038
     4  H    0.128847
     5  C   -0.311607
     6  H    0.173143
     7  H    0.172928
     8  C   -0.654635
     9  H    0.123741
    10  H    0.124903
    11  S    0.055558
    12  H    0.318983
 Sum of Mulliken charges =  -0.00000

 Dipole moment (field-independent basis, Debye):
    X=              1.3003    Y=              1.2784    Z=             -0.0048  Tot=              1.8235

 Test job not archived.
 1\1\GINC-SE159\SP\RHF\Aug-CC-pVDZ\C3H8S1\OHZDE\09-Apr-2025\0\\#t hf au
 g-cc-pvdz iop(5/13=1,5/36=2,99/5=2) pseudo=read geom=check guess=(read
 ,tcheck) scf=(maxcycle=1)\\title\\0,1\C,0,-5.02272319,-1.01258348,0.00
 055031\H,0,-4.68287386,-2.05837716,-0.03440472\H,0,-4.68158996,-0.5192
 976,-0.92184329\H,0,-6.12156661,-1.01893913,-0.01175941\C,0,-4.4917038
 9,-0.29534915,1.24518677\H,0,-4.87082051,0.73891291,1.27191014\H,0,-4.
 87202128,-0.79007801,2.15329223\C,0,-2.96364099,-0.27178569,1.28837156
 \H,0,-2.56398205,0.25062694,0.40777323\H,0,-2.5648839,-1.29611844,1.29

 Normal termination of Gaussian 16 at Wed Apr  9 03:04:10 2025.
