 Gaussian 16, Revision C.01,

 ----------------------------------------------------------------------
 #t hf aug-cc-pvdz symm=none int=(grid=ultrafine) guess=(read,tcheck) s
 table=(opt,rrhf)
 ----------------------------------------------------------------------
 -----
 title
 -----
 Symbolic Z-matrix:
 Charge =  0 Multiplicity = 1

 SCF Done:  E(RHF) =  -629.660977238     A.U. after   14 cycles
 Normal termination of Gaussian 16 at Wed Apr  9 03:04:35 2025.
 Gaussian 16:  ES64L-G16RevC.01  3-Jul-2019

 ----------------------------------------------------------------------
 #t hf aug-cc-pvdz iop(5/13=1,5/36=2,99/5=2) pseudo=read geom=check gue
 ss=(read,tcheck) scf=(maxcycle=1)
 ----------------------------------------------------------------------
 -----
 title
 -----
 Structure from the checkpoint file:  "FH51_10_mol3.chk"
 Charge =  0 Multiplicity = 1

                         Standard orientation:
 ---------------------------------------------------------------------
 Center     Atomic      Atomic             Coordinates (Angstroms)
 Number     Number       Type             X           Y           Z
 ---------------------------------------------------------------------
      1          6           0        1.373240   -0.796266    0.221679
      2          1           0        1.190556   -0.930870    1.298639
      3          1           0        1.286817   -1.770491   -0.284852
      4          6           0        2.714868   -0.123234   -0.044481
      5          1           0        2.743130    0.873060    0.416651
      6          1           0        3.532792   -0.721319    0.380992
      7          1           0        2.901582   -0.009928   -1.121760
      8          6           0       -1.369654   -0.805936    0.210472
      9          1           0       -1.183860   -0.958062    1.284519
     10          1           0       -1.286924   -1.771622   -0.312252
     11          6           0       -2.710146   -0.124962   -0.040602
     12          1           0       -2.900218    0.005526   -1.115477
     13          1           0       -3.528522   -0.726618    0.378927
     14          1           0       -2.732777    0.864290    0.435616
     15         16           0        0.000420    0.256964   -0.417829
     16          8           0       -0.009892    1.517125    0.405233
 ---------------------------------------------------------------------

 SCF Done:  E(RHF) =  -629.972617574     A.U. after    2 cycles

 The electronic state is 1-A.
 Alpha  occ. eigenvalues --  -94.05859 -20.48809 -11.27769 -11.27734 -11.24382
 Alpha  occ. eigenvalues --  -11.24344  -8.32726  -6.30570  -6.30441  -6.30235
 Alpha  occ. eigenvalues --   -1.41882  -1.09932  -1.05087  -0.94653  -0.85192
 Alpha  occ. eigenvalues --   -0.80889  -0.66217  -0.65141  -0.63216  -0.59218
 Alpha  occ. eigenvalues --   -0.58750  -0.54615  -0.53698  -0.53123  -0.51791
 Alpha  occ. eigenvalues --   -0.51467  -0.50072  -0.40189  -0.35699
 Alpha virt. eigenvalues --    0.03054   0.03464   0.03896   0.04578   0.05831
 Alpha virt. eigenvalues --    0.06274   0.06421   0.07520   0.08690   0.09703
 Alpha virt. eigenvalues --    0.10650   0.11742   0.13489   0.13548   0.14617

 Mulliken charges:
               1
     1  C   -0.624669
     2  H    0.176593
     3  H    0.166890
     4  C   -0.422854
     5  H    0.219711
     6  H    0.158130
     7  H    0.191074
     8  C   -0.623904
     9  H    0.179977
    10  H    0.162499
    11  C   -0.422650
    12  H    0.191277
    13  H    0.157536
    14  H    0.221112
    15  S    1.795056
    16  O   -1.525777
 Sum of Mulliken charges =   0.00000

 Dipole moment (field-independent basis, Debye):
    X=              0.0263    Y=             -4.2596    Z=             -0.4191  Tot=              4.2802

 Test job not archived.
 1\1\GINC-SE102\SP\RHF\Aug-CC-pVDZ\C4H10O1S1\OHZDE\09-Apr-2025\0\\#t hf
  aug-cc-pvdz iop(5/13=1,5/36=2,99/5=2) pseudo=read geom=check guess=(r
 ead,tcheck) scf=(maxcycle=1)\\title\\0,1\C,0,0.87780338,0.42478559,0.0
 3193616\H,0,1.08605893,1.03733057,-0.85843079\H,0,1.16859595,0.9861781
 5,0.93384343\C,0,1.55908788,-0.93664584,-0.04637343\H,0,1.19733591,-1.
 49773979,-0.91835533\H,0,2.64673878,-0.81388699,-0.14475442\H,0,1.3649
 1039,-1.53623726,0.85419022\C,0,-1.36135175,2.00896883,0.04737956\H,0,
 -0.84386836,2.42062089,-0.8323886\H,0,-0.94105295,2.4604961,0.95957761

 Normal termination of Gaussian 16 at Wed Apr  9 03:05:10 2025.
