 Gaussian 16, Revision C.01,

 ----------------------------------------------------------------------
 #t hf aug-cc-pvdz symm=none int=(grid=ultrafine) guess=(read,tcheck) s
 table=(opt,rrhf)
 ----------------------------------------------------------------------
 -----
 title
 -----
 Symbolic Z-matrix:
 Charge =  0 Multiplicity = 1

 SCF Done:  E(RHF) =  -547.205009657     A.U. after   12 cycles
 Normal termination of Gaussian 16 at Wed Apr  9 03:04:15 2025.
 Gaussian 16:  ES64L-G16RevC.01  3-Jul-2019

 ----------------------------------------------------------------------
 #t hf aug-cc-pvdz iop(5/13=1,5/36=2,99/5=2) pseudo=read geom=check gue
 ss=(read,tcheck) scf=(maxcycle=1)
 ----------------------------------------------------------------------
 -----
 title
 -----
 Structure from the checkpoint file:  "G2RC_18_mol1.chk"
 Charge =  0 Multiplicity = 1

                         Standard orientation:
 ---------------------------------------------------------------------
 Center     Atomic      Atomic             Coordinates (Angstroms)
 Number     Number       Type             X           Y           Z
 ---------------------------------------------------------------------
      1         16           0        0.000000    0.000000    0.373226
      2          8           0       -0.000000    1.248914   -0.373226
      3          8           0       -0.000000   -1.248914   -0.373226
 ---------------------------------------------------------------------

 SCF Done:  E(RHF) =  -547.400355674     A.U. after    2 cycles

 The electronic state is 1-A1.
 Alpha  occ. eigenvalues --  -94.20058 -20.61928 -20.61919  -8.45950  -6.43804
 Alpha  occ. eigenvalues --   -6.43513  -6.43339  -1.59725  -1.48801  -0.90790
 Alpha  occ. eigenvalues --   -0.70049  -0.69515  -0.66455  -0.52982  -0.50807
 Alpha  occ. eigenvalues --   -0.48959
 Alpha virt. eigenvalues --   -0.00351   0.07928   0.08337   0.08908   0.09179
 Alpha virt. eigenvalues --    0.19971   0.21017   0.21944   0.22765   0.25472
 Alpha virt. eigenvalues --    0.25643   0.26389   0.29666   0.38204   0.39035

 Mulliken charges:
               1
     1  S    1.986605
     2  O   -0.993303
     3  O   -0.993303
 Sum of Mulliken charges =  -0.00000

 Dipole moment (field-independent basis, Debye):
    X=              0.0000    Y=              0.0000    Z=              1.9816  Tot=              1.9816

 Test job not archived.
 1\1\GINC-SE036\SP\RHF\Aug-CC-pVDZ\O2S1\OHZDE\09-Apr-2025\0\\#t hf aug-
 cc-pvdz iop(5/13=1,5/36=2,99/5=2) pseudo=read geom=check guess=(read,t
 check) scf=(maxcycle=1)\\title\\0,1\S,0,0.,0.,0.49763437\O,0,-1.248914
 13,0.,-0.24881718\O,0,1.24891413,0.,-0.24881718\\Version=ES64L-G16RevC
 .01\State=1-A1\HF=-547.4003557\RMSD=7.502e-03\Dipole=0.,0.,0.779613\Qu
 adrupole=-2.8148286,2.23321,0.5816187,0.,0.,0.\PG=C02V [C2(S1),SGV(O2)
 ]\\@

 Normal termination of Gaussian 16 at Wed Apr  9 03:04:18 2025.
