 Gaussian 16, Revision C.01,

 ----------------------------------------------------------------------
 #t hf aug-cc-pvdz symm=none int=(grid=ultrafine) guess=(read,tcheck) s
 table=(opt,rrhf)
 ----------------------------------------------------------------------
 -----
 title
 -----
 Symbolic Z-matrix:
 Charge =  0 Multiplicity = 1

 SCF Done:  E(RHF) =  -273.486812827     A.U. after   13 cycles
 Normal termination of Gaussian 16 at Wed Apr  9 03:05:06 2025.
 Gaussian 16:  ES64L-G16RevC.01  3-Jul-2019

 ----------------------------------------------------------------------
 #t hf aug-cc-pvdz iop(5/13=1,5/36=2,99/5=2) pseudo=read geom=check gue
 ss=(read,tcheck) scf=(maxcycle=1)
 ----------------------------------------------------------------------
 -----
 title
 -----
 Structure from the checkpoint file:  "G2RC_20_mol1.chk"
 Charge =  0 Multiplicity = 1

                         Standard orientation:
 ---------------------------------------------------------------------
 Center     Atomic      Atomic             Coordinates (Angstroms)
 Number     Number       Type             X           Y           Z
 ---------------------------------------------------------------------
      1          8           0        0.000000    0.000000    0.600809
      2          9           0       -0.000000    1.109339   -0.267026
      3          9           0       -0.000000   -1.109339   -0.267026
 ---------------------------------------------------------------------

 SCF Done:  E(RHF) =  -273.733930102     A.U. after    2 cycles

 The electronic state is 1-A1.
 Alpha  occ. eigenvalues --  -26.57185 -26.57175 -20.81486  -1.79038  -1.61455
 Alpha  occ. eigenvalues --   -1.30975  -0.80288  -0.78349  -0.78320  -0.69707
 Alpha  occ. eigenvalues --   -0.65533  -0.63665  -0.56254
 Alpha virt. eigenvalues --    0.09450   0.11674   0.16722   0.19199   0.19475
 Alpha virt. eigenvalues --    0.22808   0.26229   0.28259   0.28597   0.28807
 Alpha virt. eigenvalues --    0.32967   0.35072   0.48108   0.52231   0.94807

 Mulliken charges:
               1
     1  O    0.544191
     2  F   -0.272096
     3  F   -0.272096
 Sum of Mulliken charges =   0.00000

 Dipole moment (field-independent basis, Debye):
    X=              0.0000    Y=             -0.0000    Z=              0.3254  Tot=              0.3254

 Test job not archived.
 1\1\GINC-SE049\SP\RHF\Aug-CC-pVDZ\F2O1\OHZDE\09-Apr-2025\0\\#t hf aug-
 cc-pvdz iop(5/13=1,5/36=2,99/5=2) pseudo=read geom=check guess=(read,t
 check) scf=(maxcycle=1)\\title\\0,1\O,0,0.,0.,0.57855641\F,0,-1.109339
 28,0.,-0.28927821\F,0,1.10933928,0.,-0.28927821\\Version=ES64L-G16RevC
 .01\State=1-A1\HF=-273.7339301\RMSD=5.486e-03\Dipole=0.,0.,0.1280405\Q
 uadrupole=0.0028445,-0.2472186,0.2443742,0.,0.,0.\PG=C02V [C2(O1),SGV(
 F2)]\\@

 Normal termination of Gaussian 16 at Wed Apr  9 03:05:08 2025.
