 Gaussian 16, Revision C.01,

 ----------------------------------------------------------------------
 #t hf aug-cc-pvdz symm=none int=(grid=ultrafine) guess=(read,tcheck) s
 table=(opt,rrhf)
 ----------------------------------------------------------------------
 -----
 title
 -----
 Symbolic Z-matrix:
 Charge =  0 Multiplicity = 1

 SCF Done:  E(RHF) =  -551.581387464     A.U. after   13 cycles
 Normal termination of Gaussian 16 at Wed Apr  9 03:04:18 2025.
 Gaussian 16:  ES64L-G16RevC.01  3-Jul-2019

 ----------------------------------------------------------------------
 #t hf aug-cc-pvdz iop(5/13=1,5/36=2,99/5=2) pseudo=read geom=check gue
 ss=(read,tcheck) scf=(maxcycle=1)
 ----------------------------------------------------------------------
 -----
 title
 -----
 Structure from the checkpoint file:  "G2RC_1_mol1.chk"
 Charge =  0 Multiplicity = 1

                         Standard orientation:
 ---------------------------------------------------------------------
 Center     Atomic      Atomic             Coordinates (Angstroms)
 Number     Number       Type             X           Y           Z
 ---------------------------------------------------------------------
      1          6           0        0.260593   -0.789122    1.367157
      2         16           0        0.260593    0.432025    0.000000
      3          8           0       -1.103933    1.072881    0.000000
      4          6           0        0.260593   -0.789122   -1.367157
      5          1           0        0.202761   -0.216938    2.289958
      6          1           0        1.181202   -1.370511    1.342974
      7          1           0       -0.616539   -1.425543    1.265106
      8          1           0        1.181202   -1.370511   -1.342974
      9          1           0       -0.616539   -1.425543   -1.265106
     10          1           0        0.202761   -0.216938   -2.289958
 ---------------------------------------------------------------------

 SCF Done:  E(RHF) =  -551.807174709     A.U. after    2 cycles

 The electronic state is 1-A'.
 Alpha  occ. eigenvalues --  -94.07010 -20.49210 -11.27643 -11.27612  -8.33798
 Alpha  occ. eigenvalues --   -6.31641  -6.31528  -6.31310  -1.42180  -1.08244
 Alpha  occ. eigenvalues --   -0.98228  -0.83963  -0.64912  -0.63404  -0.62918
 Alpha  occ. eigenvalues --   -0.59620  -0.56467  -0.55272  -0.51365  -0.41129
 Alpha  occ. eigenvalues --   -0.36542
 Alpha virt. eigenvalues --    0.03000   0.03942   0.04734   0.05421   0.06946
 Alpha virt. eigenvalues --    0.07433   0.08482   0.11616   0.12986   0.13420
 Alpha virt. eigenvalues --    0.14625   0.15042   0.16325   0.16751   0.17087

 Mulliken charges:
               1
     1  C   -0.655752
     2  S    1.544044
     3  O   -1.451665
     4  C   -0.655752
     5  H    0.192716
     6  H    0.208558
     7  H    0.208289
     8  H    0.208558
     9  H    0.208289
    10  H    0.192716
 Sum of Mulliken charges =  -0.00000

 Dipole moment (field-independent basis, Debye):
    X=              2.8174    Y=             -3.5643    Z=              0.0000  Tot=              4.5433

 Test job not archived.
 1\1\GINC-SE090\SP\RHF\Aug-CC-pVDZ\C2H6O1S1\OHZDE\09-Apr-2025\0\\#t hf
 aug-cc-pvdz iop(5/13=1,5/36=2,99/5=2) pseudo=read geom=check guess=(re
 ad,tcheck) scf=(maxcycle=1)\\title\\0,1\C,0,-0.22605287,0.02049785,-1.
 36715672\S,0,0.80173249,0.67993458,0.\O,0,2.07797632,-0.12245588,0.\C,
 0,-0.22605287,0.02049785,1.36715672\H,0,0.28675928,0.28081005,-2.28995
 764\H,0,-1.21252429,0.48137459,-1.34297371\H,0,-0.28803653,-1.06142184
 ,-1.26510605\H,0,-1.21252429,0.48137459,1.34297371\H,0,-0.28803653,-1.
 06142184,1.26510605\H,0,0.28675928,0.28081005,2.28995764\\Version=ES64

 Normal termination of Gaussian 16 at Wed Apr  9 03:04:20 2025.
