 Gaussian 16, Revision C.01,

 ----------------------------------------------------------------------
 #t hf aug-cc-pvdz symm=none int=(grid=ultrafine) guess=(read,tcheck) s
 table=(opt,rrhf)
 ----------------------------------------------------------------------
 -----
 title
 -----
 Symbolic Z-matrix:
 Charge =  0 Multiplicity = 1

 SCF Done:  E(RHF) =  -475.577383601     A.U. after   12 cycles
 Normal termination of Gaussian 16 at Wed Apr  9 03:04:15 2025.
 Gaussian 16:  ES64L-G16RevC.01  3-Jul-2019

 ----------------------------------------------------------------------
 #t hf aug-cc-pvdz iop(5/13=1,5/36=2,99/5=2) pseudo=read geom=check gue
 ss=(read,tcheck) scf=(maxcycle=1)
 ----------------------------------------------------------------------
 -----
 title
 -----
 Structure from the checkpoint file:  "G2RC_1_mol2.chk"
 Charge =  0 Multiplicity = 1

                         Standard orientation:
 ---------------------------------------------------------------------
 Center     Atomic      Atomic             Coordinates (Angstroms)
 Number     Number       Type             X           Y           Z
 ---------------------------------------------------------------------
      1         16           0       -0.000000   -0.000000    0.875007
      2          6           0       -0.000000    0.738651   -0.807188
      3          6           0       -0.000000   -0.738651   -0.807188
      4          1           0       -0.912678    1.250597   -1.078463
      5          1           0        0.912678    1.250597   -1.078463
      6          1           0        0.912678   -1.250597   -1.078463
      7          1           0       -0.912678   -1.250597   -1.078463
 ---------------------------------------------------------------------

 SCF Done:  E(RHF) =  -475.721769071     A.U. after    2 cycles

 The electronic state is 1-A1.
 Alpha  occ. eigenvalues --  -93.93972 -11.28739 -11.28659  -8.22040  -6.19858
 Alpha  occ. eigenvalues --   -6.19652  -6.19417  -1.15712  -0.85853  -0.85147
 Alpha  occ. eigenvalues --   -0.68241  -0.62459  -0.55263  -0.45329  -0.43222
 Alpha  occ. eigenvalues --   -0.35385
 Alpha virt. eigenvalues --    0.03715   0.04187   0.04428   0.06825   0.06933
 Alpha virt. eigenvalues --    0.11322   0.11866   0.12812   0.13345   0.14340
 Alpha virt. eigenvalues --    0.15009   0.16642   0.17311   0.19645   0.19769

 Mulliken charges:
               1
     1  S    0.114060
     2  C   -0.047588
     3  C   -0.047588
     4  H   -0.004721
     5  H   -0.004721
     6  H   -0.004721
     7  H   -0.004721
 Sum of Mulliken charges =  -0.00000

 Dipole moment (field-independent basis, Debye):
    X=             -0.0000    Y=             -0.0000    Z=             -2.3358  Tot=              2.3358

 Test job not archived.
 1\1\GINC-SE162\SP\RHF\Aug-CC-pVDZ\C2H4S1\OHZDE\09-Apr-2025\0\\#t hf au
 g-cc-pvdz iop(5/13=1,5/36=2,99/5=2) pseudo=read geom=check guess=(read
 ,tcheck) scf=(maxcycle=1)\\title\\0,1\S,0,0.,0.,1.59689538\C,0,0.,-0.7
 3865087,-0.08529881\C,0,0.,0.73865087,-0.08529881\H,0,0.91267842,-1.25
 059718,-0.35657444\H,0,-0.91267842,-1.25059718,-0.35657444\H,0,-0.9126
 7842,1.25059718,-0.35657444\H,0,0.91267842,1.25059718,-0.35657444\\Ver
 sion=ES64L-G16RevC.01\State=1-A1\HF=-475.7217691\RMSD=9.074e-03\Dipole
 =0.,0.,-0.9189892\Quadrupole=-0.5652697,1.0395222,-0.4742525,0.,0.,0.\

 Normal termination of Gaussian 16 at Wed Apr  9 03:04:16 2025.
