 Gaussian 16, Revision C.01,

 ----------------------------------------------------------------------
 #t hf aug-cc-pvdz symm=none int=(grid=ultrafine) guess=(read,tcheck) s
 table=(opt,rrhf)
 ----------------------------------------------------------------------
 -----
 title
 -----
 Symbolic Z-matrix:
 Charge =  0 Multiplicity = 1

 SCF Done:  E(RHF) =  -358.449640239     A.U. after   16 cycles
 Normal termination of Gaussian 16 at Wed Apr  9 03:34:07 2025.
 Gaussian 16:  ES64L-G16RevC.01  3-Jul-2019

 ----------------------------------------------------------------------
 #t hf aug-cc-pvdz iop(5/13=1,5/36=2,99/5=2) pseudo=read geom=check gue
 ss=(read,tcheck) scf=(maxcycle=1)
 ----------------------------------------------------------------------
 -----
 title
 -----
 Structure from the checkpoint file:  "Grambow2020_wb97xd3_007066_reverse_mol1.chk"
 Charge =  0 Multiplicity = 1

                         Standard orientation:
 ---------------------------------------------------------------------
 Center     Atomic      Atomic             Coordinates (Angstroms)
 Number     Number       Type             X           Y           Z
 ---------------------------------------------------------------------
      1          8           0        2.219008   -0.209081   -0.022490
      2          6           0        1.032744   -0.022981    0.096026
      3          7           0        0.401322    1.173120   -0.064311
      4          6           0       -1.039812    1.197003   -0.029438
      5          6           0       -1.439991   -0.224106    0.281880
      6          8           0       -0.886137   -1.158332   -0.618282
      7          6           0        0.098396   -1.219655    0.390787
      8          1           0        0.938180    1.959146   -0.392089
      9          1           0       -1.466440    1.504419   -0.989338
     10          1           0       -1.415611    1.867788    0.749253
     11          1           0       -2.489616   -0.439337    0.467211
     12          1           0       -0.946753   -0.546120    1.305773
 ---------------------------------------------------------------------

 SCF Done:  E(RHF) =  -358.804383032     A.U. after    2 cycles

 The electronic state is 1-A.
 Alpha  occ. eigenvalues --  -20.60362 -20.52665 -15.54629 -11.36836 -11.35854
 Alpha  occ. eigenvalues --  -11.34794 -11.31670  -1.54885  -1.47535  -1.27509
 Alpha  occ. eigenvalues --   -1.05722  -0.98233  -0.90475  -0.83003  -0.74515
 Alpha  occ. eigenvalues --   -0.71694  -0.69113  -0.65359  -0.64645  -0.62026
 Alpha  occ. eigenvalues --   -0.57550  -0.55276  -0.51282  -0.45037  -0.43617
 Alpha  occ. eigenvalues --   -0.37722
 Alpha virt. eigenvalues --    0.02201   0.03157   0.03763   0.04958   0.06189
 Alpha virt. eigenvalues --    0.07827   0.09276   0.09730   0.10492   0.11600
 Alpha virt. eigenvalues --    0.12445   0.13508   0.13936   0.14092   0.14721

 Mulliken charges:
               1
     1  O   -1.169548
     2  C    0.743906
     3  N    0.606485
     4  C   -0.009871
     5  C    0.055077
     6  O   -1.181872
     7  C   -0.005457
     8  H    0.066664
     9  H    0.103479
    10  H    0.127021
    11  H    0.012397
    12  H    0.651720
 Sum of Mulliken charges =  -0.00000

 Dipole moment (field-independent basis, Debye):
    X=             -4.8451    Y=              4.0969    Z=              0.3947  Tot=              6.3573

 Test job not archived.
 1\1\GINC-SE366\SP\RHF\Aug-CC-pVDZ\C4H5N1O2\OHZDE\09-Apr-2025\0\\#t hf
 aug-cc-pvdz iop(5/13=1,5/36=2,99/5=2) pseudo=read geom=check guess=(re
 ad,tcheck) scf=(maxcycle=1)\\title\\0,1\O,0,1.22527213,2.22065103,0.85
 720334\C,0,0.60970469,1.26834816,0.44477449\N,0,1.15096745,0.19664594,
 -0.19830204\C,0,0.2965059,-0.92504636,-0.49889774\C,0,-1.07547663,-0.4
 9646833,-0.03998809\O,0,-1.09692314,-0.08195668,1.30817441\C,0,-0.9133
 7415,1.17677926,0.69728947\H,0,2.1533398,0.13515181,-0.26872686\H,0,0.
 60515206,-1.82843994,0.03639878\H,0,0.2778134,-1.14488156,-1.57074644\

 Normal termination of Gaussian 16 at Wed Apr  9 03:34:11 2025.
