 Gaussian 16, Revision C.01,

 ----------------------------------------------------------------------
 #t hf aug-cc-pvdz symm=none int=(grid=ultrafine) guess=(read,tcheck) s
 table=(opt,rrhf)
 ----------------------------------------------------------------------
 -----
 title
 -----
 Symbolic Z-matrix:
 Charge =  0 Multiplicity = 1

 SCF Done:  E(RHF) =  -302.140671052     A.U. after   18 cycles
 Normal termination of Gaussian 16 at Wed Apr  9 15:43:34 2025.
 Gaussian 16:  ES64L-G16RevC.01  3-Jul-2019

 ----------------------------------------------------------------------
 #t hf aug-cc-pvdz iop(5/13=1,5/36=2,99/5=2) pseudo=read geom=check gue
 ss=(read,tcheck) scf=(maxcycle=1)
 ----------------------------------------------------------------------
 -----
 title
 -----
 Structure from the checkpoint file:  "Grambow2020_b97d3_006715_forward_mol1.chk"
 Charge =  0 Multiplicity = 1

                         Standard orientation:
 ---------------------------------------------------------------------
 Center     Atomic      Atomic             Coordinates (Angstroms)
 Number     Number       Type             X           Y           Z
 ---------------------------------------------------------------------
      1          8           0        2.968764   -0.191317   -0.355569
      2          6           0        1.901292    0.030168    0.391542
      3          6           0        0.571845    0.116508    0.023134
      4          6           0       -0.663918    0.269156    0.035737
      5          6           0       -2.085404    0.382845   -0.086576
      6          8           0       -2.841394   -0.581412    0.013792
      7          1           0        3.084524   -0.027815    0.835274
      8          1           0       -2.446377    1.417586   -0.284083
 ---------------------------------------------------------------------

 SCF Done:  E(RHF) =  -302.431807891     A.U. after    2 cycles

 The electronic state is 1-A.
 Alpha  occ. eigenvalues --  -20.61901 -20.58282 -11.39964 -11.38174 -11.32240
 Alpha  occ. eigenvalues --  -11.31593  -1.52368  -1.49585  -1.11623  -0.99505
 Alpha  occ. eigenvalues --   -0.90304  -0.77664  -0.75193  -0.67908  -0.65941
 Alpha  occ. eigenvalues --   -0.58512  -0.57744  -0.47549  -0.46887  -0.45798
 Alpha  occ. eigenvalues --   -0.37138
 Alpha virt. eigenvalues --    0.01645   0.01882   0.03285   0.04419   0.07679
 Alpha virt. eigenvalues --    0.08290   0.08869   0.10284   0.10380   0.11827
 Alpha virt. eigenvalues --    0.13649   0.14414   0.15993   0.16067   0.17150

 Mulliken charges:
               1
     1  O   -1.041734
     2  C   -0.145692
     3  C    0.946125
     4  C    0.048700
     5  C    0.668223
     6  O   -1.060392
     7  H    0.433366
     8  H    0.151404
 Sum of Mulliken charges =  -0.00000

 Dipole moment (field-independent basis, Debye):
    X=              0.9287    Y=              2.3165    Z=              0.5011  Tot=              2.5455

 Test job not archived.
 1\1\GINC-SE141\SP\RHF\Aug-CC-pVDZ\C4H2O2\OHZDE\09-Apr-2025\0\\#t hf au
 g-cc-pvdz iop(5/13=1,5/36=2,99/5=2) pseudo=read geom=check guess=(read
 ,tcheck) scf=(maxcycle=1)\\title\\0,1\O,0,-2.92026905,-0.12338114,0.37
 517953\C,0,-1.79788904,-0.50821844,-0.20696194\C,0,-0.50913266,-0.0413
 9382,-0.0286654\C,0,0.71803205,0.14577944,-0.1266723\C,0,2.11934203,0.
 43656844,-0.11000687\O,0,2.90862737,-0.13364987,0.64050378\H,0,-2.9352
 342,-1.00695108,-0.44781419\H,0,2.4316185,1.22525548,-0.83143363\\Vers
 ion=ES64L-G16RevC.01\State=1-A\HF=-302.4318079\RMSD=2.439e-02\Dipole=-

 Normal termination of Gaussian 16 at Wed Apr  9 15:43:37 2025.
