 Gaussian 16, Revision C.01,

 ----------------------------------------------------------------------
 #t hf aug-cc-pvdz symm=none int=(grid=ultrafine) guess=(read,tcheck) s
 table=(opt,rrhf)
 ----------------------------------------------------------------------
 -----
 title
 -----
 Symbolic Z-matrix:
 Charge =  0 Multiplicity = 1

 SCF Done:  E(RHF) =  -302.714695795     A.U. after   19 cycles
 Normal termination of Gaussian 16 at Wed Apr  9 19:11:08 2025.
 Gaussian 16:  ES64L-G16RevC.01  3-Jul-2019

 ----------------------------------------------------------------------
 #t hf aug-cc-pvdz iop(5/13=1,5/36=2,99/5=2) pseudo=read geom=check gue
 ss=(read,tcheck) scf=(maxcycle=1)
 ----------------------------------------------------------------------
 -----
 title
 -----
 Structure from the checkpoint file:  "Grambow2020_wb97xd3_008840_reverse_mol1.chk"
 Charge =  0 Multiplicity = 1

                         Standard orientation:
 ---------------------------------------------------------------------
 Center     Atomic      Atomic             Coordinates (Angstroms)
 Number     Number       Type             X           Y           Z
 ---------------------------------------------------------------------
      1          6           0       -0.326613    1.559053   -0.152359
      2          6           0       -0.582949    0.073805   -0.112219
      3          6           0        0.527802   -0.768633   -0.561201
      4          6           0        1.846965   -0.532765   -0.082402
      5          7           0        2.577185    0.344365    0.366839
      6          6           0       -1.543733   -0.467174    0.902537
      7          7           0       -1.898877   -0.454297   -0.500144
      8          1           0        0.599704    1.807289    0.374006
      9          1           0       -0.218848    1.901595   -1.182707
     10          1           0       -1.142548    2.109614    0.318479
     11          1           0        0.290745   -1.758828   -0.930765
     12          1           0        2.084221   -1.605291    0.197286
     13          1           0       -1.992377    0.261155    1.570137
     14          1           0       -1.375074   -1.447789    1.330544
     15          1           0       -2.522811    0.316063   -0.709984
 ---------------------------------------------------------------------

 SCF Done:  E(RHF) =  -303.028571280     A.U. after    2 cycles

 The electronic state is 1-A.
 Alpha  occ. eigenvalues --  -15.52687 -15.50443 -11.31557 -11.29853 -11.29138
 Alpha  occ. eigenvalues --  -11.27239 -11.24552  -1.30377  -1.20532  -1.05855
 Alpha  occ. eigenvalues --   -0.98942  -0.92119  -0.85016  -0.73820  -0.72656
 Alpha  occ. eigenvalues --   -0.68351  -0.64071  -0.60378  -0.58473  -0.57528
 Alpha  occ. eigenvalues --   -0.54964  -0.53439  -0.52479  -0.46959  -0.44555
 Alpha  occ. eigenvalues --   -0.33767
 Alpha virt. eigenvalues --   -0.01305   0.03091   0.03799   0.04150   0.04716
 Alpha virt. eigenvalues --    0.05235   0.06108   0.06684   0.08021   0.09487
 Alpha virt. eigenvalues --    0.11299   0.12216   0.13244   0.13551   0.14281

 Mulliken charges:
               1
     1  C   -0.461568
     2  C   -1.348600
     3  C    0.448292
     4  C   -1.398974
     5  N    0.894325
     6  C    0.457595
     7  N    0.652072
     8  H    0.286529
     9  H    0.277343
    10  H    0.089644
    11  H   -0.160206
    12  H    0.121546
    13  H   -0.044907
    14  H   -0.079404
    15  H    0.266312
 Sum of Mulliken charges =  -0.00000

 Dipole moment (field-independent basis, Debye):
    X=             -4.2155    Y=             -0.8779    Z=              0.0197  Tot=              4.3060

 Test job not archived.
 1\1\GINC-SE159\SP\RHF\Aug-CC-pVDZ\C5H8N2\OHZDE\09-Apr-2025\0\\#t hf au
 g-cc-pvdz iop(5/13=1,5/36=2,99/5=2) pseudo=read geom=check guess=(read
 ,tcheck) scf=(maxcycle=1)\\title\\0,1\C,0,-0.90605924,1.18522577,0.124
 57719\C,0,-0.28232178,-0.15470498,-0.17344825\C,0,1.06761043,-0.108237
 77,-0.73964441\C,0,2.06283168,0.72463754,-0.15575501\N,0,2.21102867,1.
 7440358,0.51002316\C,0,-0.68681654,-1.33988516,0.64948924\N,0,-1.10366
 071,-1.23820889,-0.73243411\H,0,-0.23762777,1.79655429,0.73794598\H,0,
 -1.09489823,1.73400467,-0.79940634\H,0,-1.84770758,1.06720048,0.663023

 Normal termination of Gaussian 16 at Wed Apr  9 19:11:13 2025.
