 Gaussian 16, Revision C.01,

 ----------------------------------------------------------------------
 #t hf aug-cc-pvdz symm=none int=(grid=ultrafine) guess=(read,tcheck) s
 table=(opt,rrhf)
 ----------------------------------------------------------------------
 -----
 title
 -----
 Symbolic Z-matrix:
 Charge =  0 Multiplicity = 1

 SCF Done:  E(RHF) =  -268.677642768     A.U. after   16 cycles
 Normal termination of Gaussian 16 at Wed Apr  9 15:56:54 2025.
 Gaussian 16:  ES64L-G16RevC.01  3-Jul-2019

 ----------------------------------------------------------------------
 #t hf aug-cc-pvdz iop(5/13=1,5/36=2,99/5=2) pseudo=read geom=check gue
 ss=(read,tcheck) scf=(maxcycle=1)
 ----------------------------------------------------------------------
 -----
 title
 -----
 Structure from the checkpoint file:  "Grambow2020_b97d3_007033_reverse_mol1.chk"
 Charge =  0 Multiplicity = 1

                         Standard orientation:
 ---------------------------------------------------------------------
 Center     Atomic      Atomic             Coordinates (Angstroms)
 Number     Number       Type             X           Y           Z
 ---------------------------------------------------------------------
      1          6           0       -2.698375    0.006671    0.163033
      2          6           0       -1.244218   -0.152332   -0.090716
      3          6           0       -0.134318    0.423565   -0.336665
      4          6           0        1.159467    1.119207   -0.096730
      5          6           0        1.837511   -0.178215    0.419573
      6          8           0        1.087646   -1.162353   -0.280832
      7          1           0       -2.980364   -0.521278    1.084561
      8          1           0       -2.989475    1.062534    0.258374
      9          1           0       -3.279007   -0.441341   -0.656390
     10          1           0        1.619995    1.454442   -1.036714
     11          1           0        1.062655    1.974382    0.592318
     12          1           0        2.901902   -0.200820    0.134058
     13          1           0        1.768806   -0.252462    1.523061
     14          1           0       -0.326082   -1.090005   -0.003588
 ---------------------------------------------------------------------

 SCF Done:  E(RHF) =  -268.961206794     A.U. after    2 cycles

 The electronic state is 1-A.
 Alpha  occ. eigenvalues --  -20.45970 -11.34072 -11.27626 -11.27432 -11.27079
 Alpha  occ. eigenvalues --  -11.26445  -1.35326  -1.11074  -1.03780  -0.97608
 Alpha  occ. eigenvalues --   -0.83589  -0.70024  -0.65836  -0.64681  -0.64198
 Alpha  occ. eigenvalues --   -0.60302  -0.58578  -0.54856  -0.52456  -0.47181
 Alpha  occ. eigenvalues --   -0.42916  -0.35986  -0.34631
 Alpha virt. eigenvalues --    0.02575   0.03496   0.04166   0.04778   0.05958
 Alpha virt. eigenvalues --    0.06112   0.06775   0.07931   0.09926   0.10666
 Alpha virt. eigenvalues --    0.11815   0.12042   0.12922   0.13608   0.14486

 Mulliken charges:
               1
     1  C   -0.781751
     2  C   -0.297901
     3  C    0.639501
     4  C   -0.721418
     5  C    0.680126
     6  O   -1.444924
     7  H    0.254089
     8  H    0.185174
     9  H    0.276958
    10  H    0.182098
    11  H    0.176309
    12  H    0.055059
    13  H    0.091610
    14  H    0.705070
 Sum of Mulliken charges =  -0.00000

 Dipole moment (field-independent basis, Debye):
    X=             -2.4873    Y=              3.3608    Z=              1.2041  Tot=              4.3510

 Test job not archived.
 1\1\GINC-SE097\SP\RHF\Aug-CC-pVDZ\C5H8O1\OHZDE\09-Apr-2025\0\\#t hf au
 g-cc-pvdz iop(5/13=1,5/36=2,99/5=2) pseudo=read geom=check guess=(read
 ,tcheck) scf=(maxcycle=1)\\title\\0,1\C,0,2.51326198,0.37189849,-0.076
 66\C,0,1.03275278,0.48153387,-0.09438999\C,0,-0.06755631,0.00797326,-0
 .52923036\C,0,-1.28470152,-0.84506414,-0.60828654\C,0,-1.96096342,-0.1
 0558319,0.57723202\O,0,-1.35400866,1.17541861,0.46754454\H,0,2.8777916
 2,0.35474138,0.95981788\H,0,2.86805278,-0.53308523,-0.59027851\H,0,2.9
 6570553,1.24793101,-0.56365567\H,0,-1.83841922,-0.67588114,-1.54253129

 Normal termination of Gaussian 16 at Wed Apr  9 15:56:58 2025.
