 Gaussian 16, Revision C.01,

 ----------------------------------------------------------------------
 #t hf aug-cc-pvdz symm=none int=(grid=ultrafine) guess=(read,tcheck) s
 table=(opt,rrhf)
 ----------------------------------------------------------------------
 -----
 title
 -----
 Symbolic Z-matrix:
 Charge =  0 Multiplicity = 1

 SCF Done:  E(RHF) =  -284.685541195     A.U. after   16 cycles
 Normal termination of Gaussian 16 at Wed Apr  9 03:07:23 2025.
 Gaussian 16:  ES64L-G16RevC.01  3-Jul-2019

 ----------------------------------------------------------------------
 #t hf aug-cc-pvdz iop(5/13=1,5/36=2,99/5=2) pseudo=read geom=check gue
 ss=(read,tcheck) scf=(maxcycle=1)
 ----------------------------------------------------------------------
 -----
 title
 -----
 Structure from the checkpoint file:  "Grambow2020_b97d3_006558_reverse_mol2.chk"
 Charge =  0 Multiplicity = 1

                         Standard orientation:
 ---------------------------------------------------------------------
 Center     Atomic      Atomic             Coordinates (Angstroms)
 Number     Number       Type             X           Y           Z
 ---------------------------------------------------------------------
      1          8           0        1.560472    0.519269   -0.630627
      2          6           0        1.267904   -0.638957   -0.364633
      3          6           0        0.275565   -1.002850    0.716926
      4          7           0       -1.084893   -0.328608    0.669114
      5          6           0       -1.135364    0.976342   -0.078257
      6          6           0       -1.636961   -0.030340   -0.704920
      7          1           0        1.516053    2.314614    1.197511
      8          1           0        1.683590   -1.480765   -0.973153
      9          1           0        0.701994   -0.706390    1.687497
     10          1           0        0.096304   -2.087074    0.738386
     11          1           0        1.452387    2.832339    1.731859
     12          1           0       -0.855700    2.006126    0.085430
     13          1           0       -2.111022   -0.557913   -1.521005
 ---------------------------------------------------------------------

 SCF Done:  E(RHF) =  -284.976659387     A.U. after    2 cycles

 The electronic state is 1-A.
 Alpha  occ. eigenvalues --  -20.55756 -15.53074 -11.35211 -11.29528 -11.28748
 Alpha  occ. eigenvalues --  -11.27423  -1.47611  -1.27216  -1.04234  -0.89765
 Alpha  occ. eigenvalues --   -0.80742  -0.79360  -0.71108  -0.68771  -0.64396
 Alpha  occ. eigenvalues --   -0.61981  -0.59283  -0.58116  -0.51468  -0.50508
 Alpha  occ. eigenvalues --   -0.47624  -0.43526  -0.34538
 Alpha virt. eigenvalues --    0.03138   0.04319   0.04653   0.05045   0.05519
 Alpha virt. eigenvalues --    0.06613   0.07524   0.09028   0.09828   0.11090
 Alpha virt. eigenvalues --    0.12400   0.12922   0.13751   0.14247   0.14908

 Mulliken charges:
               1
     1  O   -1.140104
     2  C    1.119752
     3  C   -0.604802
     4  N    0.280011
     5  C    0.318200
     6  C    0.052225
     7  H   -0.085147
     8  H    0.168597
     9  H    0.218251
    10  H    0.120248
    11  H    0.074929
    12  H   -0.276323
    13  H   -0.245837
 Sum of Mulliken charges =  -0.00000

 Dipole moment (field-independent basis, Debye):
    X=             -0.1723    Y=             -1.5495    Z=             -1.1019  Tot=              1.9092

 Test job not archived.
 1\1\GINC-SE054\SP\RHF\Aug-CC-pVDZ\C4H7N1O1\OHZDE\09-Apr-2025\0\\#t hf
 aug-cc-pvdz iop(5/13=1,5/36=2,99/5=2) pseudo=read geom=check guess=(re
 ad,tcheck) scf=(maxcycle=1)\\title\\0,1\O,0,-1.27327863,-0.97542796,0.
 55693178\C,0,-1.47838539,0.15256697,0.12868461\C,0,-0.39198071,1.20028
 235,0.03412066\N,0,0.89031401,0.81107078,-0.68139962\C,0,1.17338548,-0
 .66528425,-0.74660372\C,0,0.74607348,-0.1433547,-1.84328508\H,0,0.5240
 8119,-1.37252764,2.33994409\H,0,-2.48317448,0.42815193,-0.2789704\H,0,
 -0.07571971,1.45964993,1.05610134\H,0,-0.76615529,2.11303118,-0.450667

 Normal termination of Gaussian 16 at Wed Apr  9 03:07:27 2025.
