 Gaussian 16, Revision C.01,

 ----------------------------------------------------------------------
 #t hf aug-cc-pvdz symm=none int=(grid=ultrafine) guess=(read,tcheck) s
 table=(opt,rrhf)
 ----------------------------------------------------------------------
 -----
 title
 -----
 Symbolic Z-matrix:
 Charge =  0 Multiplicity = 1

 SCF Done:  E(RHF) =  -283.540127275     A.U. after   16 cycles
 Normal termination of Gaussian 16 at Wed Apr  9 16:29:45 2025.
 Gaussian 16:  ES64L-G16RevC.01  3-Jul-2019

 ----------------------------------------------------------------------
 #t hf aug-cc-pvdz iop(5/13=1,5/36=2,99/5=2) pseudo=read geom=check gue
 ss=(read,tcheck) scf=(maxcycle=1)
 ----------------------------------------------------------------------
 -----
 title
 -----
 Structure from the checkpoint file:  "Grambow2020_wb97xd3_006125_reverse_mol1.chk"
 Charge =  0 Multiplicity = 1

                         Standard orientation:
 ---------------------------------------------------------------------
 Center     Atomic      Atomic             Coordinates (Angstroms)
 Number     Number       Type             X           Y           Z
 ---------------------------------------------------------------------
      1          7           0       -2.481801   -0.095279   -0.439231
      2          6           0       -1.451831   -0.023214    0.061841
      3          6           0       -0.136181    0.088794    0.690416
      4          6           0        0.866634   -0.957242    0.182802
      5          8           0        1.659873   -0.100529   -0.673846
      6          6           0        0.744587    1.233267    0.190859
      7          1           0       -0.268563    0.101151    1.773530
      8          1           0        0.435297   -1.748388   -0.424655
      9          1           0        1.478681   -1.388927    0.976043
     10          1           0        0.302369    1.802457   -0.627301
     11          1           0        2.006586    0.655260    0.012257
 ---------------------------------------------------------------------

 SCF Done:  E(RHF) =  -283.824696170     A.U. after    2 cycles

 The electronic state is 1-A.
 Alpha  occ. eigenvalues --  -20.60291 -15.52128 -11.33868 -11.31225 -11.31188
 Alpha  occ. eigenvalues --  -11.28683  -1.50316  -1.24641  -1.11147  -0.96291
 Alpha  occ. eigenvalues --   -0.85826  -0.76638  -0.70907  -0.68617  -0.64703
 Alpha  occ. eigenvalues --   -0.60881  -0.57182  -0.56734  -0.52569  -0.50145
 Alpha  occ. eigenvalues --   -0.48139  -0.38324
 Alpha virt. eigenvalues --    0.02713   0.03741   0.04468   0.04552   0.06664
 Alpha virt. eigenvalues --    0.07661   0.09175   0.09896   0.10551   0.12168
 Alpha virt. eigenvalues --    0.12368   0.14474   0.14927   0.15168   0.15473

 Mulliken charges:
               1
     1  N    0.972397
     2  C   -1.669599
     3  C   -0.057607
     4  C    0.913299
     5  O   -1.269616
     6  C   -0.000305
     7  H    0.118513
     8  H    0.072329
     9  H    0.070782
    10  H    0.109335
    11  H    0.740472
 Sum of Mulliken charges =   0.00000

 Dipole moment (field-independent basis, Debye):
    X=              3.1470    Y=             -0.8798    Z=              2.3401  Tot=              4.0192

 Test job not archived.
 1\1\GINC-SE097\SP\RHF\Aug-CC-pVDZ\C4H5N1O1\OHZDE\09-Apr-2025\0\\#t hf
 aug-cc-pvdz iop(5/13=1,5/36=2,99/5=2) pseudo=read geom=check guess=(re
 ad,tcheck) scf=(maxcycle=1)\\title\\0,1\N,0,1.85950972,-0.74114262,1.9
 9431137\C,0,1.2832593,-0.5789081,1.01516971\C,0,0.5554308,-0.35040591,
 -0.23248487\C,0,-0.96586492,-0.48970501,-0.07835771\O,0,-1.31620695,0.
 91524581,-0.09846934\C,0,0.41768153,1.10881762,-0.66471191\H,0,0.99156
 231,-0.98039389,-1.00947705\H,0,-1.2936208,-0.91347219,0.86713976\H,0,
 -1.43683167,-1.02034661,-0.90708797\H,0,0.83485718,1.81933411,0.049466

 Normal termination of Gaussian 16 at Wed Apr  9 16:29:49 2025.
