 Gaussian 16, Revision C.01,

 ----------------------------------------------------------------------
 #t hf aug-cc-pvdz symm=none int=(grid=ultrafine) guess=(read,tcheck) s
 table=(opt,rrhf)
 ----------------------------------------------------------------------
 -----
 title
 -----
 Symbolic Z-matrix:
 Charge =  0 Multiplicity = 1

 SCF Done:  E(RHF) =  -305.803333690     A.U. after   13 cycles
 Normal termination of Gaussian 16 at Wed Apr  9 17:00:10 2025.
 Gaussian 16:  ES64L-G16RevC.01  3-Jul-2019

 ----------------------------------------------------------------------
 #t hf aug-cc-pvdz iop(5/13=1,5/36=2,99/5=2) pseudo=read geom=check gue
 ss=(read,tcheck) scf=(maxcycle=1)
 ----------------------------------------------------------------------
 -----
 title
 -----
 Structure from the checkpoint file:  "Grambow2020_wb97xd3_006218_reverse_mol2.chk"
 Charge =  0 Multiplicity = 1

                         Standard orientation:
 ---------------------------------------------------------------------
 Center     Atomic      Atomic             Coordinates (Angstroms)
 Number     Number       Type             X           Y           Z
 ---------------------------------------------------------------------
      1          6           0        0.460743   -1.170379    0.131839
      2          8           0        1.618546   -0.641012   -0.556966
      3          6           0        1.443296    0.606789    0.093753
      4          6           0        0.156230    1.236713   -0.299105
      5          6           0        0.182442    0.173812    0.780215
      6          8           0       -2.928261   -0.201373   -0.043661
      7          1           0       -0.292576   -1.566865   -0.553075
      8          1           0       -2.095694    0.251593    0.117942
      9          1           0        0.764881   -1.938572    0.845071
     10          1           0        2.318623    1.137208    0.443783
     11          1           0       -0.250930    1.014942   -1.280613
     12          1           0       -0.002630    2.246233    0.059837
     13          1           0       -0.155807    0.342216    1.791726
     14          1           0       -3.264414    0.170717   -0.859863
 ---------------------------------------------------------------------

 SCF Done:  E(RHF) =  -306.122199658     A.U. after    2 cycles

 The electronic state is 1-A.
 Alpha  occ. eigenvalues --  -20.55290 -20.54848 -11.30399 -11.29673 -11.25501
 Alpha  occ. eigenvalues --  -11.25405  -1.48482  -1.43564  -1.14612  -0.96384
 Alpha  occ. eigenvalues --   -0.84511  -0.76933  -0.73589  -0.71003  -0.66298
 Alpha  occ. eigenvalues --   -0.65220  -0.57847  -0.57430  -0.55745  -0.52090
 Alpha  occ. eigenvalues --   -0.49432  -0.49045  -0.42350  -0.39207
 Alpha virt. eigenvalues --    0.03232   0.03472   0.04259   0.04531   0.06067
 Alpha virt. eigenvalues --    0.06735   0.07076   0.09193   0.10872   0.11439
 Alpha virt. eigenvalues --    0.13308   0.13611   0.14307   0.14498   0.15516

 Mulliken charges:
               1
     1  C    0.525266
     2  O   -1.394016
     3  C    1.327830
     4  C    0.111537
     5  C   -0.149105
     6  O   -0.898900
     7  H    0.078267
     8  H    0.669707
     9  H    0.036140
    10  H   -0.120503
    11  H   -0.143785
    12  H   -0.068119
    13  H   -0.300001
    14  H    0.325681
 Sum of Mulliken charges =  -0.00000

 Dipole moment (field-independent basis, Debye):
    X=              0.0280    Y=              1.9866    Z=              0.3413  Tot=              2.0159

 Test job not archived.
 1\1\GINC-SE173\SP\RHF\Aug-CC-pVDZ\C4H8O2\OHZDE\09-Apr-2025\0\\#t hf au
 g-cc-pvdz iop(5/13=1,5/36=2,99/5=2) pseudo=read geom=check guess=(read
 ,tcheck) scf=(maxcycle=1)\\title\\0,1\C,0,0.32478665,-0.26161671,-1.32
 967431\O,0,0.51222642,-1.63728904,-0.92030741\C,0,-0.5651115,-1.518771
 1,-0.00572921\C,0,-0.26035802,-0.51889313,1.0502299\C,0,-0.77351902,-0
 .06339957,-0.30053523\O,0,0.65621168,2.72555024,0.52021928\H,0,1.23212
 692,0.33757205,-1.22241881\H,0,0.17638591,1.90034403,0.63538693\H,0,-0
 .03603435,-0.22031711,-2.35895781\H,0,-1.25268192,-2.34751222,0.096725

 Normal termination of Gaussian 16 at Wed Apr  9 17:00:14 2025.
