 Gaussian 16, Revision C.01,

 ----------------------------------------------------------------------
 #t hf aug-cc-pvdz symm=none int=(grid=ultrafine) guess=(read,tcheck) s
 table=(opt,rrhf)
 ----------------------------------------------------------------------
 -----
 title
 -----
 Symbolic Z-matrix:
 Charge =  0 Multiplicity = 1

 SCF Done:  E(RHF) =  -286.671849901     A.U. after   16 cycles
 Normal termination of Gaussian 16 at Wed Apr  9 18:26:33 2025.
 Gaussian 16:  ES64L-G16RevC.01  3-Jul-2019

 ----------------------------------------------------------------------
 #t hf aug-cc-pvdz iop(5/13=1,5/36=2,99/5=2) pseudo=read geom=check gue
 ss=(read,tcheck) scf=(maxcycle=1)
 ----------------------------------------------------------------------
 -----
 title
 -----
 Structure from the checkpoint file:  "Grambow2020_wb97xd3_007556_reverse_mol1.chk"
 Charge =  0 Multiplicity = 1

                         Standard orientation:
 ---------------------------------------------------------------------
 Center     Atomic      Atomic             Coordinates (Angstroms)
 Number     Number       Type             X           Y           Z
 ---------------------------------------------------------------------
      1          6           0        0.054627    1.518457   -0.254967
      2          6           0        0.696050    0.306645   -0.083771
      3          6           0       -0.616978   -1.340093   -0.117048
      4          6           0       -1.807255   -0.727214    0.055223
      5          6           0       -2.398306    0.384051    0.115239
      6          6           0        1.931852   -0.331909   -0.531774
      7          7           0        1.626483   -0.132671    0.900989
      8          1           0       -0.044781    1.922023   -1.255353
      9          1           0        0.069108    2.236786    0.557425
     10          1           0       -1.417052    1.147552   -0.032173
     11          1           0       -0.139658   -1.830498    0.724602
     12          1           0       -0.413107   -1.778239   -1.089590
     13          1           0       -3.384569    0.793458    0.232291
     14          1           0        1.957644   -1.368403   -0.847520
     15          1           0        2.684707    0.301621   -0.989236
     16          1           0        2.142391    0.644772    1.295216
 ---------------------------------------------------------------------

 SCF Done:  E(RHF) =  -286.980115434     A.U. after    2 cycles

 The electronic state is 1-A.
 Alpha  occ. eigenvalues --  -15.51012 -11.29510 -11.27862 -11.25205 -11.24966
 Alpha  occ. eigenvalues --  -11.23280 -11.22563  -1.28610  -1.08601  -0.99142
 Alpha  occ. eigenvalues --   -0.95103  -0.91057  -0.78909  -0.72479  -0.69236
 Alpha  occ. eigenvalues --   -0.65447  -0.62524  -0.61645  -0.60081  -0.59185
 Alpha  occ. eigenvalues --   -0.53164  -0.51383  -0.45360  -0.38508  -0.37204
 Alpha  occ. eigenvalues --   -0.32053
 Alpha virt. eigenvalues --    0.03212   0.03780   0.04171   0.04577   0.05514
 Alpha virt. eigenvalues --    0.05992   0.06495   0.06946   0.08690   0.08860
 Alpha virt. eigenvalues --    0.09953   0.11857   0.12762   0.13275   0.14160

 Mulliken charges:
               1
     1  C   -0.845889
     2  C   -0.612357
     3  C   -0.295815
     4  C    0.253563
     5  C   -0.111629
     6  C    0.299265
     7  N    0.577872
     8  H    0.061321
     9  H    0.066705
    10  H    0.662767
    11  H    0.165942
    12  H    0.105000
    13  H   -0.258162
    14  H   -0.121202
    15  H   -0.108027
    16  H    0.160645
 Sum of Mulliken charges =   0.00000

 Dipole moment (field-independent basis, Debye):
    X=              1.2940    Y=              1.2385    Z=             -1.2287  Tot=              2.1721

 Test job not archived.
 1\1\GINC-SE045\SP\RHF\Aug-CC-pVDZ\C6H9N1\OHZDE\09-Apr-2025\0\\#t hf au
 g-cc-pvdz iop(5/13=1,5/36=2,99/5=2) pseudo=read geom=check guess=(read
 ,tcheck) scf=(maxcycle=1)\\title\\0,1\C,0,0.02625124,1.06519119,1.1609
 9714\C,0,-0.57973879,-0.01298987,0.54494451\C,0,0.69605262,-1.03574614
 ,-0.78291897\C,0,1.68501126,-0.13096243,-0.94223707\C,0,2.15421554,0.9
 6822456,-0.5428746\C,0,-1.49592613,-1.09028494,0.91331818\N,0,-1.81401
 843,-0.12164474,-0.15734037\H,0,0.51136811,0.91716169,2.11821669\H,0,-
 0.34930491,2.06211813,0.95781582\H,0,1.29025929,1.26174561,0.31441737\

 Normal termination of Gaussian 16 at Wed Apr  9 18:26:39 2025.
