 Gaussian 16, Revision C.01,

 ----------------------------------------------------------------------
 #t hf aug-cc-pvdz symm=none int=(grid=ultrafine) guess=(read,tcheck) s
 table=(opt,rrhf)
 ----------------------------------------------------------------------
 -----
 title
 -----
 Symbolic Z-matrix:
 Charge =  0 Multiplicity = 1

 SCF Done:  E(RHF) =  -320.621512652     A.U. after   14 cycles
 Normal termination of Gaussian 16 at Wed Apr  9 16:06:41 2025.
 Gaussian 16:  ES64L-G16RevC.01  3-Jul-2019

 ----------------------------------------------------------------------
 #t hf aug-cc-pvdz iop(5/13=1,5/36=2,99/5=2) pseudo=read geom=check gue
 ss=(read,tcheck) scf=(maxcycle=1)
 ----------------------------------------------------------------------
 -----
 title
 -----
 Structure from the checkpoint file:  "Grambow2020_b97d3_007124_forward_mol1.chk"
 Charge =  0 Multiplicity = 1

                         Standard orientation:
 ---------------------------------------------------------------------
 Center     Atomic      Atomic             Coordinates (Angstroms)
 Number     Number       Type             X           Y           Z
 ---------------------------------------------------------------------
      1          6           0       -2.564570   -0.201332    0.001532
      2          7           0       -1.181762   -0.698435   -0.006009
      3          6           0       -0.067666    0.030395    0.002899
      4          8           0       -0.116930    1.314056    0.000516
      5          6           0        1.926159    0.178485   -0.001828
      6          8           0        2.766519   -0.639989    0.001346
      7          1           0       -3.157614   -0.733700   -0.754151
      8          1           0       -3.028306   -0.345663    0.988098
      9          1           0       -2.543709    0.865078   -0.235444
     10          1           0       -1.055490   -1.705530    0.016451
     11          1           0        1.097195    1.371041   -0.003404
 ---------------------------------------------------------------------

 SCF Done:  E(RHF) =  -320.938902607     A.U. after    2 cycles

 The electronic state is 1-A.
 Alpha  occ. eigenvalues --  -20.60084 -20.56612 -15.55101 -11.36843 -11.33303
 Alpha  occ. eigenvalues --  -11.28745  -1.53238  -1.49172  -1.25300  -0.98507
 Alpha  occ. eigenvalues --   -0.84715  -0.81846  -0.72345  -0.68810  -0.67296
 Alpha  occ. eigenvalues --   -0.64991  -0.60360  -0.58009  -0.57555  -0.55639
 Alpha  occ. eigenvalues --   -0.47737  -0.45044  -0.36436
 Alpha virt. eigenvalues --    0.02856   0.04670   0.04945   0.05430   0.06824
 Alpha virt. eigenvalues --    0.08503   0.09122   0.10957   0.11919   0.13452
 Alpha virt. eigenvalues --    0.13732   0.13987   0.14273   0.16016   0.16604

 Mulliken charges:
               1
     1  C   -0.425277
     2  N    0.557173
     3  C    0.275758
     4  O   -1.443685
     5  C    0.500261
     6  O   -0.854582
     7  H    0.124114
     8  H    0.163863
     9  H    0.081473
    10  H    0.205246
    11  H    0.815654
 Sum of Mulliken charges =  -0.00000

 Dipole moment (field-independent basis, Debye):
    X=             -3.0797    Y=             -1.0867    Z=              0.0172  Tot=              3.2659

 Test job not archived.
 1\1\GINC-SE141\SP\RHF\Aug-CC-pVDZ\C3H5N1O2\OHZDE\09-Apr-2025\0\\#t hf
 aug-cc-pvdz iop(5/13=1,5/36=2,99/5=2) pseudo=read geom=check guess=(re
 ad,tcheck) scf=(maxcycle=1)\\title\\0,1\C,0,-1.44074286,1.174925,0.019
 68851\N,0,-0.78975279,-0.14211792,-0.01093053\C,0,0.51821255,-0.390393
 31,-0.0027184\O,0,1.373338,0.56806275,0.01578728\C,0,2.05685939,-1.666
 82107,-0.02701413\O,0,2.0941966,-2.83915143,-0.04605255\H,0,-2.2348589
 3,1.2174123,-0.73777284\H,0,-1.87788591,1.37392095,1.00888141\H,0,-0.6
 8512035,1.93278105,-0.20056892\H,0,-1.397601,-0.95524992,-0.00582584\H

 Normal termination of Gaussian 16 at Wed Apr  9 16:06:44 2025.
