 Gaussian 16, Revision C.01,

 ----------------------------------------------------------------------
 #t hf aug-cc-pvdz symm=none int=(grid=ultrafine) guess=(read,tcheck) s
 table=(opt,rrhf)
 ----------------------------------------------------------------------
 -----
 title
 -----
 Symbolic Z-matrix:
 Charge =  0 Multiplicity = 1

 SCF Done:  E(RHF) =  -271.126965707     A.U. after   14 cycles

 1\1\GINC-SE232\Stability\RHF\Aug-CC-pVDZ\C5H12O1\OHZDE\09-Apr-2025\0\\
 #t hf aug-cc-pvdz symm=none int=(grid=ultrafine) guess=(read,tcheck) s
 table=(opt,rrhf)\\title\\0,1\C,0,-2.34772277,-0.48069589,-0.24593756\C
 ,0,-2.07869266,0.91573395,-0.81830812\C,0,0.82072212,0.721504,1.063897
 47\O,0,0.14072249,0.12158265,2.01475526\C,0,1.4174651,-0.25343035,0.08
 316714\C,0,2.93506169,-0.02527203,-0.0710394\H,0,-3.21497942,-0.952234
 61,-0.72970215\H,0,-1.48551761,-1.14778025,-0.39696508\H,0,-2.55039245
 ,-0.43214961,0.83323758\H,0,-1.85086926,0.86891121,-1.89323733\H,0,-2.

 Normal termination of Gaussian 16 at Wed Apr  9 15:50:04 2025.
 Gaussian 16:  ES64L-G16RevC.01  3-Jul-2019

 ----------------------------------------------------------------------
 #t hf aug-cc-pvdz iop(5/13=1,5/36=2,99/5=2) pseudo=read geom=check gue
 ss=(read,tcheck) scf=(maxcycle=1)
 ----------------------------------------------------------------------
 -----
 title
 -----
 Structure from the checkpoint file:  "Grambow2020_b97d3_006797_reverse_mol2.chk"
 Charge =  0 Multiplicity = 1

                         Standard orientation:
 ---------------------------------------------------------------------
 Center     Atomic      Atomic             Coordinates (Angstroms)
 Number     Number       Type             X           Y           Z
 ---------------------------------------------------------------------
      1          6           0       -2.462085   -0.058217    0.709238
      2          6           0       -2.357696   -0.768932   -0.645010
      3          6           0        0.822201    0.599444   -0.698222
      4          8           0        0.339797    1.693863   -0.154191
      5          6           0        1.290377   -0.394659    0.331827
      6          6           0        2.748415   -0.822132    0.066636
      7          1           0       -3.375474   -0.350843    1.246453
      8          1           0       -1.607541   -0.304989    1.357364
      9          1           0       -2.482879    1.033211    0.581163
     10          1           0       -2.311499   -1.860611   -0.519825
     11          1           0       -3.227505   -0.542048   -1.277501
     12          1           0       -1.458233   -0.451996   -1.194189
     13          1           0        0.350648    1.686368    0.855301
     14          1           0        1.173172   -0.031524    1.382501
     15          1           0        0.636637   -1.276573    0.217503
     16          1           0        3.049983   -1.610637    0.768512
     17          1           0        2.852664   -1.201387   -0.957300
     18          1           0        3.434377    0.027104    0.186733
 ---------------------------------------------------------------------

 SCF Done:  E(RHF) =  -271.418452731     A.U. after    2 cycles

 The electronic state is 1-A.
 Alpha  occ. eigenvalues --  -20.61737 -11.30720 -11.25039 -11.24332 -11.22868
 Alpha  occ. eigenvalues --  -11.22354  -1.52219  -1.06087  -1.01934  -0.90346
 Alpha  occ. eigenvalues --   -0.84222  -0.82319  -0.68865  -0.64901  -0.61700
 Alpha  occ. eigenvalues --   -0.60270  -0.59810  -0.56753  -0.53565  -0.52376
 Alpha  occ. eigenvalues --   -0.51956  -0.49839  -0.49268  -0.49192  -0.36009
 Alpha virt. eigenvalues --    0.02961   0.03503   0.03851   0.04611   0.05700
 Alpha virt. eigenvalues --    0.05989   0.06073   0.07275   0.08502   0.09322
 Alpha virt. eigenvalues --    0.09490   0.09747   0.11209   0.12365   0.13454

 Mulliken charges:
               1
     1  C   -0.414159
     2  C   -0.377240
     3  C    0.650886
     4  O   -1.036760
     5  C   -0.485896
     6  C   -0.488871
     7  H    0.104136
     8  H    0.161049
     9  H    0.166190
    10  H    0.153599
    11  H    0.115455
    12  H    0.125589
    13  H    0.432103
    14  H    0.084093
    15  H    0.265643
    16  H    0.169886
    17  H    0.206154
    18  H    0.168144
 Sum of Mulliken charges =  -0.00000

 Dipole moment (field-independent basis, Debye):
    X=              0.3919    Y=             -0.7411    Z=              3.0211  Tot=              3.1353

 Test job not archived.
 1\1\GINC-SE232\SP\RHF\Aug-CC-pVDZ\C5H12O1\OHZDE\09-Apr-2025\0\\#t hf a
 ug-cc-pvdz iop(5/13=1,5/36=2,99/5=2) pseudo=read geom=check guess=(rea
 d,tcheck) scf=(maxcycle=1)\\title\\0,1\C,0,-2.34772277,-0.48069589,-0.
 24593756\C,0,-2.07869266,0.91573395,-0.81830812\C,0,0.82072212,0.72150
 4,1.06389747\O,0,0.14072249,0.12158265,2.01475526\C,0,1.4174651,-0.253
 43035,0.08316714\C,0,2.93506169,-0.02527203,-0.0710394\H,0,-3.21497942
 ,-0.95223461,-0.72970215\H,0,-1.48551761,-1.14778025,-0.39696508\H,0,-
 2.55039245,-0.43214961,0.83323758\H,0,-1.85086926,0.86891121,-1.893237

 Normal termination of Gaussian 16 at Wed Apr  9 15:50:09 2025.
