 Gaussian 16, Revision C.01,

 ----------------------------------------------------------------------
 #t hf aug-cc-pvdz symm=none int=(grid=ultrafine) guess=(read,tcheck) s
 table=(opt,rrhf)
 ----------------------------------------------------------------------
 -----
 title
 -----
 Symbolic Z-matrix:
 Charge =  0 Multiplicity = 1

 SCF Done:  E(RHF) =  -268.753735344     A.U. after   16 cycles
 Normal termination of Gaussian 16 at Wed Apr  9 03:21:06 2025.
 Gaussian 16:  ES64L-G16RevC.01  3-Jul-2019

 ----------------------------------------------------------------------
 #t hf aug-cc-pvdz iop(5/13=1,5/36=2,99/5=2) pseudo=read geom=check gue
 ss=(read,tcheck) scf=(maxcycle=1)
 ----------------------------------------------------------------------
 -----
 title
 -----
 Structure from the checkpoint file:  "Grambow2020_wb97xd3_006049_reverse_mol2.chk"
 Charge =  0 Multiplicity = 1

                         Standard orientation:
 ---------------------------------------------------------------------
 Center     Atomic      Atomic             Coordinates (Angstroms)
 Number     Number       Type             X           Y           Z
 ---------------------------------------------------------------------
      1          6           0       -1.692166   -1.160160   -0.003554
      2          8           0       -1.834842    0.264636    0.012527
      3          6           0       -0.815613    1.073159    0.003470
      4          6           0        0.537743    0.846050   -0.015191
      5          6           0        1.133831   -0.425049   -0.027469
      6          6           0        2.616276   -0.376056    0.003833
      7          1           0       -1.119022   -1.490441    0.860182
      8          1           0       -2.712059   -1.539251    0.011969
      9          1           0       -1.153785   -1.473280   -0.895511
     10          1           0        1.121149    1.775952   -0.021530
     11          1           0       -1.173765    2.101254    0.016373
     12          1           0        3.085878    0.607467   -0.155171
     13          1           0        2.904645   -0.736764    1.000303
     14          1           0        3.045271   -1.109690   -0.683364
 ---------------------------------------------------------------------

 SCF Done:  E(RHF) =  -269.032343473     A.U. after    2 cycles

 The electronic state is 1-A.
 Alpha  occ. eigenvalues --  -20.60784 -11.35312 -11.29211 -11.22665 -11.21874
 Alpha  occ. eigenvalues --  -11.21763  -1.54291  -1.07995  -1.01259  -0.95863
 Alpha  occ. eigenvalues --   -0.82804  -0.75340  -0.72064  -0.66624  -0.63073
 Alpha  occ. eigenvalues --   -0.59673  -0.56135  -0.55523  -0.54194  -0.51976
 Alpha  occ. eigenvalues --   -0.49205  -0.37184  -0.32207
 Alpha virt. eigenvalues --    0.03383   0.04078   0.04369   0.05224   0.05713
 Alpha virt. eigenvalues --    0.06357   0.06538   0.07448   0.08830   0.10233
 Alpha virt. eigenvalues --    0.12227   0.12698   0.13462   0.14250   0.14398

 Mulliken charges:
               1
     1  C    0.403536
     2  O   -1.417072
     3  C    0.704147
     4  C    1.117255
     5  C   -0.708032
     6  C   -0.715764
     7  H    0.221058
     8  H   -0.042567
     9  H    0.215302
    10  H   -0.218289
    11  H   -0.075760
    12  H    0.083662
    13  H    0.256240
    14  H    0.176285
 Sum of Mulliken charges =   0.00000

 Dipole moment (field-independent basis, Debye):
    X=             -1.0811    Y=              0.9257    Z=              0.1125  Tot=              1.4277

 Test job not archived.
 1\1\GINC-SE143\SP\RHF\Aug-CC-pVDZ\C5H8O1\OHZDE\09-Apr-2025\0\\#t hf au
 g-cc-pvdz iop(5/13=1,5/36=2,99/5=2) pseudo=read geom=check guess=(read
 ,tcheck) scf=(maxcycle=1)\\title\\0,1\C,0,-2.15705677,0.47401187,-0.15
 112138\O,0,-1.93863426,-0.84051192,-0.6755026\C,0,-0.74988466,-1.34276
 164,-0.84054779\C,0,0.50320502,-0.83635741,-0.60217557\C,0,0.76222405,
 0.44376307,-0.08703869\C,0,2.21012629,0.74805853,0.02252349\H,0,-1.670
 95256,1.21578821,-0.78127202\H,0,-3.23895996,0.59028259,-0.14118545\H,
 0,-1.72844001,0.55645485,0.84536078\H,0,1.30043094,-1.54648408,-0.8576

 Normal termination of Gaussian 16 at Wed Apr  9 03:21:10 2025.
