 Gaussian 16, Revision C.01,

 ----------------------------------------------------------------------
 #t hf aug-cc-pvdz symm=none int=(grid=ultrafine) guess=(read,tcheck) s
 table=(opt,rrhf)
 ----------------------------------------------------------------------
 -----
 title
 -----
 Symbolic Z-matrix:
 Charge =  0 Multiplicity = 1

 SCF Done:  E(RHF) =  -306.563199832     A.U. after   16 cycles
 Normal termination of Gaussian 16 at Wed Apr  9 18:54:53 2025.
 Gaussian 16:  ES64L-G16RevC.01  3-Jul-2019

 ----------------------------------------------------------------------
 #t hf aug-cc-pvdz iop(5/13=1,5/36=2,99/5=2) pseudo=read geom=check gue
 ss=(read,tcheck) scf=(maxcycle=1)
 ----------------------------------------------------------------------
 -----
 title
 -----
 Structure from the checkpoint file:  "Grambow2020_wb97xd3_008212_forward_mol1.chk"
 Charge =  0 Multiplicity = 1

                         Standard orientation:
 ---------------------------------------------------------------------
 Center     Atomic      Atomic             Coordinates (Angstroms)
 Number     Number       Type             X           Y           Z
 ---------------------------------------------------------------------
      1          6           0        1.163165   -0.748463   -0.583388
      2          8           0        1.674324    0.489022   -0.131976
      3          6           0        0.618852    0.918746    0.702213
      4          6           0       -0.596710    1.327643   -0.039822
      5          6           0       -1.583624    0.485779   -0.327288
      6          6           0       -1.353784   -0.952428    0.048239
      7          6           0        0.088876   -1.035901    0.485770
      8          1           0        0.717402   -0.679604   -1.583154
      9          1           0        1.971090   -1.482233   -0.608568
     10          1           0        0.317936   -0.141877    1.374101
     11          1           0       -0.657050    2.388228   -0.262602
     12          1           0       -2.516839    0.801829   -0.778628
     13          1           0       -2.021289   -1.275995    0.852649
     14          1           0       -1.544862   -1.621931   -0.800337
     15          1           0        0.318366   -1.872850    1.148004
 ---------------------------------------------------------------------

 SCF Done:  E(RHF) =  -306.880996235     A.U. after    2 cycles

 The electronic state is 1-A.
 Alpha  occ. eigenvalues --  -20.55010 -11.30283 -11.29822 -11.29157 -11.25879
 Alpha  occ. eigenvalues --  -11.24317 -11.24091  -1.48349  -1.14148  -1.03121
 Alpha  occ. eigenvalues --   -0.95487  -0.92700  -0.79038  -0.74903  -0.69379
 Alpha  occ. eigenvalues --   -0.68328  -0.63759  -0.62326  -0.58754  -0.57266
 Alpha  occ. eigenvalues --   -0.55995  -0.51468  -0.49313  -0.44383  -0.38981
 Alpha  occ. eigenvalues --   -0.30737
 Alpha virt. eigenvalues --    0.02784   0.03346   0.03732   0.04531   0.05810
 Alpha virt. eigenvalues --    0.06216   0.06683   0.07366   0.09231   0.11589
 Alpha virt. eigenvalues --    0.12637   0.12879   0.13545   0.13734   0.14055

 Mulliken charges:
               1
     1  C    0.781381
     2  O   -1.255646
     3  C   -0.163474
     4  C    0.539567
     5  C    0.310782
     6  C   -0.498123
     7  C   -0.557582
     8  H    0.123148
     9  H    0.028273
    10  H    0.619585
    11  H   -0.105383
    12  H   -0.112937
    13  H    0.157460
    14  H    0.160373
    15  H   -0.027424
 Sum of Mulliken charges =  -0.00000

 Dipole moment (field-independent basis, Debye):
    X=             -2.2185    Y=             -3.1339    Z=             -1.0578  Tot=              3.9827

 Test job not archived.
 1\1\GINC-SE232\SP\RHF\Aug-CC-pVDZ\C6H8O1\OHZDE\09-Apr-2025\0\\#t hf au
 g-cc-pvdz iop(5/13=1,5/36=2,99/5=2) pseudo=read geom=check guess=(read
 ,tcheck) scf=(maxcycle=1)\\title\\0,1\C,0,-1.32628723,-0.58681787,-0.6
 363007\O,0,-0.85756008,-1.83281843,-0.16279905\C,0,0.14258819,-1.40950
 257,0.7400089\C,0,1.34306709,-0.84841197,0.07711178\C,0,1.47942945,0.4
 4532628,-0.1931031\C,0,0.28884459,1.31189986,0.11323722\C,0,-0.8275740
 9,0.36142681,0.47362493\H,0,-0.89617651,-0.31787822,-1.60874842\H,0,-2
 .41316151,-0.62533326,-0.73125451\H,0,-0.42464276,-0.44481196,1.383846

 Normal termination of Gaussian 16 at Wed Apr  9 18:54:59 2025.
