 Gaussian 16, Revision C.01,

 ----------------------------------------------------------------------
 #t hf aug-cc-pvdz symm=none int=(grid=ultrafine) guess=(read,tcheck) s
 table=(opt,rrhf)
 ----------------------------------------------------------------------
 -----
 title
 -----
 Symbolic Z-matrix:
 Charge =  0 Multiplicity = 1

 SCF Done:  E(RHF) =  -304.502099441     A.U. after   14 cycles
 Normal termination of Gaussian 16 at Wed Apr  9 03:14:52 2025.
 Gaussian 16:  ES64L-G16RevC.01  3-Jul-2019

 ----------------------------------------------------------------------
 #t hf aug-cc-pvdz iop(5/13=1,5/36=2,99/5=2) pseudo=read geom=check gue
 ss=(read,tcheck) scf=(maxcycle=1)
 ----------------------------------------------------------------------
 -----
 title
 -----
 Structure from the checkpoint file:  "Grambow2020_b97d3_006928_forward_mol1.chk"
 Charge =  0 Multiplicity = 1

                         Standard orientation:
 ---------------------------------------------------------------------
 Center     Atomic      Atomic             Coordinates (Angstroms)
 Number     Number       Type             X           Y           Z
 ---------------------------------------------------------------------
      1          8           0       -1.799069   -0.644336   -0.225201
      2          6           0       -0.519112   -0.317235   -0.129526
      3          6           0       -0.343500    1.309048    0.547686
      4          6           0        0.463637    0.688774   -0.630571
      5          8           0        1.589101   -0.051460   -0.141222
      6          6           0        0.697525   -1.083292    0.384887
      7          1           0       -1.528223    0.400915    0.530397
      8          1           0       -0.987576    2.104300    0.157398
      9          1           0        0.201621    1.513269    1.469514
     10          1           0        0.595157    1.238316   -1.563323
     11          1           0        0.789033   -1.243876    1.466374
     12          1           0        0.818433   -2.030321   -0.163833
 ---------------------------------------------------------------------

 SCF Done:  E(RHF) =  -304.812523196     A.U. after    2 cycles

 The electronic state is 1-A.
 Alpha  occ. eigenvalues --  -20.57340 -20.51956 -11.38082 -11.33199 -11.32152
 Alpha  occ. eigenvalues --  -11.26824  -1.49998  -1.44305  -1.11671  -0.98920
 Alpha  occ. eigenvalues --   -0.87727  -0.77914  -0.71302  -0.68811  -0.67399
 Alpha  occ. eigenvalues --   -0.61876  -0.59292  -0.57564  -0.55014  -0.52670
 Alpha  occ. eigenvalues --   -0.46161  -0.39439  -0.36308
 Alpha virt. eigenvalues --    0.03435   0.03768   0.04099   0.05216   0.06191
 Alpha virt. eigenvalues --    0.06858   0.09296   0.10248   0.11570   0.12827
 Alpha virt. eigenvalues --    0.13186   0.14045   0.14511   0.15063   0.15541

 Mulliken charges:
               1
     1  O   -1.645437
     2  C    0.838075
     3  C   -0.465118
     4  C    1.428767
     5  O   -1.384880
     6  C    0.478353
     7  H    0.432024
     8  H    0.062628
     9  H   -0.035332
    10  H   -0.035484
    11  H    0.160537
    12  H    0.165867
 Sum of Mulliken charges =  -0.00000

 Dipole moment (field-independent basis, Debye):
    X=              1.1238    Y=              1.3531    Z=              0.8103  Tot=              1.9366

 Test job not archived.
 1\1\GINC-SE186\SP\RHF\Aug-CC-pVDZ\C4H6O2\OHZDE\09-Apr-2025\0\\#t hf au
 g-cc-pvdz iop(5/13=1,5/36=2,99/5=2) pseudo=read geom=check guess=(read
 ,tcheck) scf=(maxcycle=1)\\title\\0,1\O,0,0.24196495,-1.53293889,-1.25
 521391\C,0,0.28472309,-0.40754036,-0.55801214\C,0,-1.14777147,-0.26119
 591,0.47193753\C,0,-0.46869209,0.86609785,-0.36026426\O,0,0.59734083,1
 .47282936,0.38103687\C,0,1.4028284,0.26157537,0.2381001\H,0,-0.6003494
 8,-1.45070843,-0.24497537\H,0,-2.12562659,-0.48681474,0.03321232\H,0,-
 1.09314904,-0.17816933,1.55764063\H,0,-1.06315878,1.51667453,-1.002667

 Normal termination of Gaussian 16 at Wed Apr  9 03:14:56 2025.
