 Gaussian 16, Revision C.01,

 ----------------------------------------------------------------------
 #t hf aug-cc-pvdz symm=none int=(grid=ultrafine) guess=(read,tcheck) s
 table=(opt,rrhf)
 ----------------------------------------------------------------------
 -----
 title
 -----
 Symbolic Z-matrix:
 Charge =  0 Multiplicity = 1

 SCF Done:  E(RHF) =  -267.492720283     A.U. after   17 cycles
 Normal termination of Gaussian 16 at Wed Apr  9 03:21:26 2025.
 Gaussian 16:  ES64L-G16RevC.01  3-Jul-2019

 ----------------------------------------------------------------------
 #t hf aug-cc-pvdz iop(5/13=1,5/36=2,99/5=2) pseudo=read geom=check gue
 ss=(read,tcheck) scf=(maxcycle=1)
 ----------------------------------------------------------------------
 -----
 title
 -----
 Structure from the checkpoint file:  "Grambow2020_wb97xd3_006081_reverse_mol1.chk"
 Charge =  0 Multiplicity = 1

                         Standard orientation:
 ---------------------------------------------------------------------
 Center     Atomic      Atomic             Coordinates (Angstroms)
 Number     Number       Type             X           Y           Z
 ---------------------------------------------------------------------
      1          8           0       -1.325511   -0.780976   -0.662030
      2          6           0       -0.809785   -0.530541    0.479220
      3          6           0       -0.500616    0.956466    0.707350
      4          6           0        0.419742    1.181666   -0.483660
      5          6           0        1.302084    0.141794   -0.318001
      6          6           0        1.482839   -1.005793    0.139128
      7          1           0       -0.993066   -1.274092    1.249895
      8          1           0       -0.042887    1.094147    1.691368
      9          1           0       -1.445095    1.514651    0.680186
     10          1           0       -0.909246   -0.033235   -1.225795
     11          1           0        0.552776    2.092688   -1.040822
     12          1           0        2.076015   -1.607906    0.797180
 ---------------------------------------------------------------------

 SCF Done:  E(RHF) =  -267.767123074     A.U. after    2 cycles

 The electronic state is 1-A.
 Alpha  occ. eigenvalues --  -20.62800 -11.41457 -11.27234 -11.25711 -11.20952
 Alpha  occ. eigenvalues --  -11.20393  -1.57090  -1.12122  -0.99872  -0.93799
 Alpha  occ. eigenvalues --   -0.85028  -0.74764  -0.71909  -0.68875  -0.64676
 Alpha  occ. eigenvalues --   -0.62299  -0.57813  -0.56525  -0.52512  -0.43129
 Alpha  occ. eigenvalues --   -0.37853  -0.27087
 Alpha virt. eigenvalues --    0.02840   0.03645   0.04100   0.04781   0.05753
 Alpha virt. eigenvalues --    0.06375   0.06764   0.09411   0.10904   0.11267
 Alpha virt. eigenvalues --    0.12534   0.13678   0.13928   0.14804   0.15257

 Mulliken charges:
               1
     1  O   -1.318788
     2  C    1.290583
     3  C   -0.379183
     4  C    0.046350
     5  C    0.083666
     6  C   -0.179299
     7  H    0.033370
     8  H    0.098947
     9  H    0.115526
    10  H    0.613770
    11  H   -0.189350
    12  H   -0.215591
 Sum of Mulliken charges =  -0.00000

 Dipole moment (field-independent basis, Debye):
    X=             -2.5261    Y=              0.1681    Z=              2.3584  Tot=              3.4600

 Test job not archived.
 1\1\GINC-SE021\SP\RHF\Aug-CC-pVDZ\C5H6O1\OHZDE\09-Apr-2025\0\\#t hf au
 g-cc-pvdz iop(5/13=1,5/36=2,99/5=2) pseudo=read geom=check guess=(read
 ,tcheck) scf=(maxcycle=1)\\title\\0,1\O,0,-1.398335,-1.04935046,-0.290
 8948\C,0,-0.74593158,-0.57930307,0.70135905\C,0,-0.44277993,0.92213928
 ,0.58916168\C,0,0.31181189,0.90261431,-0.73238639\C,0,1.23076263,-0.08
 716172,-0.48103896\C,0,1.49391035,-1.12180809,0.16615202\H,0,-0.812325
 1,-1.15423336,1.62084075\H,0,0.13440441,1.25068414,1.45846006\H,0,-1.3
 9496317,1.46758579,0.57557416\H,0,-1.07446114,-0.43015122,-1.04050871\

 Normal termination of Gaussian 16 at Wed Apr  9 03:21:29 2025.
