 Gaussian 16, Revision C.01,

 ----------------------------------------------------------------------
 #t hf aug-cc-pvdz symm=none int=(grid=ultrafine) guess=(read,tcheck) s
 table=(opt,rrhf)
 ----------------------------------------------------------------------
 -----
 title
 -----
 Symbolic Z-matrix:
 Charge =  0 Multiplicity = 1

 SCF Done:  E(RHF) =  -307.755699987     A.U. after   14 cycles

 1\1\GINC-SE035\Stability\RHF\Aug-CC-pVDZ\C6H10O1\OHZDE\09-Apr-2025\0\\
 #t hf aug-cc-pvdz symm=none int=(grid=ultrafine) guess=(read,tcheck) s
 table=(opt,rrhf)\\title\\0,1\C,0,2.30892389,0.03631319,0.09772674\C,0,
 0.82472809,-0.12695242,0.06172097\C,0,0.11130511,-1.13884401,0.5281508
 2\C,0,-1.38216381,-1.01631313,0.42253514\C,0,-1.6626783,0.22284388,-0.
 40785677\C,0,0.06206036,1.04005485,-0.50304586\O,0,0.01381571,2.169196
 27,0.19721742\H,0,2.56594632,0.94003798,0.65408495\H,0,2.71791527,0.14
 647884,-0.91037297\H,0,2.78719545,-0.81995626,0.57204864\H,0,0.5622328

 Normal termination of Gaussian 16 at Wed Apr  9 18:34:58 2025.
 Gaussian 16:  ES64L-G16RevC.01  3-Jul-2019

 ----------------------------------------------------------------------
 #t hf aug-cc-pvdz iop(5/13=1,5/36=2,99/5=2) pseudo=read geom=check gue
 ss=(read,tcheck) scf=(maxcycle=1)
 ----------------------------------------------------------------------
 -----
 title
 -----
 Structure from the checkpoint file:  "Grambow2020_wb97xd3_007732_forward_mol1.chk"
 Charge =  0 Multiplicity = 1

                         Standard orientation:
 ---------------------------------------------------------------------
 Center     Atomic      Atomic             Coordinates (Angstroms)
 Number     Number       Type             X           Y           Z
 ---------------------------------------------------------------------
      1          6           0       -2.213422   -0.572770    0.105062
      2          6           0       -0.724754   -0.452375    0.092289
      3          6           0        0.159942   -1.394103   -0.192164
      4          6           0        1.604737   -0.982810   -0.196898
      5          6           0        1.658501    0.435510    0.340899
      6          6           0       -0.187989    0.927203    0.359083
      7          8           0       -0.364759    1.869312   -0.562242
      8          1           0       -2.645108    0.128491   -0.612011
      9          1           0       -2.620484   -0.324931    1.089212
     10          1           0       -2.528329   -1.583112   -0.153711
     11          1           0       -0.125650   -2.409946   -0.442947
     12          1           0        2.013106   -1.044039   -1.209811
     13          1           0        2.210067   -1.654794    0.417163
     14          1           0        1.852308    0.515811    1.406535
     15          1           0        2.399401    1.074127   -0.165326
     16          1           0       -0.284440    1.243056    1.412144
     17          1           0        0.865110    1.336908   -0.292942
 ---------------------------------------------------------------------

 SCF Done:  E(RHF) =  -308.082471490     A.U. after    2 cycles

 The electronic state is 1-A.
 Alpha  occ. eigenvalues --  -20.47707 -11.35195 -11.26586 -11.25438 -11.24737
 Alpha  occ. eigenvalues --  -11.24154 -11.23693  -1.41173  -1.14051  -1.04265
 Alpha  occ. eigenvalues --   -0.95934  -0.92128  -0.82925  -0.74239  -0.70448
 Alpha  occ. eigenvalues --   -0.66384  -0.62764  -0.61008  -0.58655  -0.55860
 Alpha  occ. eigenvalues --   -0.54717  -0.54503  -0.53481  -0.51744  -0.38645
 Alpha  occ. eigenvalues --   -0.36587  -0.35944
 Alpha virt. eigenvalues --    0.02952   0.03438   0.03544   0.04594   0.05632
 Alpha virt. eigenvalues --    0.05643   0.06600   0.07272   0.08814   0.09114
 Alpha virt. eigenvalues --    0.10907   0.12576   0.12682   0.13589   0.14074

 Mulliken charges:
               1
     1  C   -0.643195
     2  C    0.705911
     3  C    0.115562
     4  C   -0.492135
     5  C   -0.470026
     6  C    0.514630
     7  O   -1.560632
     8  H    0.265430
     9  H    0.244573
    10  H    0.110073
    11  H   -0.196537
    12  H    0.226536
    13  H    0.213941
    14  H    0.134441
    15  H    0.143878
    16  H    0.216311
    17  H    0.471240
 Sum of Mulliken charges =   0.00000

 Dipole moment (field-independent basis, Debye):
    X=              1.8615    Y=             -2.8845    Z=              1.8714  Tot=              3.9099

 Test job not archived.
 1\1\GINC-SE035\SP\RHF\Aug-CC-pVDZ\C6H10O1\OHZDE\09-Apr-2025\0\\#t hf a
 ug-cc-pvdz iop(5/13=1,5/36=2,99/5=2) pseudo=read geom=check guess=(rea
 d,tcheck) scf=(maxcycle=1)\\title\\0,1\C,0,2.30892389,0.03631319,0.097
 72674\C,0,0.82472809,-0.12695242,0.06172097\C,0,0.11130511,-1.13884401
 ,0.52815082\C,0,-1.38216381,-1.01631313,0.42253514\C,0,-1.6626783,0.22
 284388,-0.40785677\C,0,0.06206036,1.04005485,-0.50304586\O,0,0.0138157
 1,2.16919627,0.19721742\H,0,2.56594632,0.94003798,0.65408495\H,0,2.717
 91527,0.14647884,-0.91037297\H,0,2.78719545,-0.81995626,0.57204864\H,0

 Normal termination of Gaussian 16 at Wed Apr  9 18:35:04 2025.
