 Gaussian 16, Revision C.01,

 ----------------------------------------------------------------------
 #t hf aug-cc-pvdz symm=none int=(grid=ultrafine) guess=(read,tcheck) s
 table=(opt,rrhf)
 ----------------------------------------------------------------------
 -----
 title
 -----
 Symbolic Z-matrix:
 Charge =  0 Multiplicity = 1

 SCF Done:  E(RHF) =  -380.580996518     A.U. after   16 cycles
 Normal termination of Gaussian 16 at Wed Apr  9 18:23:48 2025.
 Gaussian 16:  ES64L-G16RevC.01  3-Jul-2019

 ----------------------------------------------------------------------
 #t hf aug-cc-pvdz iop(5/13=1,5/36=2,99/5=2) pseudo=read geom=check gue
 ss=(read,tcheck) scf=(maxcycle=1)
 ----------------------------------------------------------------------
 -----
 title
 -----
 Structure from the checkpoint file:  "Grambow2020_wb97xd3_007513_forward_mol1.chk"
 Charge =  0 Multiplicity = 1

                         Standard orientation:
 ---------------------------------------------------------------------
 Center     Atomic      Atomic             Coordinates (Angstroms)
 Number     Number       Type             X           Y           Z
 ---------------------------------------------------------------------
      1          8           0        1.724676   -1.215728   -0.390335
      2          6           0        2.013924    0.132367   -0.057663
      3          6           0        0.894994    0.623349    0.844402
      4          6           0       -0.416995    0.635320    0.084888
      5          8           0       -0.656058    1.420846   -0.784857
      6          6           0       -1.475672   -0.425482    0.485768
      7          8           0       -2.541633   -0.624365   -0.239194
      8          1           0        2.298061   -1.499799   -1.103164
      9          1           0        2.051778    0.759794   -0.954297
     10          1           0        2.973732    0.207152    0.464850
     11          1           0        1.107643    1.644882    1.164415
     12          1           0        0.836597   -0.013586    1.731244
     13          1           0       -0.593801   -1.506074    0.367554
     14          1           0       -1.546991   -0.485202    1.592688
     15          1           0       -1.440412   -1.546507   -0.092575
 ---------------------------------------------------------------------

 SCF Done:  E(RHF) =  -380.968361987     A.U. after    2 cycles

 The electronic state is 1-A.
 Alpha  occ. eigenvalues --  -20.57949 -20.56073 -20.49025 -11.37777 -11.35615
 Alpha  occ. eigenvalues --  -11.31748 -11.26895  -1.50063  -1.48271  -1.42754
 Alpha  occ. eigenvalues --   -1.08993  -0.98996  -0.88865  -0.79079  -0.74521
 Alpha  occ. eigenvalues --   -0.73876  -0.70534  -0.66444  -0.63991  -0.60624
 Alpha  occ. eigenvalues --   -0.59419  -0.58006  -0.53624  -0.51279  -0.47822
 Alpha  occ. eigenvalues --   -0.45957  -0.39589  -0.38427
 Alpha virt. eigenvalues --    0.02440   0.02981   0.03357   0.04543   0.05849
 Alpha virt. eigenvalues --    0.06195   0.06881   0.08376   0.09152   0.10782
 Alpha virt. eigenvalues --    0.12208   0.13012   0.13392   0.14129   0.14734

 Mulliken charges:
               1
     1  O   -1.191910
     2  C    0.659283
     3  C   -0.412103
     4  C    1.573505
     5  O   -1.441720
     6  C    0.612809
     7  O   -1.386090
     8  H    0.333574
     9  H    0.144340
    10  H    0.098950
    11  H    0.218011
    12  H    0.113448
    13  H    0.381128
    14  H    0.224645
    15  H    0.072128
 Sum of Mulliken charges =  -0.00000

 Dipole moment (field-independent basis, Debye):
    X=              5.8109    Y=             -1.3748    Z=              2.5191  Tot=              6.4809

 Test job not archived.
 1\1\GINC-SE014\SP\RHF\Aug-CC-pVDZ\C4H8O3\OHZDE\09-Apr-2025\0\\#t hf au
 g-cc-pvdz iop(5/13=1,5/36=2,99/5=2) pseudo=read geom=check guess=(read
 ,tcheck) scf=(maxcycle=1)\\title\\0,1\O,0,-0.9056434,1.60354589,0.0300
 4639\C,0,-1.52922201,0.38616134,-0.34521242\C,0,-0.83797693,-0.7283833
 9,0.42079036\C,0,0.61199538,-0.83247274,-0.00940316\O,0,0.94249295,-1.
 24660697,-1.08174793\C,0,1.68721969,-0.38207773,1.01423742\O,0,2.93637
 355,-0.24281639,0.66549921\H,0,-1.18025097,2.30113885,-0.5662305\H,0,-
 1.42045271,0.20275465,-1.41926088\H,0,-2.59606247,0.4025805,-0.0973683

 Normal termination of Gaussian 16 at Wed Apr  9 18:23:53 2025.
