 Gaussian 16, Revision C.01,

 ----------------------------------------------------------------------
 #t hf aug-cc-pvdz symm=none int=(grid=ultrafine) guess=(read,tcheck) s
 table=(opt,rrhf)
 ----------------------------------------------------------------------
 -----
 title
 -----
 Symbolic Z-matrix:
 Charge =  0 Multiplicity = 1

 SCF Done:  E(RHF) =  -268.816255162     A.U. after   14 cycles
 Normal termination of Gaussian 16 at Wed Apr  9 17:09:17 2025.
 Gaussian 16:  ES64L-G16RevC.01  3-Jul-2019

 ----------------------------------------------------------------------
 #t hf aug-cc-pvdz iop(5/13=1,5/36=2,99/5=2) pseudo=read geom=check gue
 ss=(read,tcheck) scf=(maxcycle=1)
 ----------------------------------------------------------------------
 -----
 title
 -----
 Structure from the checkpoint file:  "Grambow2020_wb97xd3_006263_reverse_mol2.chk"
 Charge =  0 Multiplicity = 1

                         Standard orientation:
 ---------------------------------------------------------------------
 Center     Atomic      Atomic             Coordinates (Angstroms)
 Number     Number       Type             X           Y           Z
 ---------------------------------------------------------------------
      1          6           0        1.727453   -1.188443   -0.253891
      2          6           0        1.063183   -0.066537    0.505490
      3          6           0        1.022696    1.342385   -0.085075
      4          6           0       -0.183548    0.521987    0.026747
      5          6           0       -1.470036    0.405394   -0.197949
      6          8           0       -2.165284   -0.725230    0.131032
      7          1           0        1.581811   -1.063509   -1.328705
      8          1           0        2.801253   -1.215494   -0.054946
      9          1           0        1.304063   -2.154008    0.028600
     10          1           0        1.186795   -0.108333    1.584528
     11          1           0        1.465458    1.482550   -1.066280
     12          1           0        1.151955    2.181574    0.589864
     13          1           0       -3.082939   -0.615548   -0.117697
     14          1           0       -2.044609    1.205892   -0.655555
 ---------------------------------------------------------------------

 SCF Done:  E(RHF) =  -269.100537762     A.U. after    2 cycles

 The electronic state is 1-A.
 Alpha  occ. eigenvalues --  -20.56974 -11.29410 -11.24036 -11.23597 -11.22450
 Alpha  occ. eigenvalues --  -11.22274  -1.48138  -1.15643  -0.98723  -0.94705
 Alpha  occ. eigenvalues --   -0.80249  -0.73695  -0.72621  -0.67650  -0.63069
 Alpha  occ. eigenvalues --   -0.57299  -0.56100  -0.54863  -0.54210  -0.50581
 Alpha  occ. eigenvalues --   -0.43482  -0.42078  -0.33600
 Alpha virt. eigenvalues --    0.03132   0.04076   0.04301   0.04579   0.06045
 Alpha virt. eigenvalues --    0.06456   0.06888   0.07643   0.10585   0.11745
 Alpha virt. eigenvalues --    0.12345   0.13427   0.14355   0.14689   0.15789

 Mulliken charges:
               1
     1  C   -0.587919
     2  C    0.087235
     3  C    0.041243
     4  C   -0.211851
     5  C    1.440087
     6  O   -1.473144
     7  H    0.152633
     8  H    0.177099
     9  H    0.213198
    10  H   -0.108455
    11  H    0.001112
    12  H   -0.008895
    13  H    0.397864
    14  H   -0.120207
 Sum of Mulliken charges =  -0.00000

 Dipole moment (field-independent basis, Debye):
    X=             -0.9118    Y=              0.8428    Z=             -0.6049  Tot=              1.3811

 Test job not archived.
 1\1\GINC-SE162\SP\RHF\Aug-CC-pVDZ\C5H8O1\OHZDE\09-Apr-2025\0\\#t hf au
 g-cc-pvdz iop(5/13=1,5/36=2,99/5=2) pseudo=read geom=check guess=(read
 ,tcheck) scf=(maxcycle=1)\\title\\0,1\C,0,-1.48842643,-0.96811775,-0.5
 1736521\C,0,-0.73104743,0.33561867,-0.46047784\C,0,-0.60120636,1.09158
 153,0.86131179\C,0,0.54515228,0.42641773,0.24163484\C,0,1.81542619,0.1
 0961244,0.31356113\O,0,2.43417405,-0.63477001,-0.6523338\H,0,-1.354954
 69,-1.53040064,0.40895553\H,0,-2.55737504,-0.79534775,-0.66178403\H,0,
 -1.12986921,-1.59121194,-1.33868537\H,0,-0.83651785,0.96483871,-1.3404

 Normal termination of Gaussian 16 at Wed Apr  9 17:09:21 2025.
