 Gaussian 16, Revision C.01,

 ----------------------------------------------------------------------
 #t hf aug-cc-pvdz symm=none int=(grid=ultrafine) guess=(read,tcheck) s
 table=(opt,rrhf)
 ----------------------------------------------------------------------
 -----
 title
 -----
 Symbolic Z-matrix:
 Charge =  0 Multiplicity = 1

 SCF Done:  E(RHF) =  -245.659145509     A.U. after   15 cycles
 Normal termination of Gaussian 16 at Wed Apr  9 16:28:40 2025.
 Gaussian 16:  ES64L-G16RevC.01  3-Jul-2019

 ----------------------------------------------------------------------
 #t hf aug-cc-pvdz iop(5/13=1,5/36=2,99/5=2) pseudo=read geom=check gue
 ss=(read,tcheck) scf=(maxcycle=1)
 ----------------------------------------------------------------------
 -----
 title
 -----
 Structure from the checkpoint file:  "Grambow2020_wb97xd3_006112_forward_mol1.chk"
 Charge =  0 Multiplicity = 1

                         Standard orientation:
 ---------------------------------------------------------------------
 Center     Atomic      Atomic             Coordinates (Angstroms)
 Number     Number       Type             X           Y           Z
 ---------------------------------------------------------------------
      1          6           0        1.120134   -0.240027    0.311800
      2          6           0        0.518751    1.002147   -0.249961
      3          7           0       -0.822088    0.916675    0.078875
      4          6           0       -1.111482   -0.322652    0.195699
      5          8           0        0.038377   -1.099054   -0.264923
      6          1           0        2.067921   -0.589276   -0.088654
      7          1           0        1.035570   -0.377155    1.400256
      8          1           0        0.999437    1.969533   -0.228610
      9          1           0        0.240629   -0.438591   -1.174038
     10          1           0       -2.060368   -0.825606    0.113069
 ---------------------------------------------------------------------

 SCF Done:  E(RHF) =  -245.910735846     A.U. after    2 cycles

 The electronic state is 1-A.
 Alpha  occ. eigenvalues --  -20.66371 -15.52645 -11.32836 -11.31508 -11.23667
 Alpha  occ. eigenvalues --   -1.57630  -1.25107  -1.03574  -0.88480  -0.80915
 Alpha  occ. eigenvalues --   -0.77471  -0.74686  -0.63650  -0.61761  -0.58644
 Alpha  occ. eigenvalues --   -0.55763  -0.50817  -0.47808  -0.29828
 Alpha virt. eigenvalues --    0.03560   0.04248   0.04635   0.05083   0.06653
 Alpha virt. eigenvalues --    0.08989   0.10114   0.10605   0.11722   0.12854
 Alpha virt. eigenvalues --    0.13904   0.15530   0.16207   0.16261   0.17237

 Mulliken charges:
               1
     1  C    0.465892
     2  C   -0.562072
     3  N    0.670664
     4  C    0.128962
     5  O   -1.230107
     6  H    0.024902
     7  H    0.102225
     8  H   -0.155567
     9  H    0.634147
    10  H   -0.079047
 Sum of Mulliken charges =  -0.00000

 Dipole moment (field-independent basis, Debye):
    X=              1.6156    Y=             -2.4398    Z=              0.0933  Tot=              2.9277

 Test job not archived.
 1\1\GINC-SE226\SP\RHF\Aug-CC-pVDZ\C3H5N1O1\OHZDE\09-Apr-2025\0\\#t hf
 aug-cc-pvdz iop(5/13=1,5/36=2,99/5=2) pseudo=read geom=check guess=(re
 ad,tcheck) scf=(maxcycle=1)\\title\\0,1\C,0,-0.7913515,-0.60049846,-0.
 03221816\C,0,-0.60088992,0.87714423,-0.00919768\N,0,0.65719327,1.07224
 753,-0.54998449\C,0,1.3379773,0.01264763,-0.3329355\O,0,0.56156734,-0.
 84671658,0.55915715\H,0,-1.52793992,-1.0430057,0.63280959\H,0,-0.75695
 45,-1.08420608,-1.01991004\H,0,-1.38053771,1.59061532,-0.23382656\H,0,
 0.22475312,0.00459158,1.24138701\H,0,2.40445051,-0.13076047,-0.2855733

 Normal termination of Gaussian 16 at Wed Apr  9 16:28:43 2025.
