 Gaussian 16, Revision C.01,

 ----------------------------------------------------------------------
 #t hf aug-cc-pvdz symm=none int=(grid=ultrafine) guess=(read,tcheck) s
 table=(opt,rrhf)
 ----------------------------------------------------------------------
 -----
 title
 -----
 Symbolic Z-matrix:
 Charge =  0 Multiplicity = 1

 SCF Done:  E(RHF) =  -232.939114606     A.U. after   14 cycles
 Normal termination of Gaussian 16 at Wed Apr  9 15:40:02 2025.
 Gaussian 16:  ES64L-G16RevC.01  3-Jul-2019

 ----------------------------------------------------------------------
 #t hf aug-cc-pvdz iop(5/13=1,5/36=2,99/5=2) pseudo=read geom=check gue
 ss=(read,tcheck) scf=(maxcycle=1)
 ----------------------------------------------------------------------
 -----
 title
 -----
 Structure from the checkpoint file:  "Grambow2020_b97d3_006594_reverse_mol2.chk"
 Charge =  0 Multiplicity = 1

                         Standard orientation:
 ---------------------------------------------------------------------
 Center     Atomic      Atomic             Coordinates (Angstroms)
 Number     Number       Type             X           Y           Z
 ---------------------------------------------------------------------
      1          6           0        1.347830   -0.732293    0.052950
      2          6           0        2.441818   -0.007103   -0.266631
      3          6           0       -0.031187   -0.275547   -0.052079
      4          6           0       -0.644623    0.837353   -0.527748
      5          6           0       -2.033750    0.384486   -0.141378
      6          6           0       -1.333296   -0.914319    0.404343
      7          1           0        1.617837    2.369718    1.776702
      8          1           0        1.489706   -1.746885    0.436899
      9          1           0        3.446474   -0.415298   -0.157990
     10          1           0        2.364673    1.014506   -0.642320
     11          1           0       -0.275184    1.746508   -1.006607
     12          1           0        1.179220    2.972128    1.748516
     13          1           0       -2.735323    0.220926   -0.973149
     14          1           0       -2.533245    0.993397    0.627412
     15          1           0       -1.609759   -1.842839   -0.115584
     16          1           0       -1.425152   -1.067625    1.489377
 ---------------------------------------------------------------------

 SCF Done:  E(RHF) =  -233.194321356     A.U. after    2 cycles

 The electronic state is 1-A.
 Alpha  occ. eigenvalues --  -11.24946 -11.24438 -11.24034 -11.23741 -11.23723
 Alpha  occ. eigenvalues --  -11.23614  -1.15473  -1.04581  -0.89716  -0.88927
 Alpha  occ. eigenvalues --   -0.80199  -0.69801  -0.67829  -0.63055  -0.62724
 Alpha  occ. eigenvalues --   -0.58782  -0.56035  -0.51417  -0.51249  -0.47205
 Alpha  occ. eigenvalues --   -0.46777  -0.42974  -0.31590
 Alpha virt. eigenvalues --    0.03555   0.03920   0.04089   0.04807   0.05598
 Alpha virt. eigenvalues --    0.05861   0.06625   0.07604   0.08427   0.08621
 Alpha virt. eigenvalues --    0.09354   0.10630   0.12398   0.14101   0.14243

 Mulliken charges:
               1
     1  C    0.520207
     2  C   -0.000209
     3  C    0.874211
     4  C   -0.366493
     5  C   -0.168028
     6  C   -0.728218
     7  H   -0.019265
     8  H   -0.194124
     9  H   -0.148310
    10  H   -0.076655
    11  H   -0.219426
    12  H    0.023361
    13  H    0.130325
    14  H    0.136538
    15  H    0.123218
    16  H    0.112868
 Sum of Mulliken charges =  -0.00000

 Dipole moment (field-independent basis, Debye):
    X=             -0.0600    Y=             -0.0131    Z=              0.0305  Tot=              0.0686

 Test job not archived.
 1\1\GINC-SE043\SP\RHF\Aug-CC-pVDZ\C6H10\OHZDE\09-Apr-2025\0\\#t hf aug
 -cc-pvdz iop(5/13=1,5/36=2,99/5=2) pseudo=read geom=check guess=(read,
 tcheck) scf=(maxcycle=1)\\title\\0,1\C,0,-1.32341924,0.68711837,-0.533
 7857\C,0,-2.29881241,-0.23429532,-0.69014563\C,0,0.09230489,0.39863148
 ,-0.34983686\C,0,0.85755027,-0.72178848,-0.36284199\C,0,2.13969153,0.0
 0329106,-0.02458468\C,0,1.2630978,1.30976092,-0.01678289\H,0,-1.541242
 44,-1.69380391,2.10258684\H,0,-1.60239882,1.74499164,-0.52968513\H,0,-
 3.34099922,0.05702742,-0.81952375\H,0,-2.08422057,-1.30421493,-0.69015

 Normal termination of Gaussian 16 at Wed Apr  9 15:40:07 2025.
