 Gaussian 16, Revision C.01,

 ----------------------------------------------------------------------
 #t hf aug-cc-pvdz symm=none int=(grid=ultrafine) guess=(read,tcheck) s
 table=(opt,rrhf)
 ----------------------------------------------------------------------
 -----
 title
 -----
 Symbolic Z-matrix:
 Charge =  0 Multiplicity = 1

 SCF Done:  E(RHF) =  -342.407274436     A.U. after   16 cycles
 Normal termination of Gaussian 16 at Wed Apr  9 19:13:57 2025.
 Gaussian 16:  ES64L-G16RevC.01  3-Jul-2019

 ----------------------------------------------------------------------
 #t hf aug-cc-pvdz iop(5/13=1,5/36=2,99/5=2) pseudo=read geom=check gue
 ss=(read,tcheck) scf=(maxcycle=1)
 ----------------------------------------------------------------------
 -----
 title
 -----
 Structure from the checkpoint file:  "Grambow2020_wb97xd3_008953_forward_mol1.chk"
 Charge =  0 Multiplicity = 1

                         Standard orientation:
 ---------------------------------------------------------------------
 Center     Atomic      Atomic             Coordinates (Angstroms)
 Number     Number       Type             X           Y           Z
 ---------------------------------------------------------------------
      1          8           0       -2.587620   -0.166430    0.212149
      2          6           0       -1.415106   -0.068947    0.010314
      3          6           0       -0.305818   -0.973809   -0.352175
      4          6           0        0.590562    0.159828   -0.437238
      5          6           0        2.036909    0.088992   -0.406878
      6          8           0        1.705717   -0.238370    0.938940
      7          6           0       -0.461552    1.167362   -0.060129
      8          1           0       -0.288112   -1.918856   -0.879621
      9          1           0        0.600962   -0.971499    0.674321
     10          1           0        2.506428   -0.710385   -0.982070
     11          1           0        2.584277    1.027399   -0.479407
     12          1           0       -0.287748    1.760235    0.835532
     13          1           0       -0.730555    1.810948   -0.900833
 ---------------------------------------------------------------------

 SCF Done:  E(RHF) =  -342.754723735     A.U. after    2 cycles

 The electronic state is 1-A.
 Alpha  occ. eigenvalues --  -20.54094 -20.53952 -11.36758 -11.35441 -11.32112
 Alpha  occ. eigenvalues --  -11.28191 -11.25182  -1.48058  -1.44824  -1.19652
 Alpha  occ. eigenvalues --   -0.98493  -0.96833  -0.83406  -0.74696  -0.70904
 Alpha  occ. eigenvalues --   -0.69977  -0.66905  -0.62653  -0.61142  -0.58263
 Alpha  occ. eigenvalues --   -0.55315  -0.53558  -0.52068  -0.44489  -0.41323
 Alpha  occ. eigenvalues --   -0.36185
 Alpha virt. eigenvalues --    0.02542   0.03498   0.04057   0.04861   0.06057
 Alpha virt. eigenvalues --    0.07099   0.07364   0.08659   0.10065   0.10963
 Alpha virt. eigenvalues --    0.12570   0.13281   0.13524   0.14059   0.14815

 Mulliken charges:
               1
     1  O   -1.251145
     2  C    1.383320
     3  C   -0.436421
     4  C   -0.105639
     5  C    0.736781
     6  O   -1.264836
     7  C   -0.441380
     8  H   -0.107400
     9  H    0.993943
    10  H    0.060539
    11  H    0.021680
    12  H    0.128234
    13  H    0.282325
 Sum of Mulliken charges =   0.00000

 Dipole moment (field-independent basis, Debye):
    X=              2.9667    Y=              1.2471    Z=             -2.9250  Tot=              4.3488

 Test job not archived.
 1\1\GINC-SE014\SP\RHF\Aug-CC-pVDZ\C5H6O2\OHZDE\09-Apr-2025\0\\#t hf au
 g-cc-pvdz iop(5/13=1,5/36=2,99/5=2) pseudo=read geom=check guess=(read
 ,tcheck) scf=(maxcycle=1)\\title\\0,1\O,0,-2.88478347,-0.38635417,-0.1
 7030387\C,0,-1.70695793,-0.23875145,-0.04393501\C,0,-0.79667472,0.8436
 2882,0.38095354\C,0,0.32956995,-0.05858772,0.26500334\C,0,1.71827083,0
 .34196073,0.1705085\O,0,1.21647723,0.74605421,-1.09952657\C,0,-0.50385
 6,-1.22542992,-0.19124342\H,0,-0.94350605,1.69700211,1.03043134\H,0,0.
 0031845,1.17159473,-0.68140873\H,0,2.04650141,1.15138063,0.82426789\H,

 Normal termination of Gaussian 16 at Wed Apr  9 19:14:01 2025.
