 Gaussian 16, Revision C.01,

 ----------------------------------------------------------------------
 #t hf aug-cc-pvdz symm=none int=(grid=ultrafine) guess=(read,tcheck) s
 table=(opt,rrhf)
 ----------------------------------------------------------------------
 -----
 title
 -----
 Symbolic Z-matrix:
 Charge =  0 Multiplicity = 1

 SCF Done:  E(RHF) =  -306.542437437     A.U. after   15 cycles
 Normal termination of Gaussian 16 at Wed Apr  9 18:21:21 2025.
 Gaussian 16:  ES64L-G16RevC.01  3-Jul-2019

 ----------------------------------------------------------------------
 #t hf aug-cc-pvdz iop(5/13=1,5/36=2,99/5=2) pseudo=read geom=check gue
 ss=(read,tcheck) scf=(maxcycle=1)
 ----------------------------------------------------------------------
 -----
 title
 -----
 Structure from the checkpoint file:  "Grambow2020_wb97xd3_007359_reverse_mol2.chk"
 Charge =  0 Multiplicity = 1

                         Standard orientation:
 ---------------------------------------------------------------------
 Center     Atomic      Atomic             Coordinates (Angstroms)
 Number     Number       Type             X           Y           Z
 ---------------------------------------------------------------------
      1          6           0        1.871021    0.117224   -0.594453
      2          6           0        1.575233   -0.583047    0.716758
      3          6           0        0.513643    0.135160   -0.006144
      4          6           0       -0.403134    1.273274    0.385225
      5          6           0       -1.519215    0.414816   -0.208335
      6          8           0       -0.541686   -0.613778   -0.676163
      7          6           0       -1.751770   -0.834324    0.527447
      8          1           0        2.439543    1.038589   -0.585697
      9          1           0        2.018921   -0.506292   -1.466694
     10          1           0        1.522751   -1.663473    0.707641
     11          1           0        1.938189   -0.146934    1.637856
     12          1           0       -0.507195    1.454936    1.452515
     13          1           0       -0.203512    2.198022   -0.155209
     14          1           0       -2.153021    0.815839   -0.997411
     15          1           0       -2.436856   -1.419081   -0.106688
 ---------------------------------------------------------------------

 SCF Done:  E(RHF) =  -306.860556561     A.U. after    2 cycles

 The electronic state is 1-A.
 Alpha  occ. eigenvalues --  -20.60351 -11.31092 -11.30888 -11.25041 -11.24585
 Alpha  occ. eigenvalues --  -11.24463 -11.24255  -1.52162  -1.16367  -1.04892
 Alpha  occ. eigenvalues --   -0.96214  -0.84969  -0.79032  -0.76167  -0.71411
 Alpha  occ. eigenvalues --   -0.68873  -0.63822  -0.60261  -0.56854  -0.54729
 Alpha  occ. eigenvalues --   -0.52928  -0.51746  -0.49519  -0.43372  -0.40928
 Alpha  occ. eigenvalues --   -0.34119
 Alpha virt. eigenvalues --    0.03206   0.03649   0.04144   0.04568   0.05916
 Alpha virt. eigenvalues --    0.06214   0.06381   0.07579   0.09568   0.10221
 Alpha virt. eigenvalues --    0.11978   0.12806   0.13792   0.14033   0.14483

 Mulliken charges:
               1
     1  C    0.179163
     2  C   -0.047070
     3  C    1.332672
     4  C   -0.489548
     5  C    1.058610
     6  O   -1.570002
     7  C   -0.409676
     8  H   -0.058920
     9  H   -0.031512
    10  H   -0.008860
    11  H   -0.043610
    12  H    0.107885
    13  H    0.049436
    14  H   -0.116005
    15  H    0.047435
 Sum of Mulliken charges =  -0.00000

 Dipole moment (field-independent basis, Debye):
    X=              1.1542    Y=              2.5506    Z=             -1.4252  Tot=              3.1415

 Test job not archived.
 1\1\GINC-SE454\SP\RHF\Aug-CC-pVDZ\C6H8O1\OHZDE\09-Apr-2025\0\\#t hf au
 g-cc-pvdz iop(5/13=1,5/36=2,99/5=2) pseudo=read geom=check guess=(read
 ,tcheck) scf=(maxcycle=1)\\title\\0,1\C,0,-1.4423072,0.04021188,-1.112
 48347\C,0,-1.66305172,0.01559778,0.38678705\C,0,-0.30348819,-0.0501579
 2,-0.17236102\C,0,0.81399855,-1.06046028,-0.03285234\C,0,1.71059124,0.
 15054642,0.22108467\O,0,0.5868099,1.09703394,-0.05040771\C,0,1.3845570
 4,0.87180033,1.4577335\H,0,-1.6873168,-0.8370407,-1.69780977\H,0,-1.58
 591579,0.98593086,-1.6188841\H,0,-1.94545669,0.94262122,0.86744599\H,0

 Normal termination of Gaussian 16 at Wed Apr  9 18:21:26 2025.
