 Gaussian 16, Revision C.01,

 ----------------------------------------------------------------------
 #t hf aug-cc-pvdz symm=none int=(grid=ultrafine) guess=(read,tcheck) s
 table=(opt,rrhf)
 ----------------------------------------------------------------------
 -----
 title
 -----
 Symbolic Z-matrix:
 Charge =  0 Multiplicity = 1

 SCF Done:  E(RHF) =  -321.345111958     A.U. after   18 cycles
 Normal termination of Gaussian 16 at Wed Apr  9 18:53:31 2025.
 Gaussian 16:  ES64L-G16RevC.01  3-Jul-2019

 ----------------------------------------------------------------------
 #t hf aug-cc-pvdz iop(5/13=1,5/36=2,99/5=2) pseudo=read geom=check gue
 ss=(read,tcheck) scf=(maxcycle=1)
 ----------------------------------------------------------------------
 -----
 title
 -----
 Structure from the checkpoint file:  "Grambow2020_wb97xd3_008190_forward_mol1.chk"
 Charge =  0 Multiplicity = 1

                         Standard orientation:
 ---------------------------------------------------------------------
 Center     Atomic      Atomic             Coordinates (Angstroms)
 Number     Number       Type             X           Y           Z
 ---------------------------------------------------------------------
      1          8           0        0.706071    2.019808   -0.551546
      2          6           0        0.254731    1.314561    0.588832
      3          6           0       -0.087481   -0.126594    0.314125
      4          6           0        0.929896   -1.079046    0.077213
      5          6           0        1.828990   -1.854805   -0.111519
      6          6           0       -1.413786   -0.471100    0.070961
      7          7           0       -2.553439   -0.719607   -0.200687
      8          1           0        1.517638    1.609518   -0.860510
      9          1           0        1.006309    1.339052    1.385722
     10          1           0       -0.627780    1.847928    0.941728
     11          1           0       -1.360572   -0.061397   -1.020671
     12          1           0        2.615810   -2.554405   -0.266764
 ---------------------------------------------------------------------

 SCF Done:  E(RHF) =  -321.667635752     A.U. after    2 cycles

 The electronic state is 1-A.
 Alpha  occ. eigenvalues --  -20.56356 -15.58003 -11.35144 -11.31681 -11.29585
 Alpha  occ. eigenvalues --  -11.26475 -11.25114  -1.46782  -1.30316  -1.11957
 Alpha  occ. eigenvalues --   -1.02551  -0.93143  -0.82181  -0.73197  -0.70546
 Alpha  occ. eigenvalues --   -0.69738  -0.67663  -0.64850  -0.61293  -0.55673
 Alpha  occ. eigenvalues --   -0.53067  -0.47019  -0.46620  -0.42120  -0.31905
 Alpha virt. eigenvalues --    0.01452   0.03256   0.04052   0.04717   0.05376
 Alpha virt. eigenvalues --    0.06440   0.08847   0.09344   0.10595   0.10698
 Alpha virt. eigenvalues --    0.11067   0.11708   0.13420   0.13791   0.14069

 Mulliken charges:
               1
     1  O   -1.065477
     2  C    0.577320
     3  C    0.563943
     4  C    0.674337
     5  C    0.029492
     6  C   -2.493339
     7  N    0.941433
     8  H    0.317444
     9  H    0.174459
    10  H    0.060374
    11  H    0.626808
    12  H   -0.406793
 Sum of Mulliken charges =  -0.00000

 Dipole moment (field-independent basis, Debye):
    X=              3.1179    Y=              0.1357    Z=              0.1016  Tot=              3.1226

 Test job not archived.
 1\1\GINC-SE131\SP\RHF\Aug-CC-pVDZ\C5H5N1O1\OHZDE\09-Apr-2025\0\\#t hf
 aug-cc-pvdz iop(5/13=1,5/36=2,99/5=2) pseudo=read geom=check guess=(re
 ad,tcheck) scf=(maxcycle=1)\\title\\0,1\O,0,-1.89915376,-0.37565972,-0
 .69063509\C,0,-1.11063974,-0.57449473,0.46705802\C,0,0.34082191,-0.216
 70544,0.28065097\C,0,0.7464009,1.13422617,0.18664389\C,0,1.04508751,2.
 29698605,0.1190573\C,0,1.2507908,-1.22445182,-0.02480127\N,0,1.9926248
 4,-2.10544415,-0.35327302\H,0,-1.88339398,0.55886428,-0.91166402\H,0,-
 1.49885724,0.00962519,1.30883924\H,0,-1.20636745,-1.63086308,0.7175836

 Normal termination of Gaussian 16 at Wed Apr  9 18:53:35 2025.
