 Gaussian 16, Revision C.01,

 ----------------------------------------------------------------------
 #t hf aug-cc-pvdz symm=none int=(grid=ultrafine) guess=(read,tcheck) s
 table=(opt,rrhf)
 ----------------------------------------------------------------------
 -----
 title
 -----
 Symbolic Z-matrix:
 Charge =  0 Multiplicity = 1

 SCF Done:  E(RHF) =  -306.682985541     A.U. after   13 cycles
 Normal termination of Gaussian 16 at Wed Apr  9 03:39:31 2025.
 Gaussian 16:  ES64L-G16RevC.01  3-Jul-2019

 ----------------------------------------------------------------------
 #t hf aug-cc-pvdz iop(5/13=1,5/36=2,99/5=2) pseudo=read geom=check gue
 ss=(read,tcheck) scf=(maxcycle=1)
 ----------------------------------------------------------------------
 -----
 title
 -----
 Structure from the checkpoint file:  "Grambow2020_wb97xd3_007364_reverse_mol2.chk"
 Charge =  0 Multiplicity = 1

                         Standard orientation:
 ---------------------------------------------------------------------
 Center     Atomic      Atomic             Coordinates (Angstroms)
 Number     Number       Type             X           Y           Z
 ---------------------------------------------------------------------
      1          6           0        2.291482   -0.232533    0.034279
      2          6           0       -1.104299   -0.512250    0.990021
      3          6           0        0.993090    0.002234   -0.001484
      4          6           0        0.208135    1.302944    0.071572
      5          6           0       -1.185430    0.656162   -0.002705
      6          8           0       -1.009961   -0.300852   -1.082136
      7          6           0       -0.147898   -0.978957   -0.122706
      8          1           0        3.013795    0.569519    0.132148
      9          1           0        2.679387   -1.242264   -0.034758
     10          1           0       -2.019864   -1.099457    1.009730
     11          1           0       -0.704174   -0.337734    1.989143
     12          1           0        0.382408    1.865727    0.990304
     13          1           0        0.392603    1.950908   -0.785616
     14          1           0       -2.058606    1.295616   -0.108541
     15          1           0        0.063656   -2.021102   -0.349179
 ---------------------------------------------------------------------

 SCF Done:  E(RHF) =  -307.003699958     A.U. after    2 cycles

 The electronic state is 1-A.
 Alpha  occ. eigenvalues --  -20.54069 -11.29745 -11.29676 -11.24721 -11.24158
 Alpha  occ. eigenvalues --  -11.23970 -11.22797  -1.47756  -1.11441  -1.01791
 Alpha  occ. eigenvalues --   -0.97807  -0.90007  -0.78220  -0.74130  -0.70432
 Alpha  occ. eigenvalues --   -0.66366  -0.62212  -0.60120  -0.57765  -0.55341
 Alpha  occ. eigenvalues --   -0.52629  -0.50455  -0.48485  -0.46657  -0.41254
 Alpha  occ. eigenvalues --   -0.36620
 Alpha virt. eigenvalues --    0.03504   0.03686   0.03804   0.04462   0.05640
 Alpha virt. eigenvalues --    0.05796   0.06633   0.08318   0.09638   0.09922
 Alpha virt. eigenvalues --    0.12398   0.12777   0.13607   0.14133   0.14734

 Mulliken charges:
               1
     1  C    0.325440
     2  C   -0.060245
     3  C    0.683333
     4  C   -0.770210
     5  C    1.050519
     6  O   -1.490484
     7  C    0.437959
     8  H   -0.148643
     9  H   -0.127378
    10  H   -0.015018
    11  H   -0.034700
    12  H    0.148470
    13  H    0.132918
    14  H   -0.025808
    15  H   -0.106152
 Sum of Mulliken charges =  -0.00000

 Dipole moment (field-independent basis, Debye):
    X=              0.1182    Y=              0.4507    Z=              1.8560  Tot=              1.9135

 Test job not archived.
 1\1\GINC-SE051\SP\RHF\Aug-CC-pVDZ\C6H8O1\OHZDE\09-Apr-2025\0\\#t hf au
 g-cc-pvdz iop(5/13=1,5/36=2,99/5=2) pseudo=read geom=check guess=(read
 ,tcheck) scf=(maxcycle=1)\\title\\0,1\C,0,-1.12794796,0.32893045,-1.85
 338206\C,0,-0.21116987,0.13016329,1.55880499\C,0,-0.33743257,0.1358834
 4,-0.814134\C,0,0.52757962,-1.05167847,-0.42070512\C,0,1.04729781,-0.4
 4569954,0.89403853\O,0,1.39724335,0.90262557,0.48003966\C,0,-0.0449346
 5,1.0602856,0.34310849\H,0,-1.25750575,-0.42638537,-2.61974757\H,0,-1.
 67575678,1.25626989,-1.97478149\H,0,0.01398823,0.64038058,2.49285216\H

 Normal termination of Gaussian 16 at Wed Apr  9 03:39:37 2025.
