 Gaussian 16, Revision C.01,

 ----------------------------------------------------------------------
 #t hf aug-cc-pvdz symm=none int=(grid=ultrafine) guess=(read,tcheck) s
 table=(opt,rrhf)
 ----------------------------------------------------------------------
 -----
 title
 -----
 Symbolic Z-matrix:
 Charge =  0 Multiplicity = 1

 SCF Done:  E(RHF) =  -306.601537520     A.U. after   15 cycles
 Normal termination of Gaussian 16 at Wed Apr  9 18:21:23 2025.
 Gaussian 16:  ES64L-G16RevC.01  3-Jul-2019

 ----------------------------------------------------------------------
 #t hf aug-cc-pvdz iop(5/13=1,5/36=2,99/5=2) pseudo=read geom=check gue
 ss=(read,tcheck) scf=(maxcycle=1)
 ----------------------------------------------------------------------
 -----
 title
 -----
 Structure from the checkpoint file:  "Grambow2020_wb97xd3_007355_reverse_mol2.chk"
 Charge =  0 Multiplicity = 1

                         Standard orientation:
 ---------------------------------------------------------------------
 Center     Atomic      Atomic             Coordinates (Angstroms)
 Number     Number       Type             X           Y           Z
 ---------------------------------------------------------------------
      1          6           0       -1.120816   -0.609429   -0.892196
      2          6           0       -1.839056   -0.714476    0.397172
      3          6           0       -0.732436    0.314890    0.332645
      4          6           0        0.592161   -0.010213    1.007221
      5          6           0        1.747823    0.323103    0.092365
      6          8           0        2.308931   -0.512594   -0.565183
      7          6           0       -0.886729    1.528549   -0.370362
      8          1           0       -0.317222   -1.295336   -1.129285
      9          1           0       -1.625683   -0.190809   -1.752047
     10          1           0       -2.854348   -0.341017    0.428358
     11          1           0       -1.647271   -1.584474    1.013097
     12          1           0        0.660552    0.576624    1.926405
     13          1           0        0.653956   -1.069089    1.264243
     14          1           0        2.038818    1.385786    0.031514
     15          1           0       -1.945929    1.624524   -0.661888
 ---------------------------------------------------------------------

 SCF Done:  E(RHF) =  -306.916753490     A.U. after    2 cycles

 The electronic state is 1-A.
 Alpha  occ. eigenvalues --  -20.54383 -11.33699 -11.28950 -11.27796 -11.27143
 Alpha  occ. eigenvalues --  -11.26051 -11.25524  -1.47773  -1.20833  -1.03463
 Alpha  occ. eigenvalues --   -0.94561  -0.86459  -0.81968  -0.75297  -0.68888
 Alpha  occ. eigenvalues --   -0.67795  -0.65047  -0.63128  -0.57706  -0.55876
 Alpha  occ. eigenvalues --   -0.54833  -0.52043  -0.49535  -0.44747  -0.41013
 Alpha  occ. eigenvalues --   -0.35627
 Alpha virt. eigenvalues --    0.02910   0.03452   0.03798   0.04559   0.05786
 Alpha virt. eigenvalues --    0.06329   0.07089   0.07235   0.09114   0.09546
 Alpha virt. eigenvalues --    0.11226   0.12086   0.13047   0.13273   0.14011

 Mulliken charges:
               1
     1  C    0.235480
     2  C    0.438571
     3  C    0.211302
     4  C   -0.669664
     5  C    1.349876
     6  O   -1.185551
     7  C   -0.565750
     8  H   -0.033859
     9  H   -0.077550
    10  H   -0.113160
    11  H   -0.076839
    12  H    0.209486
    13  H    0.100903
    14  H    0.163858
    15  H    0.012895
 Sum of Mulliken charges =  -0.00000

 Dipole moment (field-independent basis, Debye):
    X=             -3.1975    Y=             -1.1630    Z=              1.9194  Tot=              3.9065

 Test job not archived.
 1\1\GINC-SE103\SP\RHF\Aug-CC-pVDZ\C6H8O1\OHZDE\09-Apr-2025\0\\#t hf au
 g-cc-pvdz iop(5/13=1,5/36=2,99/5=2) pseudo=read geom=check guess=(read
 ,tcheck) scf=(maxcycle=1)\\title\\0,1\C,0,-1.06071448,0.61150265,-0.65
 255096\C,0,-1.63059823,-0.23921796,0.41556906\C,0,-0.1727762,0.1347922
 ,0.56800304\C,0,0.87718902,-0.91813101,0.24515913\C,0,1.96941536,-0.32
 931615,-0.61736945\O,0,1.99733352,-0.47841206,-1.81009331\C,0,0.225020
 36,1.43346682,0.95035767\H,0,-0.71442305,0.16993621,-1.57858798\H,0,-1
 .36725935,1.64550658,-0.73219417\H,0,-2.32988082,0.22698293,1.09742121

 Normal termination of Gaussian 16 at Wed Apr  9 18:21:29 2025.
