 Gaussian 16, Revision C.01,

 ----------------------------------------------------------------------
 #t hf aug-cc-pvdz symm=none int=(grid=ultrafine) guess=(read,tcheck) s
 table=(opt,rrhf)
 ----------------------------------------------------------------------
 -----
 title
 -----
 Symbolic Z-matrix:
 Charge =  0 Multiplicity = 1

 SCF Done:  E(RHF) =  -323.852640051     A.U. after   13 cycles
 Normal termination of Gaussian 16 at Wed Apr  9 18:49:44 2025.
 Gaussian 16:  ES64L-G16RevC.01  3-Jul-2019

 ----------------------------------------------------------------------
 #t hf aug-cc-pvdz iop(5/13=1,5/36=2,99/5=2) pseudo=read geom=check gue
 ss=(read,tcheck) scf=(maxcycle=1)
 ----------------------------------------------------------------------
 -----
 title
 -----
 Structure from the checkpoint file:  "Grambow2020_wb97xd3_008095_reverse_mol2.chk"
 Charge =  0 Multiplicity = 1

                         Standard orientation:
 ---------------------------------------------------------------------
 Center     Atomic      Atomic             Coordinates (Angstroms)
 Number     Number       Type             X           Y           Z
 ---------------------------------------------------------------------
      1          6           0       -3.202230    0.038684    0.017085
      2          6           0       -1.698575   -0.108965   -0.007153
      3          7           0       -0.986196    1.043675   -0.016713
      4          8           0       -1.167753   -1.202715   -0.009479
      5          6           0        2.043123   -0.589351   -0.007929
      6          6           0        3.317171   -0.439292    0.010278
      7          6           0        2.536273    0.839156    0.007111
      8          1           0       -3.622755   -0.572602   -0.780164
      9          1           0       -3.571904   -0.355804    0.963955
     10          1           0       -3.541951    1.067906   -0.096774
     11          1           0        0.020520    0.996855   -0.018134
     12          1           0        1.154219   -1.201828   -0.021625
     13          1           0       -1.432130    1.940112   -0.011763
     14          1           0        4.303973   -0.865734    0.021282
     15          1           0        2.468362    1.427498    0.923108
     16          1           0        2.492492    1.438194   -0.903419
 ---------------------------------------------------------------------

 SCF Done:  E(RHF) =  -324.192484601     A.U. after    2 cycles

 The electronic state is 1-A.
 Alpha  occ. eigenvalues --  -20.50530 -15.52705 -11.36120 -11.24896 -11.24707
 Alpha  occ. eigenvalues --  -11.24652 -11.24391  -1.45947  -1.22611  -1.16333
 Alpha  occ. eigenvalues --   -1.01310  -0.83663  -0.82621  -0.77098  -0.75589
 Alpha  occ. eigenvalues --   -0.69310  -0.67836  -0.62913  -0.60546  -0.59663
 Alpha  occ. eigenvalues --   -0.57349  -0.54189  -0.50610  -0.43554  -0.42974
 Alpha  occ. eigenvalues --   -0.42149  -0.36451
 Alpha virt. eigenvalues --    0.02866   0.04113   0.04375   0.05122   0.05268
 Alpha virt. eigenvalues --    0.05841   0.06012   0.07701   0.09384   0.10633
 Alpha virt. eigenvalues --    0.10781   0.12662   0.12909   0.13845   0.14492

 Mulliken charges:
               1
     1  C   -0.430891
     2  C    0.423808
     3  N    0.790760
     4  O   -1.334956
     5  C    0.401074
     6  C    0.264382
     7  C   -0.163361
     8  H    0.218724
     9  H    0.237092
    10  H    0.105630
    11  H   -0.026405
    12  H   -0.280060
    13  H    0.108335
    14  H   -0.220699
    15  H   -0.046613
    16  H   -0.046821
 Sum of Mulliken charges =  -0.00000

 Dipole moment (field-independent basis, Debye):
    X=             -1.3014    Y=              2.9462    Z=              0.0383  Tot=              3.2211

 Test job not archived.
 1\1\GINC-SE135\SP\RHF\Aug-CC-pVDZ\C5H9N1O1\OHZDE\09-Apr-2025\0\\#t hf
 aug-cc-pvdz iop(5/13=1,5/36=2,99/5=2) pseudo=read geom=check guess=(re
 ad,tcheck) scf=(maxcycle=1)\\title\\0,1\C,0,3.16174435,-0.19962151,0.0
 3822819\C,0,1.66012176,-0.2502677,0.19925769\N,0,0.94907449,0.61612755
 ,-0.56227118\O,0,1.12939714,-1.0321213,0.96417628\C,0,-2.07887891,-0.4
 9939327,0.63386067\C,0,-3.35261434,-0.3680997,0.55381656\C,0,-2.571722
 35,0.54548918,-0.34050112\H,0,3.6127877,-0.11178258,1.02563069\H,0,3.4
 9410688,-1.14457954,-0.39239084\H,0,3.5060176,0.61973722,-0.59248478\H

 Normal termination of Gaussian 16 at Wed Apr  9 18:49:49 2025.
