 Gaussian 16, Revision C.01,

 ----------------------------------------------------------------------
 #t hf aug-cc-pvdz symm=none int=(grid=ultrafine) guess=(read,tcheck) s
 table=(opt,rrhf)
 ----------------------------------------------------------------------
 -----
 title
 -----
 Symbolic Z-matrix:
 Charge =  0 Multiplicity = 1

 SCF Done:  E(RHF) =  -286.852612229     A.U. after   14 cycles
 Normal termination of Gaussian 16 at Wed Apr  9 18:43:41 2025.
 Gaussian 16:  ES64L-G16RevC.01  3-Jul-2019

 ----------------------------------------------------------------------
 #t hf aug-cc-pvdz iop(5/13=1,5/36=2,99/5=2) pseudo=read geom=check gue
 ss=(read,tcheck) scf=(maxcycle=1)
 ----------------------------------------------------------------------
 -----
 title
 -----
 Structure from the checkpoint file:  "Grambow2020_wb97xd3_008000_reverse_mol2.chk"
 Charge =  0 Multiplicity = 1

                         Standard orientation:
 ---------------------------------------------------------------------
 Center     Atomic      Atomic             Coordinates (Angstroms)
 Number     Number       Type             X           Y           Z
 ---------------------------------------------------------------------
      1          6           0       -3.875878    0.365152    0.027891
      2          6           0       -2.466024    0.006575   -0.051688
      3          6           0       -1.301916   -0.282963   -0.111822
      4          6           0        0.073761   -0.653065   -0.203202
      5          6           0        1.069963    0.000040    0.391834
      6          6           0        2.515700   -0.382392    0.273460
      7          7           0        3.370472    0.638569   -0.324834
      8          1           0       -4.267929    0.180200    1.029553
      9          1           0       -4.464946   -0.219892   -0.680008
     10          1           0       -4.019703    1.422396   -0.201208
     11          1           0        2.998359    0.923741   -1.221651
     12          1           0        0.296364   -1.532999   -0.802117
     13          1           0        0.843279    0.882490    0.986246
     14          1           0        2.604430   -1.297827   -0.317413
     15          1           0        2.918332   -0.613231    1.264190
     16          1           0        3.404876    1.465061    0.257404
 ---------------------------------------------------------------------

 SCF Done:  E(RHF) =  -287.159376975     A.U. after    2 cycles

 The electronic state is 1-A.
 Alpha  occ. eigenvalues --  -15.48783 -11.26550 -11.25764 -11.25693 -11.24764
 Alpha  occ. eigenvalues --  -11.23480 -11.22766  -1.18884  -1.09136  -1.04515
 Alpha  occ. eigenvalues --   -0.96884  -0.91225  -0.80150  -0.71953  -0.68639
 Alpha  occ. eigenvalues --   -0.64538  -0.63240  -0.60938  -0.59570  -0.59453
 Alpha  occ. eigenvalues --   -0.55553  -0.52466  -0.45710  -0.43744  -0.38414
 Alpha  occ. eigenvalues --   -0.33472
 Alpha virt. eigenvalues --    0.03389   0.03615   0.04110   0.04873   0.05661
 Alpha virt. eigenvalues --    0.05892   0.05994   0.07058   0.07925   0.09524
 Alpha virt. eigenvalues --    0.10474   0.11472   0.12730   0.13581   0.14638

 Mulliken charges:
               1
     1  C   -0.730467
     2  C   -0.312889
     3  C    0.107868
     4  C    0.472637
     5  C    0.316476
     6  C   -0.897428
     7  N    0.099638
     8  H    0.271513
     9  H    0.244988
    10  H    0.262866
    11  H    0.155950
    12  H   -0.232509
    13  H   -0.170040
    14  H    0.076352
    15  H    0.155668
    16  H    0.179379
 Sum of Mulliken charges =  -0.00000

 Dipole moment (field-independent basis, Debye):
    X=             -1.4497    Y=              0.7365    Z=              0.3170  Tot=              1.6566

 Test job not archived.
 1\1\GINC-SE192\SP\RHF\Aug-CC-pVDZ\C6H9N1\OHZDE\09-Apr-2025\0\\#t hf au
 g-cc-pvdz iop(5/13=1,5/36=2,99/5=2) pseudo=read geom=check guess=(read
 ,tcheck) scf=(maxcycle=1)\\title\\0,1\C,0,2.99985381,0.56976848,2.5225
 1389\C,0,2.02346416,0.44564643,1.44833648\C,0,1.21233484,0.34370289,0.
 56840961\C,0,0.27322905,0.22367121,-0.4999932\C,0,-1.04373412,0.115532
 98,-0.33583826\C,0,-2.02259002,-0.03200009,-1.46300141\N,0,-2.80070201
 ,-1.26686466,-1.43843147\H,0,2.91687933,1.54140364,3.01269498\H,0,4.01
 5422,0.47063077,2.13626163\H,0,2.84538735,-0.20344051,3.27698491\H,0,-

 Normal termination of Gaussian 16 at Wed Apr  9 18:43:46 2025.
