 Gaussian 16, Revision C.01,

 ----------------------------------------------------------------------
 #t hf aug-cc-pvdz symm=none int=(grid=ultrafine) guess=(read,tcheck) s
 table=(opt,rrhf)
 ----------------------------------------------------------------------
 -----
 title
 -----
 Symbolic Z-matrix:
 Charge =  0 Multiplicity = 1

 SCF Done:  E(RHF) =  -302.817037415     A.U. after   14 cycles
 Normal termination of Gaussian 16 at Wed Apr  9 19:11:58 2025.
 Gaussian 16:  ES64L-G16RevC.01  3-Jul-2019

 ----------------------------------------------------------------------
 #t hf aug-cc-pvdz iop(5/13=1,5/36=2,99/5=2) pseudo=read geom=check gue
 ss=(read,tcheck) scf=(maxcycle=1)
 ----------------------------------------------------------------------
 -----
 title
 -----
 Structure from the checkpoint file:  "Grambow2020_wb97xd3_008884_reverse_mol2.chk"
 Charge =  0 Multiplicity = 1

                         Standard orientation:
 ---------------------------------------------------------------------
 Center     Atomic      Atomic             Coordinates (Angstroms)
 Number     Number       Type             X           Y           Z
 ---------------------------------------------------------------------
      1          6           0        2.847877    0.503651   -0.220743
      2          7           0        1.488808    0.049769   -0.383228
      3          6           0        0.859167   -0.323936    0.640521
      4          6           0       -0.556058   -0.799941    0.601194
      5          6           0       -1.604921    0.002653   -0.086823
      6          7           0       -2.245045    1.191951    0.012736
      7          6           0       -1.251203   -1.068327   -0.709521
      8          1           0        3.204480    0.458058    0.818446
      9          1           0        3.508670   -0.100125   -0.846758
     10          1           0        2.928400    1.534080   -0.574541
     11          1           0        1.335902   -0.320314    1.634966
     12          1           0       -0.835919   -1.370080    1.491003
     13          1           0       -2.393147    1.551080    0.938625
     14          1           0       -2.993756    1.364186   -0.635280
     15          1           0       -1.230144   -1.693529   -1.580786
 ---------------------------------------------------------------------

 SCF Done:  E(RHF) =  -303.135970227     A.U. after    2 cycles

 The electronic state is 1-A.
 Alpha  occ. eigenvalues --  -15.52656 -15.47909 -11.28507 -11.26511 -11.24780
 Alpha  occ. eigenvalues --  -11.24453 -11.22394  -1.24203  -1.21912  -1.14089
 Alpha  occ. eigenvalues --   -0.96629  -0.86752  -0.80193  -0.76167  -0.72453
 Alpha  occ. eigenvalues --   -0.69746  -0.67373  -0.62440  -0.59234  -0.56664
 Alpha  occ. eigenvalues --   -0.52061  -0.49721  -0.47942  -0.42526  -0.39362
 Alpha  occ. eigenvalues --   -0.33435
 Alpha virt. eigenvalues --    0.02806   0.04305   0.04525   0.04751   0.05656
 Alpha virt. eigenvalues --    0.06117   0.06410   0.07903   0.09341   0.10988
 Alpha virt. eigenvalues --    0.11380   0.12186   0.13198   0.14432   0.14906

 Mulliken charges:
               1
     1  C   -0.297176
     2  N    0.722068
     3  C   -0.959081
     4  C    0.320386
     5  C   -1.310277
     6  N    0.820868
     7  C    0.688920
     8  H    0.124743
     9  H    0.101036
    10  H    0.117610
    11  H   -0.223757
    12  H   -0.060896
    13  H    0.075916
    14  H    0.113477
    15  H   -0.233837
 Sum of Mulliken charges =   0.00000

 Dipole moment (field-independent basis, Debye):
    X=             -1.6643    Y=              0.6269    Z=              1.8326  Tot=              2.5536

 Test job not archived.
 1\1\GINC-SE113\SP\RHF\Aug-CC-pVDZ\C5H8N2\OHZDE\09-Apr-2025\0\\#t hf au
 g-cc-pvdz iop(5/13=1,5/36=2,99/5=2) pseudo=read geom=check guess=(read
 ,tcheck) scf=(maxcycle=1)\\title\\0,1\C,0,2.58886248,-0.16027792,0.741
 94169\N,0,1.33867159,0.22200627,0.13336953\C,0,0.58819225,-0.68714854,
 -0.30752031\C,0,-0.7357039,-0.4170665,-0.94418434\C,0,-1.73414053,0.45
 863353,-0.27045239\N,0,-2.51254704,0.49751048,0.8370991\C,0,-1.1590253
 7,0.98678572,-1.2952284\H,0,2.76345917,-1.2459445,0.74111185\H,0,3.412
 0035,0.32931248,0.21674761\H,0,2.61187095,0.1981099,1.77367328\H,0,0.8

 Normal termination of Gaussian 16 at Wed Apr  9 19:12:03 2025.
