 Gaussian 16, Revision C.01,

 ----------------------------------------------------------------------
 #t hf aug-cc-pvdz symm=none int=(grid=ultrafine) guess=(read,tcheck) s
 table=(opt,rrhf)
 ----------------------------------------------------------------------
 -----
 title
 -----
 Symbolic Z-matrix:
 Charge =  0 Multiplicity = 1

 SCF Done:  E(RHF) =  -307.012716953     A.U. after   13 cycles

 1\1\GINC-SE092\Stability\RHF\Aug-CC-pVDZ\C4H10O2\OHZDE\09-Apr-2025\0\\
 #t hf aug-cc-pvdz symm=none int=(grid=ultrafine) guess=(read,tcheck) s
 table=(opt,rrhf)\\title\\0,1\C,0,-1.92872598,-0.43017948,-0.05819431\C
 ,0,-0.7036194,0.48045161,-0.27442488\C,0,0.09843761,-0.0109859,-1.4624
 4821\O,0,1.3112115,-0.16909866,-1.48275851\C,0,0.16242939,0.61394086,0
 .99098431\O,0,1.25250602,1.50377471,0.82742997\H,0,-2.53370126,-0.5170
 9702,-0.97165727\H,0,-1.61633153,-1.44070673,0.24114778\H,0,-2.5696288
 1,-0.02258105,0.73452065\H,0,-1.06570828,1.48566935,-0.56110888\H,0,-0

 Normal termination of Gaussian 16 at Wed Apr  9 16:04:58 2025.
 Gaussian 16:  ES64L-G16RevC.01  3-Jul-2019

 ----------------------------------------------------------------------
 #t hf aug-cc-pvdz iop(5/13=1,5/36=2,99/5=2) pseudo=read geom=check gue
 ss=(read,tcheck) scf=(maxcycle=1)
 ----------------------------------------------------------------------
 -----
 title
 -----
 Structure from the checkpoint file:  "Grambow2020_b97d3_007106_reverse_mol2.chk"
 Charge =  0 Multiplicity = 1

                         Standard orientation:
 ---------------------------------------------------------------------
 Center     Atomic      Atomic             Coordinates (Angstroms)
 Number     Number       Type             X           Y           Z
 ---------------------------------------------------------------------
      1          6           0        2.111074   -0.192898    0.430988
      2          6           0        0.776193   -0.160456   -0.339681
      3          6           0        0.224168    1.250688   -0.351757
      4          8           0       -0.928704    1.563421   -0.088473
      5          6           0       -0.244667   -1.174712    0.206442
      6          8           0       -1.450265   -1.205314   -0.536806
      7          1           0        2.826574    0.539022    0.030592
      8          1           0        1.953187    0.031912    1.495363
      9          1           0        2.568206   -1.188303    0.356899
     10          1           0        0.982039   -0.403515   -1.399072
     11          1           0        0.967781    2.039347   -0.628635
     12          1           0       -2.895612    0.480819    2.529064
     13          1           0       -2.504340    0.745892    1.952440
     14          1           0        0.185193   -2.183741    0.146093
     15          1           0       -0.419108   -0.951049    1.276015
     16          1           0       -1.832777   -0.310973   -0.432491
 ---------------------------------------------------------------------

 SCF Done:  E(RHF) =  -307.335181257     A.U. after    2 cycles

 The electronic state is 1-A.
 Alpha  occ. eigenvalues --  -20.56536 -20.54129 -11.36115 -11.29275 -11.26602
 Alpha  occ. eigenvalues --  -11.25856  -1.48780  -1.43893  -1.09934  -0.93573
 Alpha  occ. eigenvalues --   -0.90344  -0.79079  -0.71685  -0.67189  -0.65750
 Alpha  occ. eigenvalues --   -0.61790  -0.60211  -0.58232  -0.57235  -0.56442
 Alpha  occ. eigenvalues --   -0.54658  -0.50571  -0.50214  -0.43901  -0.42302
 Alpha virt. eigenvalues --    0.02904   0.03593   0.03969   0.05141   0.06272
 Alpha virt. eigenvalues --    0.06637   0.07318   0.07469   0.08486   0.09812
 Alpha virt. eigenvalues --    0.10497   0.12636   0.13758   0.14022   0.15083

 Mulliken charges:
               1
     1  C   -0.174254
     2  C   -1.242562
     3  C    1.253742
     4  O   -1.182657
     5  C    0.951909
     6  O   -1.213825
     7  H    0.135449
     8  H    0.247520
     9  H    0.165556
    10  H    0.287604
    11  H    0.113951
    12  H    0.042845
    13  H   -0.047988
    14  H    0.082094
    15  H    0.206213
    16  H    0.374402
 Sum of Mulliken charges =  -0.00000

 Dipole moment (field-independent basis, Debye):
    X=              3.7135    Y=              0.2831    Z=              0.2423  Tot=              3.7322

 Test job not archived.
 1\1\GINC-SE092\SP\RHF\Aug-CC-pVDZ\C4H10O2\OHZDE\09-Apr-2025\0\\#t hf a
 ug-cc-pvdz iop(5/13=1,5/36=2,99/5=2) pseudo=read geom=check guess=(rea
 d,tcheck) scf=(maxcycle=1)\\title\\0,1\C,0,-1.92872598,-0.43017948,-0.
 05819431\C,0,-0.7036194,0.48045161,-0.27442488\C,0,0.09843761,-0.01098
 59,-1.46244821\O,0,1.3112115,-0.16909866,-1.48275851\C,0,0.16242939,0.
 61394086,0.99098431\O,0,1.25250602,1.50377471,0.82742997\H,0,-2.533701
 26,-0.51709702,-0.97165727\H,0,-1.61633153,-1.44070673,0.24114778\H,0,
 -2.56962881,-0.02258105,0.73452065\H,0,-1.06570828,1.48566935,-0.56110

 Normal termination of Gaussian 16 at Wed Apr  9 16:05:02 2025.
