 Gaussian 16, Revision C.01,

 ----------------------------------------------------------------------
 #t hf aug-cc-pvdz symm=none int=(grid=ultrafine) guess=(read,tcheck) s
 table=(opt,rrhf)
 ----------------------------------------------------------------------
 -----
 title
 -----
 Symbolic Z-matrix:
 Charge =  0 Multiplicity = 1

 SCF Done:  E(RHF) =  -268.655250405     A.U. after   16 cycles
 Normal termination of Gaussian 16 at Wed Apr  9 16:00:54 2025.
 Gaussian 16:  ES64L-G16RevC.01  3-Jul-2019

 ----------------------------------------------------------------------
 #t hf aug-cc-pvdz iop(5/13=1,5/36=2,99/5=2) pseudo=read geom=check gue
 ss=(read,tcheck) scf=(maxcycle=1)
 ----------------------------------------------------------------------
 -----
 title
 -----
 Structure from the checkpoint file:  "Grambow2020_b97d3_007082_forward_mol1.chk"
 Charge =  0 Multiplicity = 1

                         Standard orientation:
 ---------------------------------------------------------------------
 Center     Atomic      Atomic             Coordinates (Angstroms)
 Number     Number       Type             X           Y           Z
 ---------------------------------------------------------------------
      1          6           0        2.022475   -0.585266   -0.210536
      2          6           0        0.690578   -0.351530    0.436320
      3          6           0       -0.638797   -0.298282   -0.368297
      4          8           0       -1.647883   -1.143960    0.158810
      5          6           0       -0.916564    1.172924   -0.565096
      6          6           0        0.038537    1.656801    0.286005
      7          1           0        2.189374   -1.668961   -0.353933
      8          1           0        2.833774   -0.233210    0.444225
      9          1           0        2.110037   -0.084648   -1.182301
     10          1           0        0.199365    1.089012    1.267381
     11          1           0        0.625514   -0.811570    1.436078
     12          1           0       -0.378645   -0.705706   -1.365796
     13          1           0       -2.210900   -0.577571    0.719083
     14          1           0        0.637173    2.576445    0.294413
 ---------------------------------------------------------------------

 SCF Done:  E(RHF) =  -268.934343812     A.U. after    2 cycles

 The electronic state is 1-A.
 Alpha  occ. eigenvalues --  -20.56145 -11.34496 -11.30789 -11.27453 -11.25612
 Alpha  occ. eigenvalues --  -11.21608  -1.45810  -1.13211  -1.03365  -0.91333
 Alpha  occ. eigenvalues --   -0.85585  -0.74739  -0.67929  -0.65870  -0.63643
 Alpha  occ. eigenvalues --   -0.61334  -0.58546  -0.57137  -0.55886  -0.48373
 Alpha  occ. eigenvalues --   -0.46623  -0.37572  -0.31622
 Alpha virt. eigenvalues --    0.02469   0.03309   0.03673   0.04659   0.05632
 Alpha virt. eigenvalues --    0.06116   0.06800   0.07173   0.07458   0.09809
 Alpha virt. eigenvalues --    0.11503   0.12612   0.13663   0.14484   0.14924

 Mulliken charges:
               1
     1  C   -0.494301
     2  C   -0.272339
     3  C    1.152135
     4  O   -1.326175
     5  C   -0.443123
     6  C   -0.076183
     7  H    0.278571
     8  H    0.212660
     9  H    0.184951
    10  H    0.417571
    11  H   -0.015071
    12  H    0.177894
    13  H    0.290864
    14  H   -0.087453
 Sum of Mulliken charges =  -0.00000

 Dipole moment (field-independent basis, Debye):
    X=              4.1812    Y=             -1.7521    Z=              2.7603  Tot=              5.3077

 Test job not archived.
 1\1\GINC-SE057\SP\RHF\Aug-CC-pVDZ\C5H8O1\OHZDE\09-Apr-2025\0\\#t hf au
 g-cc-pvdz iop(5/13=1,5/36=2,99/5=2) pseudo=read geom=check guess=(read
 ,tcheck) scf=(maxcycle=1)\\title\\0,1\C,0,-1.26797659,1.20602132,-0.14
 800665\C,0,-0.57195337,-0.1210377,-0.10967358\C,0,0.7124167,-0.3745759
 7,0.72913257\O,0,0.62174073,-1.51881838,1.56205043\C,0,1.85143752,-0.2
 4755685,-0.25414235\C,0,1.1042063,-0.21404661,-1.39924122\H,0,-1.94412
 669,1.30478139,0.72140714\H,0,-1.90461338,1.27936954,-1.04253214\H,0,-
 0.56537795,2.048015,-0.14415264\H,0,0.1955172,-0.90905206,-1.4502464\H

 Normal termination of Gaussian 16 at Wed Apr  9 16:00:58 2025.
