 Gaussian 16, Revision C.01,

 ----------------------------------------------------------------------
 #t hf aug-cc-pvdz symm=none int=(grid=ultrafine) guess=(read,tcheck) s
 table=(opt,rrhf)
 ----------------------------------------------------------------------
 -----
 title
 -----
 Symbolic Z-matrix:
 Charge =  0 Multiplicity = 1

 SCF Done:  E(RHF) =  -324.966810529     A.U. after   13 cycles
 Normal termination of Gaussian 16 at Wed Apr  9 19:14:14 2025.
 Gaussian 16:  ES64L-G16RevC.01  3-Jul-2019

 ----------------------------------------------------------------------
 #t hf aug-cc-pvdz iop(5/13=1,5/36=2,99/5=2) pseudo=read geom=check gue
 ss=(read,tcheck) scf=(maxcycle=1)
 ----------------------------------------------------------------------
 -----
 title
 -----
 Structure from the checkpoint file:  "Grambow2020_wb97xd3_008957_reverse_mol2.chk"
 Charge =  0 Multiplicity = 1

                         Standard orientation:
 ---------------------------------------------------------------------
 Center     Atomic      Atomic             Coordinates (Angstroms)
 Number     Number       Type             X           Y           Z
 ---------------------------------------------------------------------
      1          6           0        1.687993   -1.485877    0.038744
      2          6           0        1.657366    0.023683    0.181946
      3          7           0        0.633504    0.619199   -0.675197
      4          6           0        0.074772    1.913136   -0.224588
      5          6           0       -0.678018    0.681549   -0.187132
      6          6           0       -1.757606   -0.036090    0.034434
      7          8           0       -1.871885   -1.380580   -0.171534
      8          1           0        2.534011   -1.906531    0.584190
      9          1           0        1.782366   -1.771512   -1.010649
     10          1           0        0.782562   -1.938030    0.450263
     11          1           0        1.491209    0.295010    1.234333
     12          1           0        2.615982    0.450057   -0.122790
     13          1           0        0.449519    2.310038    0.716509
     14          1           0       -0.090392    2.646571   -1.005820
     15          1           0       -0.666543    0.599816    2.864199
     16          1           0       -2.669191    0.407464    0.409938
     17          1           0       -0.492720    0.725382    3.579185
     18          1           0       -1.103293   -1.686429   -0.661134
 ---------------------------------------------------------------------

 SCF Done:  E(RHF) =  -325.316328183     A.U. after    2 cycles

 The electronic state is 1-A.
 Alpha  occ. eigenvalues --  -20.57217 -15.51451 -11.29675 -11.27868 -11.26800
 Alpha  occ. eigenvalues --  -11.26419 -11.23282  -1.48419  -1.29883  -1.06139
 Alpha  occ. eigenvalues --   -0.99233  -0.91623  -0.84893  -0.78820  -0.72302
 Alpha  occ. eigenvalues --   -0.68333  -0.65565  -0.62172  -0.61164  -0.59289
 Alpha  occ. eigenvalues --   -0.57396  -0.55881  -0.54375  -0.52062  -0.50687
 Alpha  occ. eigenvalues --   -0.48956  -0.43563  -0.33616
 Alpha virt. eigenvalues --    0.03676   0.04055   0.04329   0.04566   0.05234
 Alpha virt. eigenvalues --    0.05553   0.06411   0.07076   0.07564   0.09743
 Alpha virt. eigenvalues --    0.11082   0.11377   0.11998   0.13122   0.13620

 Mulliken charges:
               1
     1  C   -0.310660
     2  C   -0.255576
     3  N    0.760964
     4  C   -0.092482
     5  C   -0.759776
     6  C    1.415767
     7  O   -1.503164
     8  H    0.128687
     9  H    0.180320
    10  H    0.087821
    11  H    0.072312
    12  H    0.003767
    13  H   -0.041809
    14  H   -0.046751
    15  H   -0.058678
    16  H   -0.077427
    17  H    0.053492
    18  H    0.443192
 Sum of Mulliken charges =  -0.00000

 Dipole moment (field-independent basis, Debye):
    X=              1.3325    Y=              0.8411    Z=              0.8510  Tot=              1.7908

 Test job not archived.
 1\1\GINC-SE112\SP\RHF\Aug-CC-pVDZ\C5H11N1O1\OHZDE\09-Apr-2025\0\\#t hf
  aug-cc-pvdz iop(5/13=1,5/36=2,99/5=2) pseudo=read geom=check guess=(r
 ead,tcheck) scf=(maxcycle=1)\\title\\0,1\C,0,-1.88049687,-0.69342332,-
 0.68064189\C,0,-1.32597029,0.0387436,0.52627461\N,0,-0.13524914,-0.627
 00701,1.0521887\C,0,0.82952135,0.23203388,1.77383238\C,0,1.10089388,-0
 .32179285,0.46825442\C,0,1.85348966,-0.54276577,-0.58738673\O,0,1.4942
 3899,-1.28359786,-1.67607563\H,0,-2.83488245,-0.26238262,-0.98651739\H
 ,0,-2.04042769,-1.74864443,-0.45118491\H,0,-1.20292704,-0.61384084,-1.

 Normal termination of Gaussian 16 at Wed Apr  9 19:14:21 2025.
