 Gaussian 16, Revision C.01,

 ----------------------------------------------------------------------
 #t hf aug-cc-pvdz symm=none int=(grid=ultrafine) guess=(read,tcheck) s
 table=(opt,rrhf)
 ----------------------------------------------------------------------
 -----
 title
 -----
 Symbolic Z-matrix:
 Charge =  0 Multiplicity = 1

 SCF Done:  E(RHF) =  -360.717591664     A.U. after   15 cycles
 Normal termination of Gaussian 16 at Wed Apr  9 18:31:35 2025.
 Gaussian 16:  ES64L-G16RevC.01  3-Jul-2019

 ----------------------------------------------------------------------
 #t hf aug-cc-pvdz iop(5/13=1,5/36=2,99/5=2) pseudo=read geom=check gue
 ss=(read,tcheck) scf=(maxcycle=1)
 ----------------------------------------------------------------------
 -----
 title
 -----
 Structure from the checkpoint file:  "Grambow2020_wb97xd3_007662_reverse_mol1.chk"
 Charge =  0 Multiplicity = 1

                         Standard orientation:
 ---------------------------------------------------------------------
 Center     Atomic      Atomic             Coordinates (Angstroms)
 Number     Number       Type             X           Y           Z
 ---------------------------------------------------------------------
      1          6           0       -1.948884   -0.677441   -0.754445
      2          8           0       -1.852596    0.235007    0.313221
      3          6           0       -0.637662    0.136137    1.006997
      4          6           0        0.550887    0.565304    0.203057
      5          7           0        1.657793   -0.146774    0.049024
      6          8           0        1.489780   -1.532432   -0.110477
      7          6           0        0.830421    1.775600   -0.471898
      8          1           0       -2.937269   -0.553582   -1.193859
      9          1           0       -1.191158   -0.482885   -1.523388
     10          1           0       -1.832170   -1.711417   -0.407163
     11          1           0       -0.477832   -0.879924    1.387091
     12          1           0       -0.716218    0.818228    1.858411
     13          1           0        2.309452   -1.903708    0.226905
     14          1           0        0.825871    1.692787   -1.555687
     15          1           0        2.073115    0.898208   -0.562193
     16          1           0        0.475612    2.731518   -0.097509
 ---------------------------------------------------------------------

 SCF Done:  E(RHF) =  -361.089512395     A.U. after    2 cycles

 The electronic state is 1-A.
 Alpha  occ. eigenvalues --  -20.59687 -20.55352 -15.57684 -11.30586 -11.30155
 Alpha  occ. eigenvalues --  -11.28170 -11.21560  -1.50916  -1.47587  -1.22721
 Alpha  occ. eigenvalues --   -1.00897  -0.95556  -0.91125  -0.76685  -0.75085
 Alpha  occ. eigenvalues --   -0.70117  -0.68170  -0.66767  -0.63241  -0.61649
 Alpha  occ. eigenvalues --   -0.57968  -0.55468  -0.54430  -0.53037  -0.48792
 Alpha  occ. eigenvalues --   -0.43912  -0.41620  -0.34421
 Alpha virt. eigenvalues --    0.03468   0.04321   0.04508   0.04696   0.06030
 Alpha virt. eigenvalues --    0.06273   0.06808   0.06951   0.09052   0.10095
 Alpha virt. eigenvalues --    0.11770   0.12348   0.13988   0.14348   0.14523

 Mulliken charges:
               1
     1  C    0.216946
     2  O   -1.164483
     3  C    0.422055
     4  C   -0.871615
     5  N    1.279217
     6  O   -1.199546
     7  C   -0.173952
     8  H   -0.057327
     9  H    0.247415
    10  H    0.184864
    11  H    0.205002
    12  H    0.084572
    13  H    0.314115
    14  H    0.030672
    15  H    0.555296
    16  H   -0.073229
 Sum of Mulliken charges =  -0.00000

 Dipole moment (field-independent basis, Debye):
    X=              0.4114    Y=             -1.2431    Z=              0.2749  Tot=              1.3379

 Test job not archived.
 1\1\GINC-SE041\SP\RHF\Aug-CC-pVDZ\C4H9N1O2\OHZDE\09-Apr-2025\0\\#t hf
 aug-cc-pvdz iop(5/13=1,5/36=2,99/5=2) pseudo=read geom=check guess=(re
 ad,tcheck) scf=(maxcycle=1)\\title\\0,1\C,0,2.09683462,0.10891098,0.12
 620519\O,0,1.3484128,-0.2845401,1.25172953\C,0,0.06395392,0.2782462,1.
 2762543\C,0,-0.8347003,-0.226041,0.18939327\N,0,-1.53203193,0.54309396
 ,-0.6341242\O,0,-0.89214045,1.70752528,-1.09058336\C,0,-1.22328606,-1.
 53878257,-0.16306931\H,0,3.08402265,-0.3394687,0.22492745\H,0,1.639253
 39,-0.24108369,-0.8072812\H,0,2.19642148,1.20015001,0.07507598\H,0,0.1

 Normal termination of Gaussian 16 at Wed Apr  9 18:31:40 2025.
