 Gaussian 16, Revision C.01,

 ----------------------------------------------------------------------
 #t hf aug-cc-pvdz symm=none int=(grid=ultrafine) guess=(read,tcheck) s
 table=(opt,rrhf)
 ----------------------------------------------------------------------
 -----
 title
 -----
 Symbolic Z-matrix:
 Charge =  0 Multiplicity = 1

 SCF Done:  E(RHF) =  -268.809988170     A.U. after   13 cycles
 Normal termination of Gaussian 16 at Wed Apr  9 03:21:03 2025.
 Gaussian 16:  ES64L-G16RevC.01  3-Jul-2019

 ----------------------------------------------------------------------
 #t hf aug-cc-pvdz iop(5/13=1,5/36=2,99/5=2) pseudo=read geom=check gue
 ss=(read,tcheck) scf=(maxcycle=1)
 ----------------------------------------------------------------------
 -----
 title
 -----
 Structure from the checkpoint file:  "Grambow2020_wb97xd3_006048_reverse_mol2.chk"
 Charge =  0 Multiplicity = 1

                         Standard orientation:
 ---------------------------------------------------------------------
 Center     Atomic      Atomic             Coordinates (Angstroms)
 Number     Number       Type             X           Y           Z
 ---------------------------------------------------------------------
      1          6           0       -1.853103    1.059320    0.090326
      2          8           0       -1.944983   -0.312519   -0.223261
      3          6           0       -0.783518   -1.008783   -0.127252
      4          6           0        0.386366   -0.540735    0.221595
      5          6           0        1.574390   -0.120461    0.554235
      6          6           0        2.598573    0.411137   -0.406701
      7          1           0       -1.150031    1.566830   -0.578367
      8          1           0       -2.850025    1.476145   -0.036377
      9          1           0       -1.519761    1.203232    1.123047
     10          1           0        1.861621   -0.147269    1.604445
     11          1           0       -0.925843   -2.052895   -0.379888
     12          1           0        2.848737    1.448009   -0.167456
     13          1           0        3.524270   -0.165782   -0.340065
     14          1           0        2.234652    0.369005   -1.432474
 ---------------------------------------------------------------------

 SCF Done:  E(RHF) =  -269.092279990     A.U. after    2 cycles

 The electronic state is 1-A.
 Alpha  occ. eigenvalues --  -20.56751 -11.30100 -11.28466 -11.25542 -11.23771
 Alpha  occ. eigenvalues --  -11.23518  -1.49432  -1.08432  -1.00558  -0.94697
 Alpha  occ. eigenvalues --   -0.88043  -0.73328  -0.68798  -0.67621  -0.65008
 Alpha  occ. eigenvalues --   -0.58960  -0.57989  -0.56950  -0.53675  -0.50807
 Alpha  occ. eigenvalues --   -0.49459  -0.37656  -0.34202
 Alpha virt. eigenvalues --    0.03510   0.04083   0.04212   0.04401   0.05621
 Alpha virt. eigenvalues --    0.06611   0.07044   0.08153   0.10104   0.10946
 Alpha virt. eigenvalues --    0.12106   0.12794   0.13381   0.14510   0.15283

 Mulliken charges:
               1
     1  C    0.205387
     2  O   -1.360063
     3  C    1.439128
     4  C   -0.342786
     5  C    0.142068
     6  C   -0.657179
     7  H    0.180947
     8  H   -0.050951
     9  H    0.166985
    10  H   -0.158860
    11  H   -0.067605
    12  H    0.216736
    13  H    0.194341
    14  H    0.091851
 Sum of Mulliken charges =  -0.00000

 Dipole moment (field-independent basis, Debye):
    X=              0.9940    Y=              1.0507    Z=              0.2459  Tot=              1.4671

 Test job not archived.
 1\1\GINC-SE123\SP\RHF\Aug-CC-pVDZ\C5H8O1\OHZDE\09-Apr-2025\0\\#t hf au
 g-cc-pvdz iop(5/13=1,5/36=2,99/5=2) pseudo=read geom=check guess=(read
 ,tcheck) scf=(maxcycle=1)\\title\\0,1\C,0,-2.2574474,0.07605857,0.0733
 0756\O,0,-2.08100514,-0.37775736,-1.25018797\C,0,-0.80420351,-0.687367
 77,-1.59212502\C,0,0.25450206,-0.60842052,-0.82903806\C,0,1.34021419,-
 0.53836875,-0.11140003\C,0,2.22884806,0.66804182,-0.01216583\H,0,-1.67
 559417,0.98562542,0.25541147\H,0,-3.31827435,0.2858878,0.19275482\H,0,
 -1.94737145,-0.6877695,0.79355729\H,0,1.63888705,-1.41055382,0.4684709

 Normal termination of Gaussian 16 at Wed Apr  9 03:21:07 2025.
