 Gaussian 16, Revision C.01,

 ----------------------------------------------------------------------
 #t hf aug-cc-pvdz symm=none int=(grid=ultrafine) guess=(read,tcheck) s
 table=(opt,rrhf)
 ----------------------------------------------------------------------
 -----
 title
 -----
 Symbolic Z-matrix:
 Charge =  0 Multiplicity = 1

 SCF Done:  E(RHF) =  -305.653659599     A.U. after   16 cycles
 Normal termination of Gaussian 16 at Wed Apr  9 03:05:52 2025.
 Gaussian 16:  ES64L-G16RevC.01  3-Jul-2019

 ----------------------------------------------------------------------
 #t hf aug-cc-pvdz iop(5/13=1,5/36=2,99/5=2) pseudo=read geom=check gue
 ss=(read,tcheck) scf=(maxcycle=1)
 ----------------------------------------------------------------------
 -----
 title
 -----
 Structure from the checkpoint file:  "Grambow2020_b97d3_006512_reverse_mol1.chk"
 Charge =  0 Multiplicity = 1

                         Standard orientation:
 ---------------------------------------------------------------------
 Center     Atomic      Atomic             Coordinates (Angstroms)
 Number     Number       Type             X           Y           Z
 ---------------------------------------------------------------------
      1          8           0       -2.127584   -0.618639   -0.171714
      2          6           0       -0.842300    1.134905   -0.078500
      3          6           0        0.527197    0.869118    0.375188
      4          6           0        0.261788   -0.559154    0.881633
      5          6           0        1.263220   -0.964301   -0.190969
      6          8           0        1.387260    0.406473   -0.689603
      7          1           0       -2.015006   -0.996073   -1.071042
      8          1           0       -1.067607    1.245539   -1.136499
      9          1           0       -1.566127    1.538957    0.626867
     10          1           0        0.975569    1.651133    1.014393
     11          1           0        0.373367   -0.769333    1.947166
     12          1           0       -1.176792   -0.872248    0.373371
     13          1           0        0.913155   -1.644420   -0.987399
     14          1           0        2.226597   -1.339634    0.199572
 ---------------------------------------------------------------------

 SCF Done:  E(RHF) =  -305.971050219     A.U. after    2 cycles

 The electronic state is 1-A.
 Alpha  occ. eigenvalues --  -20.54683 -20.52170 -11.37892 -11.31378 -11.28467
 Alpha  occ. eigenvalues --  -11.19391  -1.46337  -1.38234  -1.08100  -0.97574
 Alpha  occ. eigenvalues --   -0.87957  -0.75275  -0.71328  -0.68952  -0.65478
 Alpha  occ. eigenvalues --   -0.63580  -0.59334  -0.57506  -0.54710  -0.49227
 Alpha  occ. eigenvalues --   -0.47426  -0.44294  -0.42569  -0.29845
 Alpha virt. eigenvalues --    0.02275   0.03443   0.04133   0.04636   0.05324
 Alpha virt. eigenvalues --    0.06098   0.06817   0.07924   0.09201   0.10322
 Alpha virt. eigenvalues --    0.12371   0.13102   0.14103   0.14343   0.14957

 Mulliken charges:
               1
     1  O   -1.178804
     2  C    0.114948
     3  C    1.257955
     4  C   -0.698161
     5  C    0.554720
     6  O   -1.408465
     7  H    0.281136
     8  H    0.026820
     9  H    0.050189
    10  H    0.056105
    11  H   -0.172257
    12  H    1.078933
    13  H    0.003327
    14  H    0.033554
 Sum of Mulliken charges =   0.00000

 Dipole moment (field-independent basis, Debye):
    X=             -0.1590    Y=              2.2351    Z=             -0.2197  Tot=              2.2515

 Test job not archived.
 1\1\GINC-SE458\SP\RHF\Aug-CC-pVDZ\C4H8O2\OHZDE\09-Apr-2025\0\\#t hf au
 g-cc-pvdz iop(5/13=1,5/36=2,99/5=2) pseudo=read geom=check guess=(read
 ,tcheck) scf=(maxcycle=1)\\title\\0,1\O,0,-1.52105194,0.5504107,-1.424
 09355\C,0,-1.18547422,-0.77549937,0.26851098\C,0,0.21262249,-0.8777341
 8,0.70079656\C,0,0.82039789,-0.1882846,-0.53296048\C,0,1.29629234,0.85
 32091,0.47018485\O,0,0.60389136,0.19867382,1.58158285\H,0,-1.68185407,
 1.44297865,-1.04807883\H,0,-1.88663987,-0.13319817,0.79593902\H,0,-1.6
 0686848,-1.56131235,-0.35570916\H,0,0.53306449,-1.88017358,1.03784487\

 Normal termination of Gaussian 16 at Wed Apr  9 03:05:56 2025.
