 Gaussian 16, Revision C.01,

 ----------------------------------------------------------------------
 #t hf aug-cc-pvdz symm=none int=(grid=ultrafine) guess=(read,tcheck) s
 table=(opt,rrhf)
 ----------------------------------------------------------------------
 -----
 title
 -----
 Symbolic Z-matrix:
 Charge =  0 Multiplicity = 1

 SCF Done:  E(RHF) =  -353.555061960     A.U. after   16 cycles
 Normal termination of Gaussian 16 at Wed Apr  9 17:14:11 2025.
 Gaussian 16:  ES64L-G16RevC.01  3-Jul-2019

 ----------------------------------------------------------------------
 #t hf aug-cc-pvdz iop(5/13=1,5/36=2,99/5=2) pseudo=read geom=check gue
 ss=(read,tcheck) scf=(maxcycle=1)
 ----------------------------------------------------------------------
 -----
 title
 -----
 Structure from the checkpoint file:  "Grambow2020_wb97xd3_006539_reverse_mol2.chk"
 Charge =  0 Multiplicity = 1

                         Standard orientation:
 ---------------------------------------------------------------------
 Center     Atomic      Atomic             Coordinates (Angstroms)
 Number     Number       Type             X           Y           Z
 ---------------------------------------------------------------------
      1          8           0       -2.210416   -0.018079    0.001319
      2          6           0       -1.008936   -0.048153   -0.000179
      3          7           0       -0.269567   -1.255547   -0.001325
      4          7           0        0.996032   -1.246702    0.000004
      5          6           0        1.715720   -0.080187    0.000891
      6          6           0        1.090122    1.115210    0.000060
      7          7           0       -0.256117    1.123677   -0.001196
      8          1           0       -0.780978    1.984805   -0.000143
      9          1           0        2.789788   -0.181003    0.003153
     10          1           0        1.600639    2.069609   -0.000572
 ---------------------------------------------------------------------

 SCF Done:  E(RHF) =  -353.902950937     A.U. after    2 cycles

 The electronic state is 1-A.
 Alpha  occ. eigenvalues --  -20.52936 -15.60359 -15.59906 -15.56860 -11.40312
 Alpha  occ. eigenvalues --  -11.35302 -11.28902  -1.49563  -1.39576  -1.31072
 Alpha  occ. eigenvalues --   -1.13440  -1.01380  -0.96781  -0.83244  -0.82632
 Alpha  occ. eigenvalues --   -0.71746  -0.68986  -0.68896  -0.65894  -0.58926
 Alpha  occ. eigenvalues --   -0.57373  -0.53249  -0.50045  -0.44108  -0.37839
 Alpha virt. eigenvalues --    0.00817   0.01677   0.03438   0.04495   0.08444
 Alpha virt. eigenvalues --    0.08451   0.09471   0.10251   0.11163   0.11189
 Alpha virt. eigenvalues --    0.11949   0.12978   0.13443   0.14453   0.15200

 Mulliken charges:
               1
     1  O   -1.146740
     2  C    0.653776
     3  N   -0.034178
     4  N    0.146426
     5  C   -0.035050
     6  C   -0.046511
     7  N    0.576183
     8  H    0.156175
     9  H   -0.091689
    10  H   -0.178392
 Sum of Mulliken charges =  -0.00000

 Dipole moment (field-independent basis, Debye):
    X=              4.1347    Y=              5.7664    Z=              0.0023  Tot=              7.0956

 Test job not archived.
 1\1\GINC-SE220\SP\RHF\Aug-CC-pVDZ\C3H3N3O1\OHZDE\09-Apr-2025\0\\#t hf
 aug-cc-pvdz iop(5/13=1,5/36=2,99/5=2) pseudo=read geom=check guess=(re
 ad,tcheck) scf=(maxcycle=1)\\title\\0,1\O,0,2.54527094,-0.52756774,0.1
 1500298\C,0,1.42394311,-0.11786452,-0.02366141\N,0,1.12974694,1.131831
 55,-0.62046717\N,0,-0.0647672,1.53066958,-0.74649702\C,0,-1.13076232,0
 .78285173,-0.3185577\C,0,-0.93979449,-0.42117683,0.25953653\N,0,0.3248
 861,-0.86035928,0.40142609\H,0,0.53240061,-1.7507634,0.82703145\H,0,-2
 .1083783,1.21272984,-0.47108208\H,0,-1.73829337,-1.05870993,0.61654933

 Normal termination of Gaussian 16 at Wed Apr  9 17:14:15 2025.
