 Gaussian 16, Revision C.01,

 ----------------------------------------------------------------------
 #t hf aug-cc-pvdz symm=none int=(grid=ultrafine) guess=(read,tcheck) s
 table=(opt,rrhf)
 ----------------------------------------------------------------------
 -----
 title
 -----
 Symbolic Z-matrix:
 Charge =  0 Multiplicity = 1

 SCF Done:  E(RHF) =  -302.087466366     A.U. after   17 cycles
 Normal termination of Gaussian 16 at Wed Apr  9 15:43:34 2025.
 Gaussian 16:  ES64L-G16RevC.01  3-Jul-2019

 ----------------------------------------------------------------------
 #t hf aug-cc-pvdz iop(5/13=1,5/36=2,99/5=2) pseudo=read geom=check gue
 ss=(read,tcheck) scf=(maxcycle=1)
 ----------------------------------------------------------------------
 -----
 title
 -----
 Structure from the checkpoint file:  "Grambow2020_b97d3_006713_forward_mol1.chk"
 Charge =  0 Multiplicity = 1

                         Standard orientation:
 ---------------------------------------------------------------------
 Center     Atomic      Atomic             Coordinates (Angstroms)
 Number     Number       Type             X           Y           Z
 ---------------------------------------------------------------------
      1          8           0       -1.849548   -0.669441   -0.094009
      2          6           0       -1.279632    0.392028   -0.150983
      3          6           0        0.472964    0.567932   -0.528170
      4          6           0        0.257912    0.767420    0.839451
      5          6           0        1.012294   -0.442747    0.656231
      6          8           0        1.635152   -0.284618   -0.577018
      7          1           0       -1.705465    1.379250   -0.388922
      8          1           0        0.639411   -1.454578    0.857959
 ---------------------------------------------------------------------

 SCF Done:  E(RHF) =  -302.376056718     A.U. after    2 cycles

 The electronic state is 1-A.
 Alpha  occ. eigenvalues --  -20.66924 -20.57299 -11.42613 -11.40950 -11.37116
 Alpha  occ. eigenvalues --  -11.29733  -1.59597  -1.50648  -1.18072  -0.93438
 Alpha  occ. eigenvalues --   -0.86359  -0.75312  -0.73264  -0.68871  -0.67742
 Alpha  occ. eigenvalues --   -0.60049  -0.58007  -0.55414  -0.46298  -0.41438
 Alpha  occ. eigenvalues --   -0.40126
 Alpha virt. eigenvalues --    0.01166   0.03826   0.04584   0.05985   0.07111
 Alpha virt. eigenvalues --    0.07721   0.09450   0.09909   0.10727   0.12144
 Alpha virt. eigenvalues --    0.13292   0.14868   0.15131   0.15431   0.16071

 Mulliken charges:
               1
     1  O   -1.144543
     2  C    0.862644
     3  C    0.721213
     4  C   -0.308434
     5  C    0.692931
     6  O   -1.095796
     7  H    0.212569
     8  H    0.059416
 Sum of Mulliken charges =  -0.00000

 Dipole moment (field-independent basis, Debye):
    X=              1.1404    Y=              0.0888    Z=              0.2676  Tot=              1.1747

 Test job not archived.
 1\1\GINC-SE131\SP\RHF\Aug-CC-pVDZ\C4H2O2\OHZDE\09-Apr-2025\0\\#t hf au
 g-cc-pvdz iop(5/13=1,5/36=2,99/5=2) pseudo=read geom=check guess=(read
 ,tcheck) scf=(maxcycle=1)\\title\\0,1\O,0,-1.37091976,0.49532721,1.127
 92738\C,0,-1.22454499,-0.1450403,0.11635933\C,0,0.34251328,-0.87729034
 ,-0.38657568\C,0,0.08002203,0.26080507,-1.15616449\C,0,1.22007055,0.51
 567251,-0.31801431\O,0,1.73416415,-0.74444228,-0.03222143\H,0,-1.98075
 917,-0.72495177,-0.435365\H,0,1.24045292,1.2228589,0.52044321\\Version
 =ES64L-G16RevC.01\State=1-A\HF=-302.3760567\RMSD=9.798e-03\Dipole=0.40

 Normal termination of Gaussian 16 at Wed Apr  9 15:43:37 2025.
