 Gaussian 16, Revision C.01,

 ----------------------------------------------------------------------
 #t hf aug-cc-pvdz symm=none int=(grid=ultrafine) guess=(read,tcheck) s
 table=(opt,rrhf)
 ----------------------------------------------------------------------
 -----
 title
 -----
 Symbolic Z-matrix:
 Charge =  0 Multiplicity = 1

 SCF Done:  E(RHF) =  -321.767627228     A.U. after   15 cycles
 Normal termination of Gaussian 16 at Wed Apr  9 15:43:48 2025.
 Gaussian 16:  ES64L-G16RevC.01  3-Jul-2019

 ----------------------------------------------------------------------
 #t hf aug-cc-pvdz iop(5/13=1,5/36=2,99/5=2) pseudo=read geom=check gue
 ss=(read,tcheck) scf=(maxcycle=1)
 ----------------------------------------------------------------------
 -----
 title
 -----
 Structure from the checkpoint file:  "Grambow2020_b97d3_006705_forward_mol1.chk"
 Charge =  0 Multiplicity = 1

                         Standard orientation:
 ---------------------------------------------------------------------
 Center     Atomic      Atomic             Coordinates (Angstroms)
 Number     Number       Type             X           Y           Z
 ---------------------------------------------------------------------
      1          6           0       -2.321686   -0.470069    0.018512
      2          7           0       -0.945733    1.159454   -0.015085
      3          6           0        0.004432    0.266393   -0.015083
      4          8           0       -0.326510   -0.968899   -0.025961
      5          8           0        1.310125    0.640282    0.005346
      6          6           0        2.260830   -0.441355    0.009452
      7          1           0       -2.942173    0.245534   -0.512722
      8          1           0       -2.443980   -0.461071    1.097302
      9          1           0       -2.344200   -1.461531   -0.430447
     10          1           0       -0.708319    2.153040    0.007143
     11          1           0        2.126356   -1.076666    0.894009
     12          1           0        3.244361    0.039327    0.031952
     13          1           0        2.157711   -1.055683   -0.894015
 ---------------------------------------------------------------------

 SCF Done:  E(RHF) =  -322.092431643     A.U. after    2 cycles

 The electronic state is 1-A.
 Alpha  occ. eigenvalues --  -20.57291 -20.51076 -15.45784 -11.37694 -11.36291
 Alpha  occ. eigenvalues --  -11.28653  -1.51411  -1.41478  -1.16144  -0.97202
 Alpha  occ. eigenvalues --   -0.94273  -0.77865  -0.73518  -0.68068  -0.66319
 Alpha  occ. eigenvalues --   -0.63311  -0.61461  -0.58777  -0.55277  -0.51578
 Alpha  occ. eigenvalues --   -0.48128  -0.45065  -0.41244  -0.39442
 Alpha virt. eigenvalues --    0.02779   0.04394   0.05012   0.05273   0.05687
 Alpha virt. eigenvalues --    0.06575   0.06928   0.08234   0.10946   0.13011
 Alpha virt. eigenvalues --    0.13830   0.14152   0.15047   0.15943   0.16455

 Mulliken charges:
               1
     1  C   -0.092744
     2  N    0.799387
     3  C    0.824546
     4  O   -1.195701
     5  O   -1.337422
     6  C    0.084706
     7  H    0.185818
     8  H    0.231834
     9  H    0.205332
    10  H   -0.035076
    11  H    0.163159
    12  H   -0.000294
    13  H    0.166454
 Sum of Mulliken charges =  -0.00000

 Dipole moment (field-independent basis, Debye):
    X=             -1.4448    Y=             -0.8290    Z=              0.1921  Tot=              1.6768

 Test job not archived.
 1\1\GINC-SE009\SP\RHF\Aug-CC-pVDZ\C3H7N1O2\OHZDE\09-Apr-2025\0\\#t hf
 aug-cc-pvdz iop(5/13=1,5/36=2,99/5=2) pseudo=read geom=check guess=(re
 ad,tcheck) scf=(maxcycle=1)\\title\\0,1\C,0,-2.18121301,-0.65981698,-0
 .15435925\N,0,-1.03699703,1.13770385,-0.05736771\C,0,0.02420643,0.3843
 1535,-0.13875272\O,0,-0.13822632,-0.87910782,-0.25262377\O,0,1.2681226
 2,0.92812906,-0.09420401\C,0,2.35522055,-0.01171413,-0.18752473\H,0,-2
 .90110625,0.00720349,-0.61926592\H,0,-2.28503206,-0.7574278,0.92198603
 \H,0,-2.07828432,-1.60430197,-0.68579315\H,0,-0.93462383,2.14890525,0.

 Normal termination of Gaussian 16 at Wed Apr  9 15:43:52 2025.
