 Gaussian 16, Revision C.01,

 ----------------------------------------------------------------------
 #t hf aug-cc-pvdz symm=none int=(grid=ultrafine) guess=(read,tcheck) s
 table=(opt,rrhf)
 ----------------------------------------------------------------------
 -----
 title
 -----
 Symbolic Z-matrix:
 Charge =  0 Multiplicity = 1

 SCF Done:  E(RHF) =  -343.709295900     A.U. after   13 cycles
 Normal termination of Gaussian 16 at Wed Apr  9 18:10:13 2025.
 Gaussian 16:  ES64L-G16RevC.01  3-Jul-2019

 ----------------------------------------------------------------------
 #t hf aug-cc-pvdz iop(5/13=1,5/36=2,99/5=2) pseudo=read geom=check gue
 ss=(read,tcheck) scf=(maxcycle=1)
 ----------------------------------------------------------------------
 -----
 title
 -----
 Structure from the checkpoint file:  "Grambow2020_wb97xd3_007148_reverse_mol2.chk"
 Charge =  0 Multiplicity = 1

                         Standard orientation:
 ---------------------------------------------------------------------
 Center     Atomic      Atomic             Coordinates (Angstroms)
 Number     Number       Type             X           Y           Z
 ---------------------------------------------------------------------
      1          8           0       -0.228673    1.373220   -0.308150
      2          6           0       -0.618853    0.028059   -0.103543
      3          6           0        0.467923   -0.968893   -0.286549
      4          6           0        1.759720   -0.716048   -0.078505
      5          8           0        2.296672    0.454737    0.317576
      6          6           0       -2.031402   -0.318698   -0.461419
      7          6           0       -1.635832   -0.138605    0.979552
      8          1           0        1.584546    1.111760    0.348856
      9          1           0        0.193321   -1.969170   -0.595768
     10          1           0       -0.103369    1.498602   -1.253176
     11          1           0        2.515300   -1.479579   -0.222077
     12          1           0       -2.231601   -1.317891   -0.826652
     13          1           0       -2.630144    0.463515   -0.909218
     14          1           0       -1.964344    0.766306    1.473086
     15          1           0       -1.557036   -1.012082    1.612331
 ---------------------------------------------------------------------

 SCF Done:  E(RHF) =  -344.064971442     A.U. after    2 cycles

 The electronic state is 1-A.
 Alpha  occ. eigenvalues --  -20.57262 -20.56399 -11.30510 -11.30034 -11.24151
 Alpha  occ. eigenvalues --  -11.23891 -11.22561  -1.49089  -1.47145  -1.15496
 Alpha  occ. eigenvalues --   -1.03459  -0.86416  -0.84429  -0.79048  -0.73305
 Alpha  occ. eigenvalues --   -0.68889  -0.66558  -0.64632  -0.61158  -0.57117
 Alpha  occ. eigenvalues --   -0.56139  -0.54090  -0.53144  -0.50920  -0.45109
 Alpha  occ. eigenvalues --   -0.42635  -0.33143
 Alpha virt. eigenvalues --    0.03449   0.03791   0.04238   0.04577   0.05743
 Alpha virt. eigenvalues --    0.06544   0.06878   0.08185   0.10112   0.11619
 Alpha virt. eigenvalues --    0.12477   0.13448   0.13703   0.13933   0.15025

 Mulliken charges:
               1
     1  O   -1.432008
     2  C    1.382212
     3  C    0.394623
     4  C    1.068962
     5  O   -1.504004
     6  C    0.151612
     7  C   -0.049315
     8  H    0.450407
     9  H   -0.240501
    10  H    0.248130
    11  H   -0.049458
    12  H   -0.138025
    13  H   -0.106029
    14  H   -0.060467
    15  H   -0.116138
 Sum of Mulliken charges =  -0.00000

 Dipole moment (field-independent basis, Debye):
    X=             -1.6098    Y=             -0.6217    Z=             -1.2352  Tot=              2.1222

 Test job not archived.
 1\1\GINC-SE103\SP\RHF\Aug-CC-pVDZ\C5H8O2\OHZDE\09-Apr-2025\0\\#t hf au
 g-cc-pvdz iop(5/13=1,5/36=2,99/5=2) pseudo=read geom=check guess=(read
 ,tcheck) scf=(maxcycle=1)\\title\\0,1\O,0,0.10874842,-0.69000091,-1.32
 381228\C,0,-0.32500761,-0.16480145,-0.08301211\C,0,0.75544173,0.041417
 08,0.9162811\C,0,2.0251062,0.29990872,0.60469381\O,0,2.54259872,0.4117
 0261,-0.63451503\C,0,-1.70187677,-0.5529379,0.36104932\C,0,-1.44642374
 ,0.81559676,-0.21093095\H,0,1.8433955,0.19075542,-1.26861173\H,0,0.493
 67568,-0.00783479,1.96538996\H,0,0.32861918,-1.61586317,-1.18622143\H,

 Normal termination of Gaussian 16 at Wed Apr  9 18:10:18 2025.
