 Gaussian 16, Revision C.01,

 ----------------------------------------------------------------------
 #t hf aug-cc-pvdz symm=none int=(grid=ultrafine) guess=(read,tcheck) s
 table=(opt,rrhf)
 ----------------------------------------------------------------------
 -----
 title
 -----
 Symbolic Z-matrix:
 Charge =  0 Multiplicity = 1

 SCF Done:  E(RHF) =  -272.021415516     A.U. after   12 cycles
 Normal termination of Gaussian 16 at Wed Apr  9 03:39:47 2025.
 Gaussian 16:  ES64L-G16RevC.01  3-Jul-2019

 ----------------------------------------------------------------------
 #t hf aug-cc-pvdz iop(5/13=1,5/36=2,99/5=2) pseudo=read geom=check gue
 ss=(read,tcheck) scf=(maxcycle=1)
 ----------------------------------------------------------------------
 -----
 title
 -----
 Structure from the checkpoint file:  "Grambow2020_wb97xd3_007413_reverse_mol2.chk"
 Charge =  0 Multiplicity = 1

                         Standard orientation:
 ---------------------------------------------------------------------
 Center     Atomic      Atomic             Coordinates (Angstroms)
 Number     Number       Type             X           Y           Z
 ---------------------------------------------------------------------
      1          6           0       -1.506311    1.329727   -0.389544
      2          6           0       -0.750265   -1.217971   -0.124166
      3          6           0        0.466978   -0.953397   -1.008744
      4          6           0        1.187757   -0.297552    0.204978
      5          6           0        1.850560    1.063010    0.087368
      6          6           0       -0.084049   -0.477603    1.034530
      7          6           0       -1.334624    0.054031    0.399061
      8          1           0       -1.446865    2.206122    0.259742
      9          1           0       -0.758443    1.445095   -1.172620
     10          1           0       -2.485490    1.338642   -0.873841
     11          1           0       -1.296926   -2.151255   -0.094216
     12          1           0        0.960926   -1.862393   -1.349120
     13          1           0        0.294221   -0.313507   -1.877534
     14          1           0        1.928836   -1.010584    0.574692
     15          1           0        1.171199    1.827022   -0.290062
     16          1           0        2.709122    1.018385   -0.587408
     17          1           0        2.212464    1.397105    1.062736
     18          1           0       -0.082601   -0.749634    2.083035
     19          1           0       -2.186710   -0.146472    1.043698
 ---------------------------------------------------------------------

 SCF Done:  E(RHF) =  -272.321893489     A.U. after    2 cycles

 The electronic state is 1-A.
 Alpha  occ. eigenvalues --  -11.23245 -11.23064 -11.22699 -11.22546 -11.22383
 Alpha  occ. eigenvalues --  -11.21955 -11.21540  -1.19295  -1.02886  -0.97319
 Alpha  occ. eigenvalues --   -0.92540  -0.85016  -0.75001  -0.72029  -0.70272
 Alpha  occ. eigenvalues --   -0.60816  -0.59979  -0.58360  -0.57078  -0.55341
 Alpha  occ. eigenvalues --   -0.54539  -0.51102  -0.48263  -0.46047  -0.44779
 Alpha  occ. eigenvalues --   -0.39748  -0.37543
 Alpha virt. eigenvalues --    0.03457   0.03556   0.03638   0.04058   0.05808
 Alpha virt. eigenvalues --    0.05909   0.06024   0.06181   0.06811   0.09019
 Alpha virt. eigenvalues --    0.09482   0.10631   0.12345   0.12778   0.13793

 Mulliken charges:
               1
     1  C   -0.696082
     2  C    0.379523
     3  C    0.068700
     4  C   -0.356114
     5  C   -0.461563
     6  C    0.526813
     7  C    0.201122
     8  H    0.206435
     9  H    0.188970
    10  H    0.057009
    11  H   -0.261683
    12  H    0.005200
    13  H    0.016072
    14  H    0.053564
    15  H    0.151559
    16  H    0.176862
    17  H    0.173928
    18  H   -0.287870
    19  H   -0.142447
 Sum of Mulliken charges =  -0.00000

 Dipole moment (field-independent basis, Debye):
    X=              0.0036    Y=             -0.1974    Z=              0.1089  Tot=              0.2254

 Test job not archived.
 1\1\GINC-SE334\SP\RHF\Aug-CC-pVDZ\C7H12\OHZDE\09-Apr-2025\0\\#t hf aug
 -cc-pvdz iop(5/13=1,5/36=2,99/5=2) pseudo=read geom=check guess=(read,
 tcheck) scf=(maxcycle=1)\\title\\0,1\C,0,-1.51545762,-0.99634159,-0.81
 730292\C,0,-0.78244188,1.32824905,0.27437677\C,0,-0.04726638,0.5797934
 9,1.38500236\C,0,1.13540955,0.32041328,0.40685382\C,0,1.72026738,-1.06
 886968,0.22768089\C,0,0.3296638,0.97900657,-0.71345649\C,0,-1.0585134,
 0.44027548,-0.89545992\H,0,-1.16498979,-1.56938469,-1.67867842\H,0,-1.
 16628063,-1.50140014,0.08203887\H,0,-2.6070095,-1.03949036,-0.80915867

 Normal termination of Gaussian 16 at Wed Apr  9 03:39:55 2025.
