 Gaussian 16, Revision C.01,

 ----------------------------------------------------------------------
 #t hf aug-cc-pvdz symm=none int=(grid=ultrafine) guess=(read,tcheck) s
 table=(opt,rrhf)
 ----------------------------------------------------------------------
 -----
 title
 -----
 Symbolic Z-matrix:
 Charge =  0 Multiplicity = 1

 SCF Done:  E(RHF) =  -359.596912496     A.U. after   15 cycles
 Normal termination of Gaussian 16 at Wed Apr  9 19:21:03 2025.
 Gaussian 16:  ES64L-G16RevC.01  3-Jul-2019

 ----------------------------------------------------------------------
 #t hf aug-cc-pvdz iop(5/13=1,5/36=2,99/5=2) pseudo=read geom=check gue
 ss=(read,tcheck) scf=(maxcycle=1)
 ----------------------------------------------------------------------
 -----
 title
 -----
 Structure from the checkpoint file:  "Grambow2020_wb97xd3_009389_forward_mol1.chk"
 Charge =  0 Multiplicity = 1

                         Standard orientation:
 ---------------------------------------------------------------------
 Center     Atomic      Atomic             Coordinates (Angstroms)
 Number     Number       Type             X           Y           Z
 ---------------------------------------------------------------------
      1          6           0       -2.089065   -0.713940    0.000902
      2          7           0       -0.680702   -0.381374   -0.002155
      3          6           0        0.269023   -1.288907    0.000179
      4          8           0        1.493772   -1.051173   -0.000737
      5          6           0       -0.174767    1.015960    0.001057
      6          8           0       -1.027381    1.863358   -0.000656
      7          6           0        2.198210    0.695370    0.000734
      8          1           0       -2.215833   -1.797748   -0.013664
      9          1           0       -2.563764   -0.301895    0.891001
     10          1           0       -2.571754   -0.276432   -0.872437
     11          1           0       -0.040620   -2.343884    0.002371
     12          1           0        3.109548    0.106037    0.001611
     13          1           0        2.048350    1.268735    0.900789
     14          1           0        2.047453    1.266429   -0.900678
 ---------------------------------------------------------------------

 SCF Done:  E(RHF) =  -359.959145786     A.U. after    2 cycles

 The electronic state is 1-A.
 Alpha  occ. eigenvalues --  -20.57574 -20.49043 -15.53806 -11.38917 -11.35514
 Alpha  occ. eigenvalues --  -11.27641 -11.26843  -1.50844  -1.43204  -1.26950
 Alpha  occ. eigenvalues --   -0.99704  -0.98053  -0.89611  -0.76687  -0.73816
 Alpha  occ. eigenvalues --   -0.66991  -0.66953  -0.63503  -0.63094  -0.59577
 Alpha  occ. eigenvalues --   -0.57321  -0.56985  -0.50894  -0.49750  -0.49567
 Alpha  occ. eigenvalues --   -0.42080  -0.28679
 Alpha virt. eigenvalues --    0.02867   0.03601   0.04536   0.05332   0.05796
 Alpha virt. eigenvalues --    0.06204   0.06521   0.08631   0.09132   0.10734
 Alpha virt. eigenvalues --    0.12132   0.12768   0.13762   0.13959   0.14602

 Mulliken charges:
               1
     1  C   -0.307241
     2  N    0.729864
     3  C    0.473327
     4  O   -1.101965
     5  C    0.240278
     6  O   -1.068585
     7  C    0.084636
     8  H    0.034498
     9  H    0.170908
    10  H    0.168598
    11  H    0.013427
    12  H    0.049138
    13  H    0.256259
    14  H    0.256858
 Sum of Mulliken charges =  -0.00000

 Dipole moment (field-independent basis, Debye):
    X=              1.9066    Y=             -3.7422    Z=              0.0053  Tot=              4.1999

 Test job not archived.
 1\1\GINC-SE131\SP\RHF\Aug-CC-pVDZ\C4H7N1O2\OHZDE\09-Apr-2025\0\\#t hf
 aug-cc-pvdz iop(5/13=1,5/36=2,99/5=2) pseudo=read geom=check guess=(re
 ad,tcheck) scf=(maxcycle=1)\\title\\0,1\C,0,-1.96756335,-0.69383004,-0
 .60054755\N,0,-0.68275123,-0.18658155,-0.16920723\C,0,-0.53335724,0.98
 096272,0.41399228\O,0,0.55153339,1.46028825,0.80101535\C,0,0.5895267,-
 0.9323721,-0.35258712\O,0,0.47616404,-2.00413468,-0.88504428\C,0,2.196
 41741,0.56542397,0.60046263\H,0,-2.75326081,0.02098372,-0.35026509\H,0
 ,-1.95545379,-0.8622958,-1.67705488\H,0,-2.16924765,-1.64655694,-0.111

 Normal termination of Gaussian 16 at Wed Apr  9 19:21:07 2025.
