 Gaussian 16, Revision C.01,

 ----------------------------------------------------------------------
 #t hf aug-cc-pvdz symm=none int=(grid=ultrafine) guess=(read,tcheck) s
 table=(opt,rrhf)
 ----------------------------------------------------------------------
 -----
 title
 -----
 Symbolic Z-matrix:
 Charge =  0 Multiplicity = 1

 SCF Done:  E(RHF) =  -308.940585918     A.U. after   14 cycles

 1\1\GINC-SE340\Stability\RHF\Aug-CC-pVDZ\C6H12O1\OHZDE\09-Apr-2025\0\\
 #t hf aug-cc-pvdz symm=none int=(grid=ultrafine) guess=(read,tcheck) s
 table=(opt,rrhf)\\title\\0,1\C,0,-1.21860431,-0.74387367,-1.04942995\C
 ,0,-0.78564701,0.25738976,0.00160306\C,0,-1.93004726,0.80180395,0.8251
 2396\C,0,1.14010109,0.58800942,1.73933024\O,0,0.0974703,-0.42000493,0.
 93274411\C,0,1.56141584,-0.42258235,0.74939516\C,0,2.14067584,-0.02188
 665,-0.57631649\H,0,-1.89779506,-0.26486449,-1.75643877\H,0,-0.3665448
 1,-1.13200997,-1.60770617\H,0,-1.74002693,-1.58327772,-0.58594271\H,0,

 Normal termination of Gaussian 16 at Wed Apr  9 18:32:41 2025.
 Gaussian 16:  ES64L-G16RevC.01  3-Jul-2019

 ----------------------------------------------------------------------
 #t hf aug-cc-pvdz iop(5/13=1,5/36=2,99/5=2) pseudo=read geom=check gue
 ss=(read,tcheck) scf=(maxcycle=1)
 ----------------------------------------------------------------------
 -----
 title
 -----
 Structure from the checkpoint file:  "Grambow2020_wb97xd3_007699_reverse_mol2.chk"
 Charge =  0 Multiplicity = 1

                         Standard orientation:
 ---------------------------------------------------------------------
 Center     Atomic      Atomic             Coordinates (Angstroms)
 Number     Number       Type             X           Y           Z
 ---------------------------------------------------------------------
      1          6           0       -1.350297    1.474143   -0.336257
      2          6           0       -0.922244    0.152196    0.266966
      3          6           0       -2.040367   -0.860587    0.358048
      4          6           0        1.099075   -1.503401    0.163139
      5          8           0        0.085142   -0.432903   -0.598260
      6          6           0        1.525188   -0.198357   -0.379136
      7          6           0        1.962846    0.916931    0.525407
      8          1           0       -2.120807    1.930786    0.286963
      9          1           0       -0.514950    2.170877   -0.407566
     10          1           0       -1.761115    1.322930   -1.336089
     11          1           0       -0.477731    0.287371    1.252827
     12          1           0       -2.469667   -1.050169   -0.627707
     13          1           0       -2.827783   -0.485110    1.013471
     14          1           0       -1.657672   -1.795069    0.767651
     15          1           0        1.197311   -2.245302   -0.641315
     16          1           0        1.966391   -0.114551   -1.374460
     17          1           0        1.524996    0.836332    1.518463
     18          1           0        1.770411    1.905107    0.102419
     19          1           0        3.044266    0.814473    0.642423
 ---------------------------------------------------------------------

 SCF Done:  E(RHF) =  -309.271395129     A.U. after    2 cycles

 The electronic state is 1-A.
 Alpha  occ. eigenvalues --  -20.60114 -11.30013 -11.29850 -11.23635 -11.23523
 Alpha  occ. eigenvalues --  -11.23114 -11.22543  -1.51262  -1.09607  -1.02760
 Alpha  occ. eigenvalues --   -0.95145  -0.92636  -0.80947  -0.77527  -0.70017
 Alpha  occ. eigenvalues --   -0.66103  -0.62887  -0.61617  -0.57938  -0.56263
 Alpha  occ. eigenvalues --   -0.55557  -0.55153  -0.52753  -0.51829  -0.49587
 Alpha  occ. eigenvalues --   -0.47594  -0.43918  -0.33003
 Alpha virt. eigenvalues --    0.03394   0.03493   0.03832   0.04503   0.05833
 Alpha virt. eigenvalues --    0.06055   0.06206   0.06801   0.07502   0.09128
 Alpha virt. eigenvalues --    0.09351   0.10038   0.11381   0.12838   0.13890

 Mulliken charges:
               1
     1  C   -0.165529
     2  C   -0.156373
     3  C   -0.202134
     4  C   -0.306878
     5  O   -1.561876
     6  C    0.892347
     7  C   -0.495549
     8  H    0.207057
     9  H    0.110759
    10  H    0.232705
    11  H    0.244931
    12  H    0.216581
    13  H    0.194857
    14  H    0.214483
    15  H    0.069517
    16  H   -0.133251
    17  H    0.243762
    18  H    0.245573
    19  H    0.149019
 Sum of Mulliken charges =   0.00000

 Dipole moment (field-independent basis, Debye):
    X=             -0.5320    Y=              2.7156    Z=             -0.9575  Tot=              2.9282

 Test job not archived.
 1\1\GINC-SE340\SP\RHF\Aug-CC-pVDZ\C6H12O1\OHZDE\09-Apr-2025\0\\#t hf a
 ug-cc-pvdz iop(5/13=1,5/36=2,99/5=2) pseudo=read geom=check guess=(rea
 d,tcheck) scf=(maxcycle=1)\\title\\0,1\C,0,-1.21860431,-0.74387367,-1.
 04942995\C,0,-0.78564701,0.25738976,0.00160306\C,0,-1.93004726,0.80180
 395,0.82512396\C,0,1.14010109,0.58800942,1.73933024\O,0,0.0974703,-0.4
 2000493,0.93274411\C,0,1.56141584,-0.42258235,0.74939516\C,0,2.1406758
 4,-0.02188665,-0.57631649\H,0,-1.89779506,-0.26486449,-1.75643877\H,0,
 -0.36654481,-1.13200997,-1.60770617\H,0,-1.74002693,-1.58327772,-0.585

 Normal termination of Gaussian 16 at Wed Apr  9 18:32:47 2025.
