 Gaussian 16, Revision C.01,

 ----------------------------------------------------------------------
 #t hf aug-cc-pvdz symm=none int=(grid=ultrafine) guess=(read,tcheck) s
 table=(opt,rrhf)
 ----------------------------------------------------------------------
 -----
 title
 -----
 Symbolic Z-matrix:
 Charge =  0 Multiplicity = 1

 SCF Done:  E(RHF) =  -323.803139022     A.U. after   15 cycles
 Normal termination of Gaussian 16 at Wed Apr  9 17:55:49 2025.
 Gaussian 16:  ES64L-G16RevC.01  3-Jul-2019

 ----------------------------------------------------------------------
 #t hf aug-cc-pvdz iop(5/13=1,5/36=2,99/5=2) pseudo=read geom=check gue
 ss=(read,tcheck) scf=(maxcycle=1)
 ----------------------------------------------------------------------
 -----
 title
 -----
 Structure from the checkpoint file:  "Grambow2020_wb97xd3_006877_reverse_mol2.chk"
 Charge =  0 Multiplicity = 1

                         Standard orientation:
 ---------------------------------------------------------------------
 Center     Atomic      Atomic             Coordinates (Angstroms)
 Number     Number       Type             X           Y           Z
 ---------------------------------------------------------------------
      1          6           0        2.421226   -0.187204   -0.680885
      2          7           0        1.200748    0.375012   -0.111853
      3          6           0        0.815183    0.315353    1.361046
      4          6           0        0.131059   -0.535162    0.323804
      5          6           0       -1.287420   -0.231789   -0.064365
      6          8           0       -2.070976   -1.140857   -0.188512
      7          6           0       -1.678367    1.212029   -0.239699
      8          1           0        3.234675    0.525871   -0.549156
      9          1           0        2.289528   -0.409975   -1.741153
     10          1           0        2.663274   -1.100886   -0.141608
     11          1           0        1.600842   -0.287511    1.829717
     12          1           0        0.899978    1.225242   -0.568106
     13          1           0        0.382735   -1.579348    0.148600
     14          1           0       -1.369218    1.557523   -1.231768
     15          1           0       -2.759640    1.306364   -0.175163
     16          1           0       -1.189689    1.825137    0.520298
 ---------------------------------------------------------------------

 SCF Done:  E(RHF) =  -324.143074436     A.U. after    2 cycles

 The electronic state is 1-A.
 Alpha  occ. eigenvalues --  -20.53427 -15.60127 -11.33876 -11.30508 -11.28371
 Alpha  occ. eigenvalues --  -11.24106 -11.22003  -1.47290  -1.33184  -1.06813
 Alpha  occ. eigenvalues --   -1.01401  -0.94057  -0.88180  -0.77254  -0.72580
 Alpha  occ. eigenvalues --   -0.70023  -0.64821  -0.63264  -0.61375  -0.61078
 Alpha  occ. eigenvalues --   -0.59852  -0.55382  -0.52176  -0.51768  -0.46481
 Alpha  occ. eigenvalues --   -0.41258  -0.32432
 Alpha virt. eigenvalues --    0.02294   0.03579   0.04032   0.04600   0.05291
 Alpha virt. eigenvalues --    0.05990   0.06680   0.06949   0.08773   0.09875
 Alpha virt. eigenvalues --    0.10958   0.12223   0.13218   0.13734   0.14213

 Mulliken charges:
               1
     1  C   -0.323559
     2  N    0.810033
     3  C   -0.182343
     4  C   -0.286178
     5  C    1.018604
     6  O   -1.352659
     7  C   -0.608183
     8  H    0.117396
     9  H    0.120179
    10  H    0.126937
    11  H   -0.048738
    12  H    0.191759
    13  H   -0.242336
    14  H    0.295744
    15  H    0.048645
    16  H    0.314699
 Sum of Mulliken charges =   0.00000

 Dipole moment (field-independent basis, Debye):
    X=              3.8116    Y=              1.0366    Z=             -3.4737  Tot=              5.2602

 Test job not archived.
 1\1\GINC-SE103\SP\RHF\Aug-CC-pVDZ\C5H9N1O1\OHZDE\09-Apr-2025\0\\#t hf
 aug-cc-pvdz iop(5/13=1,5/36=2,99/5=2) pseudo=read geom=check guess=(re
 ad,tcheck) scf=(maxcycle=1)\\title\\0,1\C,0,1.2555436,-0.03141982,-1.8
 5730981\N,0,0.76066464,0.13586376,-0.4947527\C,0,1.11956886,-0.7632747
 5,0.68184737\C,0,-0.23440145,-0.81395887,0.02498569\C,0,-1.4334346,-0.
 28532029,0.7582354\O,0,-2.46164936,-0.91627676,0.73715978\C,0,-1.28027
 161,0.99956678,1.52881963\H,0,2.23687465,0.43555832,-1.93761049\H,0,0.
 56975792,0.41709236,-2.57819476\H,0,1.35479954,-1.09614274,-2.05913942

 Normal termination of Gaussian 16 at Wed Apr  9 17:55:55 2025.
