 Gaussian 16, Revision C.01,

 ----------------------------------------------------------------------
 #t hf aug-cc-pvdz symm=none int=(grid=ultrafine) guess=(read,tcheck) s
 table=(opt,rrhf)
 ----------------------------------------------------------------------
 -----
 title
 -----
 Symbolic Z-matrix:
 Charge =  0 Multiplicity = 1

 SCF Done:  E(RHF) =  -302.765400948     A.U. after   15 cycles
 Normal termination of Gaussian 16 at Wed Apr  9 19:19:06 2025.
 Gaussian 16:  ES64L-G16RevC.01  3-Jul-2019

 ----------------------------------------------------------------------
 #t hf aug-cc-pvdz iop(5/13=1,5/36=2,99/5=2) pseudo=read geom=check gue
 ss=(read,tcheck) scf=(maxcycle=1)
 ----------------------------------------------------------------------
 -----
 title
 -----
 Structure from the checkpoint file:  "Grambow2020_wb97xd3_009323_forward_mol1.chk"
 Charge =  0 Multiplicity = 1

                         Standard orientation:
 ---------------------------------------------------------------------
 Center     Atomic      Atomic             Coordinates (Angstroms)
 Number     Number       Type             X           Y           Z
 ---------------------------------------------------------------------
      1          6           0        2.440679   -0.537790    0.002597
      2          7           0        1.060476   -0.117122   -0.032778
      3          6           0       -0.055812   -0.869527   -0.002369
      4          6           0       -1.153261   -0.051979    0.011445
      5          6           0       -2.589187   -0.464404   -0.015381
      6          6           0       -0.670770    1.290526    0.094891
      7          7           0        0.719984    1.196005    0.076496
      8          1           0        2.725722   -0.892345    0.995067
      9          1           0        3.055019    0.322068   -0.254086
     10          1           0        2.610400   -1.329555   -0.727344
     11          1           0        0.016756   -1.948276    0.011249
     12          1           0       -2.695644   -1.538778   -0.174814
     13          1           0       -3.121377    0.053616   -0.814763
     14          1           0       -3.087520   -0.211185    0.921764
     15          1           0        0.203536    1.791322   -0.810199
 ---------------------------------------------------------------------

 SCF Done:  E(RHF) =  -303.084999603     A.U. after    2 cycles

 The electronic state is 1-A.
 Alpha  occ. eigenvalues --  -15.57732 -15.56232 -11.29328 -11.29275 -11.23648
 Alpha  occ. eigenvalues --  -11.22722 -11.22328  -1.38710  -1.16724  -1.09136
 Alpha  occ. eigenvalues --   -0.99809  -0.93629  -0.83989  -0.79211  -0.72813
 Alpha  occ. eigenvalues --   -0.70349  -0.62760  -0.60466  -0.60246  -0.57663
 Alpha  occ. eigenvalues --   -0.56334  -0.54485  -0.50735  -0.45481  -0.36279
 Alpha  occ. eigenvalues --   -0.35014
 Alpha virt. eigenvalues --    0.02722   0.04009   0.04321   0.04513   0.05375
 Alpha virt. eigenvalues --    0.05670   0.06146   0.08568   0.08895   0.09754
 Alpha virt. eigenvalues --    0.11382   0.11587   0.13083   0.13445   0.14079

 Mulliken charges:
               1
     1  C   -0.190207
     2  N    0.233767
     3  C   -0.346230
     4  C    0.901194
     5  C   -0.467011
     6  C   -1.245567
     7  N   -0.068222
     8  H    0.216536
     9  H    0.069614
    10  H    0.145738
    11  H   -0.298900
    12  H    0.135786
    13  H    0.221294
    14  H    0.242910
    15  H    0.449298
 Sum of Mulliken charges =  -0.00000

 Dipole moment (field-independent basis, Debye):
    X=              1.8502    Y=             -4.0835    Z=             -1.1082  Tot=              4.6180

 Test job not archived.
 1\1\GINC-SE112\SP\RHF\Aug-CC-pVDZ\C5H8N2\OHZDE\09-Apr-2025\0\\#t hf au
 g-cc-pvdz iop(5/13=1,5/36=2,99/5=2) pseudo=read geom=check guess=(read
 ,tcheck) scf=(maxcycle=1)\\title\\0,1\C,0,-2.47526807,-0.05476998,-0.4
 0166037\N,0,-1.09827975,0.17317919,-0.03407984\C,0,0.00090261,-0.51423
 262,-0.39794606\C,0,1.10917679,0.09026855,0.13051986\C,0,2.52679218,-0
 .37081118,0.02819648\C,0,0.66310546,1.28332255,0.77837998\N,0,-0.72374
 981,1.29625852,0.63718619\H,0,-2.66378077,0.22440246,-1.44015987\H,0,-
 3.09638519,0.55916483,0.24637737\H,0,-2.73371809,-1.10382512,-0.256069

 Normal termination of Gaussian 16 at Wed Apr  9 19:19:11 2025.
