 Gaussian 16, Revision C.01,

 ----------------------------------------------------------------------
 #t hf aug-cc-pvdz symm=none int=(grid=ultrafine) guess=(read,tcheck) s
 table=(opt,rrhf)
 ----------------------------------------------------------------------
 -----
 title
 -----
 Symbolic Z-matrix:
 Charge =  0 Multiplicity = 1

 SCF Done:  E(RHF) =  -302.081782387     A.U. after   13 cycles
 Normal termination of Gaussian 16 at Wed Apr  9 15:56:52 2025.
 Gaussian 16:  ES64L-G16RevC.01  3-Jul-2019

 ----------------------------------------------------------------------
 #t hf aug-cc-pvdz iop(5/13=1,5/36=2,99/5=2) pseudo=read geom=check gue
 ss=(read,tcheck) scf=(maxcycle=1)
 ----------------------------------------------------------------------
 -----
 title
 -----
 Structure from the checkpoint file:  "Grambow2020_b97d3_007040_forward_mol2.chk"
 Charge =  0 Multiplicity = 1

                         Standard orientation:
 ---------------------------------------------------------------------
 Center     Atomic      Atomic             Coordinates (Angstroms)
 Number     Number       Type             X           Y           Z
 ---------------------------------------------------------------------
      1          6           0       -1.517003   -1.080426    0.087172
      2          7           0       -0.595930    0.038629   -0.029373
      3          6           0       -1.161186    1.375738   -0.072308
      4          6           0        0.766586   -0.212987   -0.016432
      5          8           0        1.250316   -1.345184   -0.074832
      6          7           0        1.575922    0.935479    0.000886
      7          1           0       -0.928078   -2.001099    0.070547
      8          1           0       -2.091669   -1.028500    1.026742
      9          1           0       -2.226354   -1.085568   -0.755231
     10          1           0       -0.518642    2.037167   -0.665780
     11          1           0       -2.143448    1.333516   -0.562063
     12          1           0       -1.306908    1.816618    0.931520
     13          1           0        2.544274    0.674148    0.163467
     14          1           0        1.277966    1.702474    0.598267
 ---------------------------------------------------------------------

 SCF Done:  E(RHF) =  -302.394489177     A.U. after    2 cycles

 The electronic state is 1-A.
 Alpha  occ. eigenvalues --  -20.49612 -15.52348 -15.52269 -11.38210 -11.28258
 Alpha  occ. eigenvalues --  -11.26459  -1.44712  -1.25964  -1.19435  -0.98511
 Alpha  occ. eigenvalues --   -0.95344  -0.79338  -0.75991  -0.70838  -0.67553
 Alpha  occ. eigenvalues --   -0.64600  -0.60872  -0.57615  -0.57336  -0.56828
 Alpha  occ. eigenvalues --   -0.54356  -0.46144  -0.42832  -0.39684
 Alpha virt. eigenvalues --    0.02872   0.04050   0.04540   0.04749   0.05995
 Alpha virt. eigenvalues --    0.06311   0.07580   0.08747   0.09415   0.12192
 Alpha virt. eigenvalues --    0.13291   0.13637   0.14582   0.14990   0.15971

 Mulliken charges:
               1
     1  C   -0.331757
     2  N    0.519858
     3  C   -0.518703
     4  C   -0.008114
     5  O   -1.210938
     6  N    0.430326
     7  H    0.029989
     8  H    0.220202
     9  H    0.162447
    10  H    0.130802
    11  H    0.067641
    12  H    0.191388
    13  H    0.224754
    14  H    0.092105
 Sum of Mulliken charges =  -0.00000

 Dipole moment (field-independent basis, Debye):
    X=             -1.9461    Y=              3.3094    Z=              1.2392  Tot=              4.0343

 Test job not archived.
 1\1\GINC-SE229\SP\RHF\Aug-CC-pVDZ\C3H8N2O1\OHZDE\09-Apr-2025\0\\#t hf
 aug-cc-pvdz iop(5/13=1,5/36=2,99/5=2) pseudo=read geom=check guess=(re
 ad,tcheck) scf=(maxcycle=1)\\title\\0,1\C,0,-1.34614098,-1.03885888,0.
 38608752\N,0,-0.27158791,-0.14730245,-0.01975043\C,0,-0.59562256,1.255
 12209,-0.21320696\C,0,1.0132878,-0.65471884,-0.12722908\O,0,1.27873373
 ,-1.85632466,-0.05683298\N,0,2.00378506,0.30564385,-0.39353293\H,0,-0.
 9353244,-2.04971952,0.45041944\H,0,-1.75890345,-0.74670626,1.36588483\
 H,0,-2.16131323,-1.02253448,-0.35423396\H,0,0.05813139,1.69041694,-0.9

 Normal termination of Gaussian 16 at Wed Apr  9 15:56:57 2025.
