 Gaussian 16, Revision C.01,

 ----------------------------------------------------------------------
 #t hf aug-cc-pvdz symm=none int=(grid=ultrafine) guess=(read,tcheck) s
 table=(opt,rrhf)
 ----------------------------------------------------------------------
 -----
 title
 -----
 Symbolic Z-matrix:
 Charge =  0 Multiplicity = 1

 SCF Done:  E(RHF) =  -289.173546859     A.U. after   13 cycles

 1\1\GINC-SE249\Stability\RHF\Aug-CC-pVDZ\C6H13N1\OHZDE\09-Apr-2025\0\\
 #t hf aug-cc-pvdz symm=none int=(grid=ultrafine) guess=(read,tcheck) s
 table=(opt,rrhf)\\title\\0,1\C,0,-1.08761578,1.54960626,0.98501967\C,0
 ,-1.00136675,0.05222601,1.08083802\N,0,-0.68978133,-0.69803706,-0.1544
 018\C,0,-1.42356082,-1.90506744,-0.48385506\C,0,0.2207444,-0.70697124,
 0.88349076\C,0,1.35629715,-1.23246417,1.29276776\C,0,1.78600866,1.4518
 6129,-1.90127304\H,0,-2.06431967,1.85962674,0.60797788\H,0,-0.94289556
 ,2.00324618,1.96753791\H,0,-0.31887769,1.92850377,0.31195871\H,0,-1.72

 Normal termination of Gaussian 16 at Wed Apr  9 04:05:11 2025.
 Gaussian 16:  ES64L-G16RevC.01  3-Jul-2019

 ----------------------------------------------------------------------
 #t hf aug-cc-pvdz iop(5/13=1,5/36=2,99/5=2) pseudo=read geom=check gue
 ss=(read,tcheck) scf=(maxcycle=1)
 ----------------------------------------------------------------------
 -----
 title
 -----
 Structure from the checkpoint file:  "Grambow2020_wb97xd3_009133_reverse_mol2.chk"
 Charge =  0 Multiplicity = 1

                         Standard orientation:
 ---------------------------------------------------------------------
 Center     Atomic      Atomic             Coordinates (Angstroms)
 Number     Number       Type             X           Y           Z
 ---------------------------------------------------------------------
      1          6           0        0.033682    2.129280    0.185801
      2          6           0       -0.892051    0.946410    0.236864
      3          7           0       -0.573956   -0.212138   -0.624750
      4          6           0       -1.620839   -0.873224   -1.380328
      5          6           0       -0.515786   -0.360231    0.746761
      6          6           0       -0.338663   -1.238374    1.711449
      7          6           0        3.132996   -0.425243   -0.497295
      8          1           0       -0.195103    2.765529   -0.671560
      9          1           0       -0.066146    2.730626    1.091611
     10          1           0        1.067592    1.794720    0.104370
     11          1           0       -1.954153    1.180626    0.326100
     12          1           0       -1.316825   -1.899250   -1.589098
     13          1           0       -2.573733   -0.897544   -0.835092
     14          1           0       -1.763000   -0.356380   -2.329700
     15          1           0        3.118336   -0.443403    0.591895
     16          1           0       -0.380337   -0.929692    2.746791
     17          1           0       -0.128795   -2.277324    1.490555
     18          1           0        2.113153   -0.524137   -0.867576
     19          1           0        3.743553   -1.249015   -0.865121
     20          1           0        3.557114    0.518497   -0.839442
 ---------------------------------------------------------------------

 SCF Done:  E(RHF) =  -289.493879851     A.U. after    2 cycles

 The electronic state is 1-A.
 Alpha  occ. eigenvalues --  -15.50868 -11.27709 -11.27481 -11.26380 -11.23092
 Alpha  occ. eigenvalues --  -11.22469 -11.20399  -1.30373  -1.03756  -1.00637
 Alpha  occ. eigenvalues --   -0.95782  -0.93205  -0.81816  -0.74600  -0.68415
 Alpha  occ. eigenvalues --   -0.65317  -0.62606  -0.60717  -0.57367  -0.57030
 Alpha  occ. eigenvalues --   -0.54723  -0.53834  -0.53610  -0.53446  -0.48563
 Alpha  occ. eigenvalues --   -0.48325  -0.42723  -0.35483
 Alpha virt. eigenvalues --    0.03600   0.03932   0.04026   0.04342   0.05199
 Alpha virt. eigenvalues --    0.05543   0.05700   0.05797   0.06978   0.08487
 Alpha virt. eigenvalues --    0.09020   0.09536   0.11006   0.11845   0.12878

 Mulliken charges:
               1
     1  C   -0.404855
     2  C   -0.811574
     3  N    0.896582
     4  C   -0.230740
     5  C   -0.210194
     6  C    0.405259
     7  C   -0.238746
     8  H    0.210527
     9  H    0.259813
    10  H    0.031471
    11  H   -0.216894
    12  H    0.073254
    13  H    0.171340
    14  H    0.113079
    15  H    0.089864
    16  H   -0.129826
    17  H   -0.196109
    18  H    0.092230
    19  H    0.009165
    20  H    0.086354
 Sum of Mulliken charges =  -0.00000

 Dipole moment (field-independent basis, Debye):
    X=             -1.4958    Y=              0.5976    Z=              0.0843  Tot=              1.6130

 Test job not archived.
 1\1\GINC-SE249\SP\RHF\Aug-CC-pVDZ\C6H13N1\OHZDE\09-Apr-2025\0\\#t hf a
 ug-cc-pvdz iop(5/13=1,5/36=2,99/5=2) pseudo=read geom=check guess=(rea
 d,tcheck) scf=(maxcycle=1)\\title\\0,1\C,0,-1.08761578,1.54960626,0.98
 501967\C,0,-1.00136675,0.05222601,1.08083802\N,0,-0.68978133,-0.698037
 06,-0.1544018\C,0,-1.42356082,-1.90506744,-0.48385506\C,0,0.2207444,-0
 .70697124,0.88349076\C,0,1.35629715,-1.23246417,1.29276776\C,0,1.78600
 866,1.45186129,-1.90127304\H,0,-2.06431967,1.85962674,0.60797788\H,0,-
 0.94289556,2.00324618,1.96753791\H,0,-0.31887769,1.92850377,0.31195871

 Normal termination of Gaussian 16 at Wed Apr  9 04:05:20 2025.
