 Gaussian 16, Revision C.01,

 ----------------------------------------------------------------------
 #t hf aug-cc-pvdz symm=none int=(grid=ultrafine) guess=(read,tcheck) s
 table=(opt,rrhf)
 ----------------------------------------------------------------------
 -----
 title
 -----
 Symbolic Z-matrix:
 Charge =  0 Multiplicity = 1

 SCF Done:  E(RHF) =  -307.799894435     A.U. after   13 cycles

 1\1\GINC-SE045\Stability\RHF\Aug-CC-pVDZ\C6H10O1\OHZDE\09-Apr-2025\0\\
 #t hf aug-cc-pvdz symm=none int=(grid=ultrafine) guess=(read,tcheck) s
 table=(opt,rrhf)\\title\\0,1\C,0,2.07470398,0.37411408,0.6823099\C,0,0
 .83663681,0.14014713,0.28937149\C,0,-0.05593348,-1.05348022,0.23935162
 \C,0,-1.29210271,-0.75197379,1.03855106\C,0,-1.18245957,-0.18679672,-0
 .33570292\C,0,-0.23659829,1.0138022,-0.36486178\O,0,-0.6177227,2.23205
 811,0.2094293\H,0,2.70462261,-0.41425526,1.07725655\H,0,2.49694836,1.3
 6993146,0.61438037\H,0,0.53057879,-1.13977078,-2.62929303\H,0,0.224371

 Normal termination of Gaussian 16 at Wed Apr  9 18:35:38 2025.
 Gaussian 16:  ES64L-G16RevC.01  3-Jul-2019

 ----------------------------------------------------------------------
 #t hf aug-cc-pvdz iop(5/13=1,5/36=2,99/5=2) pseudo=read geom=check gue
 ss=(read,tcheck) scf=(maxcycle=1)
 ----------------------------------------------------------------------
 -----
 title
 -----
 Structure from the checkpoint file:  "Grambow2020_wb97xd3_007734_reverse_mol2.chk"
 Charge =  0 Multiplicity = 1

                         Standard orientation:
 ---------------------------------------------------------------------
 Center     Atomic      Atomic             Coordinates (Angstroms)
 Number     Number       Type             X           Y           Z
 ---------------------------------------------------------------------
      1          6           0       -1.889804   -1.043527   -0.446392
      2          6           0       -0.704300   -0.570230   -0.110950
      3          6           0        0.697885   -1.074608   -0.169349
      4          6           0        1.511715   -0.112219   -0.987413
      5          6           0        1.198095    0.247744    0.424002
      6          6           0       -0.247271    0.725629    0.563587
      7          8           0       -0.634827    1.972224    0.058596
      8          1           0       -2.007523   -2.033382   -0.871404
      9          1           0       -2.783861   -0.448976   -0.298986
     10          1           0        0.439851   -1.575553    2.705201
     11          1           0        1.035176   -2.080240    0.038568
     12          1           0        1.052895    0.406660   -1.823107
     13          1           0        2.537222   -0.409409   -1.167792
     14          1           0        0.433530   -1.784846    3.420587
     15          1           0        1.977191    0.398973    1.158119
     16          1           0       -0.548031    0.721138    1.613306
     17          1           0       -0.455753    1.991111   -0.884171
 ---------------------------------------------------------------------

 SCF Done:  E(RHF) =  -308.127756478     A.U. after    2 cycles

 The electronic state is 1-A.
 Alpha  occ. eigenvalues --  -20.55061 -11.29641 -11.25251 -11.25116 -11.24804
 Alpha  occ. eigenvalues --  -11.24779 -11.22814  -1.45765  -1.21321  -1.03694
 Alpha  occ. eigenvalues --   -0.94946  -0.85789  -0.80368  -0.76250  -0.69052
 Alpha  occ. eigenvalues --   -0.65926  -0.65257  -0.61874  -0.59400  -0.57867
 Alpha  occ. eigenvalues --   -0.56864  -0.54691  -0.49029  -0.45965  -0.42972
 Alpha  occ. eigenvalues --   -0.42646  -0.35282
 Alpha virt. eigenvalues --    0.03295   0.03615   0.03974   0.04384   0.05747
 Alpha virt. eigenvalues --    0.05931   0.06283   0.07119   0.08382   0.09352
 Alpha virt. eigenvalues --    0.11147   0.12415   0.12651   0.13143   0.14292

 Mulliken charges:
               1
     1  C    0.063227
     2  C    0.286942
     3  C    0.142001
     4  C    0.194308
     5  C    0.586835
     6  C    0.908398
     7  O   -1.462942
     8  H   -0.123185
     9  H   -0.139582
    10  H   -0.079707
    11  H   -0.285305
    12  H   -0.184837
    13  H   -0.128190
    14  H    0.061937
    15  H   -0.226201
    16  H    0.084485
    17  H    0.301814
 Sum of Mulliken charges =  -0.00000

 Dipole moment (field-independent basis, Debye):
    X=              1.3148    Y=             -1.2328    Z=             -0.7263  Tot=              1.9432

 Test job not archived.
 1\1\GINC-SE045\SP\RHF\Aug-CC-pVDZ\C6H10O1\OHZDE\09-Apr-2025\0\\#t hf a
 ug-cc-pvdz iop(5/13=1,5/36=2,99/5=2) pseudo=read geom=check guess=(rea
 d,tcheck) scf=(maxcycle=1)\\title\\0,1\C,0,2.07470398,0.37411408,0.682
 3099\C,0,0.83663681,0.14014713,0.28937149\C,0,-0.05593348,-1.05348022,
 0.23935162\C,0,-1.29210271,-0.75197379,1.03855106\C,0,-1.18245957,-0.1
 8679672,-0.33570292\C,0,-0.23659829,1.0138022,-0.36486178\O,0,-0.61772
 27,2.23205811,0.2094293\H,0,2.70462261,-0.41425526,1.07725655\H,0,2.49
 694836,1.36993146,0.61438037\H,0,0.53057879,-1.13977078,-2.62929303\H,

 Normal termination of Gaussian 16 at Wed Apr  9 18:35:44 2025.
