 Gaussian 16, Revision C.01,

 ----------------------------------------------------------------------
 #t hf aug-cc-pvdz symm=none int=(grid=ultrafine) guess=(read,tcheck) s
 table=(opt,rrhf)
 ----------------------------------------------------------------------
 -----
 title
 -----
 Symbolic Z-matrix:
 Charge =  0 Multiplicity = 1

 SCF Done:  E(RHF) =  -358.485065524     A.U. after   16 cycles
 Normal termination of Gaussian 16 at Wed Apr  9 03:34:09 2025.
 Gaussian 16:  ES64L-G16RevC.01  3-Jul-2019

 ----------------------------------------------------------------------
 #t hf aug-cc-pvdz iop(5/13=1,5/36=2,99/5=2) pseudo=read geom=check gue
 ss=(read,tcheck) scf=(maxcycle=1)
 ----------------------------------------------------------------------
 -----
 title
 -----
 Structure from the checkpoint file:  "Grambow2020_wb97xd3_007082_reverse_mol2.chk"
 Charge =  0 Multiplicity = 1

                         Standard orientation:
 ---------------------------------------------------------------------
 Center     Atomic      Atomic             Coordinates (Angstroms)
 Number     Number       Type             X           Y           Z
 ---------------------------------------------------------------------
      1          8           0        2.130152   -0.357744    0.052748
      2          6           0        0.975016   -0.010929    0.079619
      3          7           0        0.453168    1.189725   -0.271422
      4          6           0       -0.969793    1.304229   -0.006598
      5          6           0       -1.439778    0.018730    0.601972
      6          8           0       -0.860102   -1.291859   -0.705082
      7          6           0       -0.231271   -0.841345    0.518870
      8          1           0        1.026600    1.912238   -0.669742
      9          1           0       -1.556598    1.559003   -0.892509
     10          1           0       -1.189648    2.068309    0.751580
     11          1           0       -1.601044   -1.859470   -0.462085
     12          1           0       -0.016929   -1.635437    1.228206
 ---------------------------------------------------------------------

 SCF Done:  E(RHF) =  -358.842594701     A.U. after    2 cycles

 The electronic state is 1-A.
 Alpha  occ. eigenvalues --  -20.61672 -20.52183 -15.53637 -11.36542 -11.32342
 Alpha  occ. eigenvalues --  -11.29659 -11.29357  -1.51839  -1.46997  -1.27643
 Alpha  occ. eigenvalues --   -1.06087  -1.00048  -0.84291  -0.82132  -0.75299
 Alpha  occ. eigenvalues --   -0.72697  -0.66822  -0.66067  -0.62771  -0.58756
 Alpha  occ. eigenvalues --   -0.57651  -0.54638  -0.49217  -0.44878  -0.42932
 Alpha  occ. eigenvalues --   -0.38548
 Alpha virt. eigenvalues --    0.03151   0.03652   0.04333   0.05119   0.05415
 Alpha virt. eigenvalues --    0.07208   0.09267   0.09363   0.10838   0.11650
 Alpha virt. eigenvalues --    0.13318   0.13950   0.14228   0.14808   0.15306

 Mulliken charges:
               1
     1  O   -1.230678
     2  C    0.674070
     3  N    0.656112
     4  C   -0.262737
     5  C   -0.409866
     6  O   -1.123534
     7  C    0.916386
     8  H    0.019666
     9  H    0.126658
    10  H    0.197567
    11  H    0.390751
    12  H    0.045605
 Sum of Mulliken charges =  -0.00000

 Dipole moment (field-independent basis, Debye):
    X=             -2.4050    Y=              1.2501    Z=              0.0215  Tot=              2.7106

 Test job not archived.
 1\1\GINC-SE082\SP\RHF\Aug-CC-pVDZ\C4H5N1O2\OHZDE\09-Apr-2025\0\\#t hf
 aug-cc-pvdz iop(5/13=1,5/36=2,99/5=2) pseudo=read geom=check guess=(re
 ad,tcheck) scf=(maxcycle=1)\\title\\0,1\O,0,0.81124492,2.17120207,0.84
 700565\C,0,0.48334646,1.11566724,0.36361123\N,0,1.28084606,0.101269,-0
 .05125637\C,0,0.55662712,-0.98234785,-0.69105412\C,0,-0.89953244,-0.63
 138468,-0.70429251\O,0,-1.25570006,-0.28074358,1.16980791\C,0,-0.93820
 796,0.62578865,0.08636591\H,0,2.27623434,0.13121732,0.08221281\H,0,0.7
 239874,-1.95370948,-0.21931839\H,0,0.82652943,-1.09202859,-1.75035211\

 Normal termination of Gaussian 16 at Wed Apr  9 03:34:13 2025.
