 Gaussian 16, Revision C.01,

 ----------------------------------------------------------------------
 #t hf aug-cc-pvdz symm=none int=(grid=ultrafine) guess=(read,tcheck) s
 table=(opt,rrhf)
 ----------------------------------------------------------------------
 -----
 title
 -----
 Symbolic Z-matrix:
 Charge =  0 Multiplicity = 1

 SCF Done:  E(RHF) =  -302.905619379     A.U. after   15 cycles
 Normal termination of Gaussian 16 at Wed Apr  9 19:12:02 2025.
 Gaussian 16:  ES64L-G16RevC.01  3-Jul-2019

 ----------------------------------------------------------------------
 #t hf aug-cc-pvdz iop(5/13=1,5/36=2,99/5=2) pseudo=read geom=check gue
 ss=(read,tcheck) scf=(maxcycle=1)
 ----------------------------------------------------------------------
 -----
 title
 -----
 Structure from the checkpoint file:  "Grambow2020_wb97xd3_008878_reverse_mol2.chk"
 Charge =  0 Multiplicity = 1

                         Standard orientation:
 ---------------------------------------------------------------------
 Center     Atomic      Atomic             Coordinates (Angstroms)
 Number     Number       Type             X           Y           Z
 ---------------------------------------------------------------------
      1          6           0        2.294524   -0.489541    0.468128
      2          7           0        0.695477    1.265234   -0.153748
      3          6           0        1.137428   -0.096944   -0.442723
      4          6           0       -0.085540   -0.955291   -0.323320
      5          6           0       -1.114273   -0.155959   -0.007768
      6          7           0       -2.440496   -0.437287    0.275112
      7          6           0       -0.554098    1.203194    0.084421
      8          1           0        2.639825   -1.497692    0.232556
      9          1           0        3.126502    0.203647    0.343406
     10          1           0        1.975398   -0.469470    1.511396
     11          1           0        1.496704   -0.088776   -1.480319
     12          1           0       -0.102785   -2.026330   -0.469614
     13          1           0       -2.764372   -1.336774   -0.038049
     14          1           0       -3.090108    0.296827    0.047950
     15          1           0       -1.134275    2.090181    0.330694
 ---------------------------------------------------------------------

 SCF Done:  E(RHF) =  -303.224644154     A.U. after    2 cycles

 The electronic state is 1-A.
 Alpha  occ. eigenvalues --  -15.51736 -15.49144 -11.27790 -11.27727 -11.25774
 Alpha  occ. eigenvalues --  -11.22256 -11.22121  -1.27051  -1.21310  -1.04159
 Alpha  occ. eigenvalues --   -1.00660  -0.89667  -0.79958  -0.77983  -0.72718
 Alpha  occ. eigenvalues --   -0.70303  -0.63615  -0.63256  -0.56654  -0.55911
 Alpha  occ. eigenvalues --   -0.53912  -0.53372  -0.49788  -0.45423  -0.44024
 Alpha  occ. eigenvalues --   -0.33594
 Alpha virt. eigenvalues --    0.02726   0.04028   0.04426   0.05038   0.05359
 Alpha virt. eigenvalues --    0.06016   0.06982   0.08386   0.08560   0.10921
 Alpha virt. eigenvalues --    0.11317   0.12282   0.12950   0.13947   0.14813

 Mulliken charges:
               1
     1  C   -0.157513
     2  N    0.873474
     3  C   -1.511450
     4  C    1.305660
     5  C   -1.314188
     6  N    0.747505
     7  C   -0.440887
     8  H    0.188307
     9  H    0.172404
    10  H    0.216137
    11  H    0.111680
    12  H   -0.154964
    13  H    0.020366
    14  H    0.064405
    15  H   -0.120937
 Sum of Mulliken charges =  -0.00000

 Dipole moment (field-independent basis, Debye):
    X=             -2.4752    Y=             -1.8484    Z=             -0.8258  Tot=              3.1977

 Test job not archived.
 1\1\GINC-SE097\SP\RHF\Aug-CC-pVDZ\C5H8N2\OHZDE\09-Apr-2025\0\\#t hf au
 g-cc-pvdz iop(5/13=1,5/36=2,99/5=2) pseudo=read geom=check guess=(read
 ,tcheck) scf=(maxcycle=1)\\title\\0,1\C,0,2.03634129,-0.52929469,0.720
 03498\N,0,0.86787959,0.69825387,-1.05499699\C,0,0.90352035,-0.5514996,
 -0.29921838\C,0,-0.46939825,-0.71631733,0.27922551\C,0,-1.20652321,0.3
 3038972,-0.11807337\N,0,-2.50852872,0.69919305,0.17654629\C,0,-0.31099
 74,1.16546502,-0.93677647\H,0,2.0771563,-1.47395613,1.26505356\H,0,2.9
 9220395,-0.37177001,0.22026982\H,0,1.87988868,0.27678236,1.43865501\H,

 Normal termination of Gaussian 16 at Wed Apr  9 19:12:07 2025.
