 Gaussian 16, Revision C.01,

 ----------------------------------------------------------------------
 #t hf aug-cc-pvdz symm=none int=(grid=ultrafine) guess=(read,tcheck) s
 table=(opt,rrhf)
 ----------------------------------------------------------------------
 -----
 title
 -----
 Symbolic Z-matrix:
 Charge =  0 Multiplicity = 1

 SCF Done:  E(RHF) =  -245.622201972     A.U. after   18 cycles
 Normal termination of Gaussian 16 at Wed Apr  9 16:18:38 2025.
 Gaussian 16:  ES64L-G16RevC.01  3-Jul-2019

 ----------------------------------------------------------------------
 #t hf aug-cc-pvdz iop(5/13=1,5/36=2,99/5=2) pseudo=read geom=check gue
 ss=(read,tcheck) scf=(maxcycle=1)
 ----------------------------------------------------------------------
 -----
 title
 -----
 Structure from the checkpoint file:  "Grambow2020_b97d3_007195_forward_mol1.chk"
 Charge =  0 Multiplicity = 1

                         Standard orientation:
 ---------------------------------------------------------------------
 Center     Atomic      Atomic             Coordinates (Angstroms)
 Number     Number       Type             X           Y           Z
 ---------------------------------------------------------------------
      1          8           0        1.932340   -0.287921   -0.251091
      2          6           0        1.013576    0.162105    0.351623
      3          6           0       -0.595777   -0.148934    0.482350
      4          6           0       -0.848283    1.143770   -0.254446
      5          7           0       -1.329732   -1.110525   -0.133825
      6          1           0        0.639825    1.426385    0.361564
      7          1           0       -0.820414   -0.034023    1.554288
      8          1           0       -1.741567    1.724106    0.000790
      9          1           0       -0.606336    1.152675   -1.322345
     10          1           0       -1.039203   -1.133748   -1.125956
 ---------------------------------------------------------------------

 SCF Done:  E(RHF) =  -245.863953992     A.U. after    2 cycles

 The electronic state is 1-A.
 Alpha  occ. eigenvalues --  -20.59972 -15.52459 -11.38863 -11.33633 -11.31934
 Alpha  occ. eigenvalues --   -1.52946  -1.22221  -1.03805  -0.88345  -0.80529
 Alpha  occ. eigenvalues --   -0.71465  -0.67676  -0.65393  -0.62525  -0.57660
 Alpha  occ. eigenvalues --   -0.56714  -0.51785  -0.40414  -0.36847
 Alpha virt. eigenvalues --   -0.01226   0.03182   0.04020   0.04811   0.05209
 Alpha virt. eigenvalues --    0.06876   0.09346   0.09663   0.11149   0.11785
 Alpha virt. eigenvalues --    0.12978   0.13886   0.15355   0.15417   0.15983

 Mulliken charges:
               1
     1  O   -1.015009
     2  C    0.974975
     3  C   -1.536325
     4  C   -0.044694
     5  N    0.661224
     6  H    0.473608
     7  H    0.080982
     8  H    0.081281
     9  H    0.089285
    10  H    0.234672
 Sum of Mulliken charges =   0.00000

 Dipole moment (field-independent basis, Debye):
    X=             -0.2056    Y=              3.7376    Z=             -0.0980  Tot=              3.7445

 Test job not archived.
 1\1\GINC-SE138\SP\RHF\Aug-CC-pVDZ\C3H5N1O1\OHZDE\09-Apr-2025\0\\#t hf
 aug-cc-pvdz iop(5/13=1,5/36=2,99/5=2) pseudo=read geom=check guess=(re
 ad,tcheck) scf=(maxcycle=1)\\title\\0,1\O,0,1.68650841,-0.38107926,1.5
 8569023\C,0,1.27335407,-0.34999417,0.47292244\C,0,0.20994657,0.5692039
 8,-0.38036154\C,0,-0.71606484,-0.62232621,-0.40203598\N,0,-0.51964432,
 1.63530752,0.03694089\H,0,0.72685782,-1.35813256,-0.17760869\H,0,0.683
 23826,0.70985766,-1.36470258\H,0,-1.35423715,-0.77148458,-1.27974955\H
 ,0,-1.20038478,-0.88189641,0.54510886\H,0,-0.91334704,1.39769704,0.963

 Normal termination of Gaussian 16 at Wed Apr  9 16:18:41 2025.
