 Gaussian 16, Revision C.01,

 ----------------------------------------------------------------------
 #t hf aug-cc-pvdz symm=none int=(grid=ultrafine) guess=(read,tcheck) s
 table=(opt,rrhf)
 ----------------------------------------------------------------------
 -----
 title
 -----
 Symbolic Z-matrix:
 Charge =  0 Multiplicity = 1

 SCF Done:  E(RHF) =  -309.003559409     A.U. after   14 cycles

 1\1\GINC-SE162\Stability\RHF\Aug-CC-pVDZ\C6H12O1\OHZDE\09-Apr-2025\0\\
 #t hf aug-cc-pvdz symm=none int=(grid=ultrafine) guess=(read,tcheck) s
 table=(opt,rrhf)\\title\\0,1\C,0,3.32005959,-0.25802452,-0.09961511\O,
 0,2.03114523,0.11461168,-0.5995584\C,0,1.22918621,0.70958308,0.2293375
 7\C,0,-0.02358217,1.0707086,-0.50535979\C,0,-1.25449225,1.03137434,0.3
 9739019\C,0,-1.61775565,-0.37429633,0.87360034\C,0,-2.06910204,-1.3121
 8447,-0.24011988\H,0,3.37796745,-0.00613173,0.95818732\H,0,4.07141551,
 0.2846966,-0.672292\H,0,3.4409165,-1.3290819,-0.25773389\H,0,-0.754888

 Normal termination of Gaussian 16 at Wed Apr  9 18:59:06 2025.
 Gaussian 16:  ES64L-G16RevC.01  3-Jul-2019

 ----------------------------------------------------------------------
 #t hf aug-cc-pvdz iop(5/13=1,5/36=2,99/5=2) pseudo=read geom=check gue
 ss=(read,tcheck) scf=(maxcycle=1)
 ----------------------------------------------------------------------
 -----
 title
 -----
 Structure from the checkpoint file:  "Grambow2020_wb97xd3_008406_reverse_mol2.chk"
 Charge =  0 Multiplicity = 1

                         Standard orientation:
 ---------------------------------------------------------------------
 Center     Atomic      Atomic             Coordinates (Angstroms)
 Number     Number       Type             X           Y           Z
 ---------------------------------------------------------------------
      1          6           0       -3.059407    0.610654    0.265148
      2          8           0       -1.867838    0.161511   -0.389477
      3          6           0       -1.040176   -0.545289    0.317351
      4          6           0        0.092188   -0.966355   -0.565867
      5          6           0        1.408930   -1.082161    0.198610
      6          6           0        1.943495    0.258356    0.700507
      7          6           0        2.358233    1.218362   -0.408592
      8          1           0       -3.029142    0.303550    1.309427
      9          1           0       -3.911598    0.166566   -0.248270
     10          1           0       -3.100198    1.695418    0.173523
     11          1           0        1.181148    0.727697    1.331645
     12          1           0       -0.215970   -1.969167   -0.897275
     13          1           0        0.177121   -0.350674   -1.469421
     14          1           0        2.159869   -1.558735   -0.439706
     15          1           0        1.249429   -1.745077    1.052757
     16          1           0        2.802316    0.069761    1.351002
     17          1           0        3.111326    0.764605   -1.058358
     18          1           0        1.512737    1.508517   -1.036151
     19          1           0        2.786088    2.134046    0.003705
 ---------------------------------------------------------------------

 SCF Done:  E(RHF) =  -309.333994318     A.U. after    2 cycles

 The electronic state is 1-A.
 Alpha  occ. eigenvalues --  -20.60215 -11.29427 -11.28973 -11.22286 -11.22263
 Alpha  occ. eigenvalues --  -11.22104 -11.21796  -1.53278  -1.08754  -1.02102
 Alpha  occ. eigenvalues --   -0.96416  -0.88572  -0.80625  -0.76169  -0.66567
 Alpha  occ. eigenvalues --   -0.66216  -0.65416  -0.63054  -0.59405  -0.55763
 Alpha  occ. eigenvalues --   -0.54961  -0.53643  -0.51873  -0.50028  -0.47593
 Alpha  occ. eigenvalues --   -0.46500  -0.46248  -0.34587
 Alpha virt. eigenvalues --    0.03523   0.03745   0.04073   0.04221   0.05574
 Alpha virt. eigenvalues --    0.05916   0.06231   0.06888   0.07047   0.08585
 Alpha virt. eigenvalues --    0.09015   0.09702   0.11164   0.11794   0.14284

 Mulliken charges:
               1
     1  C    0.217915
     2  O   -1.141543
     3  C    0.603825
     4  C   -0.607969
     5  C   -0.168741
     6  C   -0.325173
     7  C   -0.318682
     8  H    0.200535
     9  H    0.106886
    10  H    0.092682
    11  H    0.184758
    12  H    0.287222
    13  H    0.071683
    14  H    0.139461
    15  H    0.141242
    16  H    0.121649
    17  H    0.156590
    18  H    0.134773
    19  H    0.102887
 Sum of Mulliken charges =  -0.00000

 Dipole moment (field-independent basis, Debye):
    X=             -0.8480    Y=              0.6471    Z=             -0.7316  Tot=              1.2934

 Test job not archived.
 1\1\GINC-SE162\SP\RHF\Aug-CC-pVDZ\C6H12O1\OHZDE\09-Apr-2025\0\\#t hf a
 ug-cc-pvdz iop(5/13=1,5/36=2,99/5=2) pseudo=read geom=check guess=(rea
 d,tcheck) scf=(maxcycle=1)\\title\\0,1\C,0,3.32005959,-0.25802452,-0.0
 9961511\O,0,2.03114523,0.11461168,-0.5995584\C,0,1.22918621,0.70958308
 ,0.22933757\C,0,-0.02358217,1.0707086,-0.50535979\C,0,-1.25449225,1.03
 137434,0.39739019\C,0,-1.61775565,-0.37429633,0.87360034\C,0,-2.069102
 04,-1.31218447,-0.24011988\H,0,3.37796745,-0.00613173,0.95818732\H,0,4
 .07141551,0.2846966,-0.672292\H,0,3.4409165,-1.3290819,-0.25773389\H,0

 Normal termination of Gaussian 16 at Wed Apr  9 18:59:13 2025.
