 Gaussian 16, Revision C.01,

 ----------------------------------------------------------------------
 #t hf aug-cc-pvdz symm=none int=(grid=ultrafine) guess=(read,tcheck) s
 table=(opt,rrhf)
 ----------------------------------------------------------------------
 -----
 title
 -----
 Symbolic Z-matrix:
 Charge =  0 Multiplicity = 1

 SCF Done:  E(RHF) =  -286.782802998     A.U. after   16 cycles
 Normal termination of Gaussian 16 at Wed Apr  9 18:12:49 2025.
 Gaussian 16:  ES64L-G16RevC.01  3-Jul-2019

 ----------------------------------------------------------------------
 #t hf aug-cc-pvdz iop(5/13=1,5/36=2,99/5=2) pseudo=read geom=check gue
 ss=(read,tcheck) scf=(maxcycle=1)
 ----------------------------------------------------------------------
 -----
 title
 -----
 Structure from the checkpoint file:  "Grambow2020_wb97xd3_007182_reverse_mol2.chk"
 Charge =  0 Multiplicity = 1

                         Standard orientation:
 ---------------------------------------------------------------------
 Center     Atomic      Atomic             Coordinates (Angstroms)
 Number     Number       Type             X           Y           Z
 ---------------------------------------------------------------------
      1          6           0        2.381743   -0.871023    0.001871
      2          6           0        1.194917    0.043966   -0.000817
      3          6           0        1.274419    1.374016    0.000923
      4          6           0       -1.447579    1.383397    0.002107
      5          6           0       -1.215483    0.082461    0.000518
      6          6           0       -2.510589   -0.692285    0.001086
      7          7           0       -0.026781   -0.605394   -0.012144
      8          1           0        2.380944   -1.513332   -0.882506
      9          1           0        3.305711   -0.297742    0.005319
     10          1           0        2.374390   -1.514407    0.885611
     11          1           0        2.232402    1.873315    0.000524
     12          1           0        0.393815    2.020146    0.002536
     13          1           0       -2.572128   -1.320314    0.892194
     14          1           0       -3.364064   -0.013457    0.006266
     15          1           0       -2.574773   -1.312473   -0.895123
     16          1           0       -0.053385   -1.607169    0.036055
 ---------------------------------------------------------------------

 SCF Done:  E(RHF) =  -287.084107882     A.U. after    2 cycles

 The electronic state is 1-A.
 Alpha  occ. eigenvalues --  -15.54188 -11.28898 -11.27925 -11.26880 -11.26327
 Alpha  occ. eigenvalues --  -11.24915 -11.21668  -1.28229  -1.09630  -1.04038
 Alpha  occ. eigenvalues --   -0.96979  -0.92387  -0.83453  -0.77116  -0.69270
 Alpha  occ. eigenvalues --   -0.63722  -0.60861  -0.60324  -0.59336  -0.58254
 Alpha  occ. eigenvalues --   -0.55909  -0.54685  -0.53303  -0.43611  -0.37388
 Alpha  occ. eigenvalues --   -0.33051
 Alpha virt. eigenvalues --    0.02583   0.03665   0.04335   0.04493   0.04920
 Alpha virt. eigenvalues --    0.05941   0.06286   0.07859   0.09017   0.09261
 Alpha virt. eigenvalues --    0.09440   0.12049   0.12225   0.12973   0.13493

 Mulliken charges:
               1
     1  C   -0.592914
     2  C   -0.309699
     3  C    0.309427
     4  C   -0.372632
     5  C   -0.552971
     6  C   -0.424533
     7  N    0.954286
     8  H    0.230784
     9  H    0.129411
    10  H    0.221127
    11  H   -0.206746
    12  H    0.007645
    13  H    0.214651
    14  H    0.132738
    15  H    0.222684
    16  H    0.036742
 Sum of Mulliken charges =  -0.00000

 Dipole moment (field-independent basis, Debye):
    X=              0.9357    Y=             -4.2078    Z=              0.0709  Tot=              4.3111

 Test job not archived.
 1\1\GINC-SE224\SP\RHF\Aug-CC-pVDZ\C6H9N1\OHZDE\09-Apr-2025\0\\#t hf au
 g-cc-pvdz iop(5/13=1,5/36=2,99/5=2) pseudo=read geom=check guess=(read
 ,tcheck) scf=(maxcycle=1)\\title\\0,1\C,0,-2.36396246,-0.32435348,0.06
 594344\C,0,-1.04735076,0.3912225,0.08186194\C,0,-0.91385229,1.71184758
 ,0.19797249\C,0,1.77253557,1.29898025,0.0488963\C,0,1.33631564,0.05533
 382,-0.04785726\C,0,2.49028487,-0.90747428,-0.18528374\N,0,0.05467623,
 -0.43798532,-0.02902105\H,0,-2.42973748,-1.03834207,0.89091521\H,0,-3.
 18411911,0.38311641,0.16190786\H,0,-2.4950392,-0.87619534,-0.86855258\

 Normal termination of Gaussian 16 at Wed Apr  9 18:12:55 2025.
