 Gaussian 16, Revision C.01,

 ----------------------------------------------------------------------
 #t hf aug-cc-pvdz symm=none int=(grid=ultrafine) guess=(read,tcheck) s
 table=(opt,rrhf)
 ----------------------------------------------------------------------
 -----
 title
 -----
 Symbolic Z-matrix:
 Charge =  0 Multiplicity = 1

 SCF Done:  E(RHF) =  -344.842050522     A.U. after   14 cycles

 1\1\GINC-SE458\Stability\RHF\Aug-CC-pVDZ\C5H10O2\OHZDE\09-Apr-2025\0\\
 #t hf aug-cc-pvdz symm=none int=(grid=ultrafine) guess=(read,tcheck) s
 table=(opt,rrhf)\\title\\0,1\C,0,2.04538496,1.31833458,0.48329623\O,0,
 1.41446105,1.4970157,-0.7672103\C,0,-0.45512143,-1.33258646,-1.1302010
 9\C,0,0.38917022,-1.63918979,-0.14589702\O,0,-0.382212,-1.28241259,0.9
 287743\C,0,-1.4325903,-0.93196877,-0.04909653\C,0,-1.88863114,0.494257
 56,0.08457291\H,0,1.3500279,0.95109527,1.24612681\H,0,2.8945421,0.6273
 0059,0.4206503\H,0,2.42335862,2.29075665,0.79785031\H,0,-0.4760277,-1.

 Normal termination of Gaussian 16 at Wed Apr  9 03:27:29 2025.
 Gaussian 16:  ES64L-G16RevC.01  3-Jul-2019

 ----------------------------------------------------------------------
 #t hf aug-cc-pvdz iop(5/13=1,5/36=2,99/5=2) pseudo=read geom=check gue
 ss=(read,tcheck) scf=(maxcycle=1)
 ----------------------------------------------------------------------
 -----
 title
 -----
 Structure from the checkpoint file:  "Grambow2020_wb97xd3_006663_reverse_mol2.chk"
 Charge =  0 Multiplicity = 1

                         Standard orientation:
 ---------------------------------------------------------------------
 Center     Atomic      Atomic             Coordinates (Angstroms)
 Number     Number       Type             X           Y           Z
 ---------------------------------------------------------------------
      1          6           0       -2.519772   -0.057236   -0.522788
      2          8           0       -2.115243    0.438470    0.735938
      3          6           0        1.094971   -0.673672    1.038279
      4          6           0        0.602010   -1.407238    0.041003
      5          8           0        0.984940   -0.628355   -1.019159
      6          6           0        1.614524    0.265690   -0.025860
      7          6           0        1.105719    1.677153   -0.119949
      8          1           0       -1.752705    0.093944   -1.290284
      9          1           0       -2.771352   -1.123855   -0.483373
     10          1           0       -3.415253    0.490759   -0.814725
     11          1           0        1.167574   -0.745181    2.109492
     12          1           0       -1.295383   -0.002368    0.980571
     13          1           0        0.068509   -2.336338   -0.112007
     14          1           0        2.695584    0.206968   -0.170951
     15          1           0        1.565422    2.283121    0.663526
     16          1           0        1.372400    2.110107   -1.085430
     17          1           0        0.022921    1.713743    0.004836
 ---------------------------------------------------------------------

 SCF Done:  E(RHF) =  -345.202987545     A.U. after    2 cycles

 The electronic state is 1-A.
 Alpha  occ. eigenvalues --  -20.56808 -20.53511 -11.31598 -11.31057 -11.27181
 Alpha  occ. eigenvalues --  -11.24120 -11.23365  -1.50865  -1.43704  -1.06425
 Alpha  occ. eigenvalues --   -1.01546  -0.91923  -0.87535  -0.74563  -0.72511
 Alpha  occ. eigenvalues --   -0.68711  -0.65681  -0.64988  -0.61468  -0.58774
 Alpha  occ. eigenvalues --   -0.57441  -0.56304  -0.51280  -0.49868  -0.49348
 Alpha  occ. eigenvalues --   -0.48564  -0.43276  -0.35861
 Alpha virt. eigenvalues --    0.03215   0.03563   0.04109   0.04507   0.05730
 Alpha virt. eigenvalues --    0.06091   0.06916   0.07436   0.08793   0.09728
 Alpha virt. eigenvalues --    0.10931   0.11630   0.12655   0.13255   0.14025

 Mulliken charges:
               1
     1  C    0.427128
     2  O   -1.146392
     3  C    0.037463
     4  C    0.913790
     5  O   -1.358659
     6  C    0.546538
     7  C   -0.382505
     8  H    0.125221
     9  H    0.063386
    10  H   -0.009474
    11  H   -0.212058
    12  H    0.603884
    13  H   -0.135592
    14  H    0.008778
    15  H    0.225301
    16  H    0.217247
    17  H    0.075943
 Sum of Mulliken charges =  -0.00000

 Dipole moment (field-independent basis, Debye):
    X=              1.5079    Y=             -0.8187    Z=              0.3375  Tot=              1.7487

 Test job not archived.
 1\1\GINC-SE458\SP\RHF\Aug-CC-pVDZ\C5H10O2\OHZDE\09-Apr-2025\0\\#t hf a
 ug-cc-pvdz iop(5/13=1,5/36=2,99/5=2) pseudo=read geom=check guess=(rea
 d,tcheck) scf=(maxcycle=1)\\title\\0,1\C,0,2.04538496,1.31833458,0.483
 29623\O,0,1.41446105,1.4970157,-0.7672103\C,0,-0.45512143,-1.33258646,
 -1.13020109\C,0,0.38917022,-1.63918979,-0.14589702\O,0,-0.382212,-1.28
 241259,0.9287743\C,0,-1.4325903,-0.93196877,-0.04909653\C,0,-1.8886311
 4,0.49425756,0.08457291\H,0,1.3500279,0.95109527,1.24612681\H,0,2.8945
 421,0.62730059,0.4206503\H,0,2.42335862,2.29075665,0.79785031\H,0,-0.4

 Normal termination of Gaussian 16 at Wed Apr  9 03:27:35 2025.
