 Gaussian 16, Revision C.01,

 ----------------------------------------------------------------------
 #t hf aug-cc-pvdz symm=none int=(grid=ultrafine) guess=(read,tcheck) s
 table=(opt,rrhf)
 ----------------------------------------------------------------------
 -----
 title
 -----
 Symbolic Z-matrix:
 Charge =  0 Multiplicity = 1

 SCF Done:  E(RHF) =  -191.805560761     A.U. after   16 cycles
 Normal termination of Gaussian 16 at Wed Apr  9 15:49:33 2025.
 Gaussian 16:  ES64L-G16RevC.01  3-Jul-2019

 ----------------------------------------------------------------------
 #t hf aug-cc-pvdz iop(5/13=1,5/36=2,99/5=2) pseudo=read geom=check gue
 ss=(read,tcheck) scf=(maxcycle=1)
 ----------------------------------------------------------------------
 -----
 title
 -----
 Structure from the checkpoint file:  "Grambow2020_b97d3_006807_forward_mol1.chk"
 Charge =  0 Multiplicity = 1

                         Standard orientation:
 ---------------------------------------------------------------------
 Center     Atomic      Atomic             Coordinates (Angstroms)
 Number     Number       Type             X           Y           Z
 ---------------------------------------------------------------------
      1          6           0        0.977327   -1.012369   -0.077682
      2          6           0        0.222813    0.176285    0.265801
      3          8           0        0.414751    1.385046   -0.106938
      4          6           0       -1.351631   -0.328472   -0.113274
      5          1           0        1.810704   -0.994634   -0.784228
      6          1           0        0.062027    0.026736    1.387100
      7          1           0        0.716476   -1.965717    0.382405
      8          1           0       -1.957523    0.475283    0.311266
      9          1           0       -1.422954   -0.334175   -1.202751
     10          1           0       -1.617788   -1.300524    0.312643
 ---------------------------------------------------------------------

 SCF Done:  E(RHF) =  -192.005605314     A.U. after    2 cycles

 The electronic state is 1-A.
 Alpha  occ. eigenvalues --  -20.42913 -11.36483 -11.30847 -11.27911  -1.35576
 Alpha  occ. eigenvalues --   -1.07161  -0.95291  -0.80397  -0.69630  -0.64549
 Alpha  occ. eigenvalues --   -0.60809  -0.55675  -0.53979  -0.52076  -0.34931
 Alpha  occ. eigenvalues --   -0.32430
 Alpha virt. eigenvalues --   -0.01879   0.02241   0.03669   0.04710   0.05124
 Alpha virt. eigenvalues --    0.06806   0.07272   0.11399   0.11760   0.12224
 Alpha virt. eigenvalues --    0.14453   0.15436   0.15645   0.15775   0.17040

 Mulliken charges:
               1
     1  C    0.196064
     2  C    0.569402
     3  O   -1.426755
     4  C   -0.403578
     5  H    0.065319
     6  H    0.437798
     7  H    0.048582
     8  H    0.173105
     9  H    0.211092
    10  H    0.128970
 Sum of Mulliken charges =  -0.00000

 Dipole moment (field-independent basis, Debye):
    X=             -0.1770    Y=             -6.4097    Z=              0.4923  Tot=              6.4310

 Test job not archived.
 1\1\GINC-SE042\SP\RHF\Aug-CC-pVDZ\C3H6O1\OHZDE\09-Apr-2025\0\\#t hf au
 g-cc-pvdz iop(5/13=1,5/36=2,99/5=2) pseudo=read geom=check guess=(read
 ,tcheck) scf=(maxcycle=1)\\title\\0,1\C,0,-1.06244084,0.11421281,0.814
 43749\C,0,-0.41744895,0.40532062,-0.45024124\O,0,-0.31075982,1.5259665
 4,-1.05822801\C,0,1.10889852,-0.28872855,-0.19350716\H,0,-1.503717,0.8
 9307283,1.44108829\H,0,-0.77116364,-0.47114111,-1.09229304\H,0,-1.1199
 8777,-0.91713962,1.1631436\H,0,1.54799813,-0.2508512,-1.19306563\H,0,1
 .64192245,0.37529752,0.48989318\H,0,1.06901092,-1.31283385,0.18956852\

 Normal termination of Gaussian 16 at Wed Apr  9 15:49:36 2025.
