 Gaussian 16, Revision C.01,

 ----------------------------------------------------------------------
 #t hf aug-cc-pvdz symm=none int=(grid=ultrafine) guess=(read,tcheck) s
 table=(opt,rrhf)
 ----------------------------------------------------------------------
 -----
 title
 -----
 Symbolic Z-matrix:
 Charge =  0 Multiplicity = 1

 SCF Done:  E(RHF) =  -323.713329400     A.U. after   17 cycles
 Normal termination of Gaussian 16 at Wed Apr  9 18:16:28 2025.
 Gaussian 16:  ES64L-G16RevC.01  3-Jul-2019

 ----------------------------------------------------------------------
 #t hf aug-cc-pvdz iop(5/13=1,5/36=2,99/5=2) pseudo=read geom=check gue
 ss=(read,tcheck) scf=(maxcycle=1)
 ----------------------------------------------------------------------
 -----
 title
 -----
 Structure from the checkpoint file:  "Grambow2020_wb97xd3_007255_forward_mol1.chk"
 Charge =  0 Multiplicity = 1

                         Standard orientation:
 ---------------------------------------------------------------------
 Center     Atomic      Atomic             Coordinates (Angstroms)
 Number     Number       Type             X           Y           Z
 ---------------------------------------------------------------------
      1          6           0       -0.454280   -0.047460    1.534051
      2          6           0       -0.623066   -0.026020    0.053944
      3          6           0       -2.024045   -0.050454   -0.513532
      4          6           0        0.242309    1.120512   -0.532909
      5          8           0        1.499088    0.978232    0.065516
      6          6           0        1.396676   -1.142917   -0.272130
      7          7           0        0.237136   -1.224292   -0.447547
      8          1           0        1.169750    0.805161    1.026154
      9          1           0       -0.074942   -0.978778    1.939097
     10          1           0       -1.363549    0.241689    2.061349
     11          1           0       -2.585022    0.774406   -0.072054
     12          1           0       -2.036886    0.066680   -1.599975
     13          1           0       -2.527436   -0.978962   -0.247906
     14          1           0        0.351836    1.085875   -1.618468
     15          1           0       -0.234868    2.055487   -0.231091
     16          1           0        2.422901   -1.449334   -0.264951
 ---------------------------------------------------------------------

 SCF Done:  E(RHF) =  -324.052960288     A.U. after    2 cycles

 The electronic state is 1-A.
 Alpha  occ. eigenvalues --  -20.56152 -15.58936 -11.39628 -11.30428 -11.28581
 Alpha  occ. eigenvalues --  -11.23208 -11.14715  -1.46955  -1.33050  -1.08738
 Alpha  occ. eigenvalues --   -0.93483  -0.90762  -0.87331  -0.79833  -0.72444
 Alpha  occ. eigenvalues --   -0.69701  -0.64413  -0.62701  -0.60699  -0.56917
 Alpha  occ. eigenvalues --   -0.55883  -0.54667  -0.50705  -0.48120  -0.47750
 Alpha  occ. eigenvalues --   -0.44814  -0.25893
 Alpha virt. eigenvalues --    0.02393   0.03672   0.04242   0.04716   0.05411
 Alpha virt. eigenvalues --    0.05670   0.06275   0.07129   0.07535   0.08356
 Alpha virt. eigenvalues --    0.09084   0.10168   0.13102   0.13417   0.13834

 Mulliken charges:
               1
     1  C    0.212942
     2  C   -2.712506
     3  C   -0.297967
     4  C    1.228120
     5  O   -1.236504
     6  C   -0.102823
     7  N    1.342091
     8  H    0.649404
     9  H   -0.082309
    10  H   -0.048083
    11  H    0.255031
    12  H    0.234324
    13  H    0.264664
    14  H    0.105207
    15  H    0.155153
    16  H    0.033256
 Sum of Mulliken charges =  -0.00000

 Dipole moment (field-independent basis, Debye):
    X=              1.9796    Y=             -1.6765    Z=             -3.1893  Tot=              4.1111

 Test job not archived.
 1\1\GINC-SE103\SP\RHF\Aug-CC-pVDZ\C5H9N1O1\OHZDE\09-Apr-2025\0\\#t hf
 aug-cc-pvdz iop(5/13=1,5/36=2,99/5=2) pseudo=read geom=check guess=(re
 ad,tcheck) scf=(maxcycle=1)\\title\\0,1\C,0,0.74003522,1.12176203,0.59
 238084\C,0,0.29278284,-0.11598887,-0.10590568\C,0,1.32875969,-1.156405
 39,-0.46597854\C,0,-0.91759115,-0.71386603,0.65917166\O,0,-1.78292737,
 0.36307561,0.88106931\C,0,-1.46410121,1.00976373,-1.14474174\N,0,-0.47
 783621,0.40575191,-1.35539788\H,0,-1.07069779,1.04736455,1.17384904\H,
 0,0.72096146,2.02171884,-0.01179349\H,0,1.72055082,1.00798392,1.055051

 Normal termination of Gaussian 16 at Wed Apr  9 18:16:34 2025.
