 Gaussian 16, Revision C.01,

 ----------------------------------------------------------------------
 #t hf aug-cc-pvdz symm=none int=(grid=ultrafine) guess=(read,tcheck) s
 table=(opt,rrhf)
 ----------------------------------------------------------------------
 -----
 title
 -----
 Symbolic Z-matrix:
 Charge =  0 Multiplicity = 1

 SCF Done:  E(RHF) =  -268.598373005     A.U. after   15 cycles
 Normal termination of Gaussian 16 at Wed Apr  9 16:55:09 2025.
 Gaussian 16:  ES64L-G16RevC.01  3-Jul-2019

 ----------------------------------------------------------------------
 #t hf aug-cc-pvdz iop(5/13=1,5/36=2,99/5=2) pseudo=read geom=check gue
 ss=(read,tcheck) scf=(maxcycle=1)
 ----------------------------------------------------------------------
 -----
 title
 -----
 Structure from the checkpoint file:  "Grambow2020_wb97xd3_006182_forward_mol1.chk"
 Charge =  0 Multiplicity = 1

                         Standard orientation:
 ---------------------------------------------------------------------
 Center     Atomic      Atomic             Coordinates (Angstroms)
 Number     Number       Type             X           Y           Z
 ---------------------------------------------------------------------
      1          8           0       -1.492854    0.864179    0.174900
      2          6           0       -0.003113    0.562404   -0.402224
      3          6           0       -1.307296   -0.936889   -0.128958
      4          6           0        0.052160   -0.769045    0.327592
      5          6           0        1.524455   -0.681997   -0.149300
      6          6           0        1.396384    0.876177    0.084948
      7          1           0       -1.947109    1.299749   -0.554515
      8          1           0       -2.100829   -1.215944    0.562305
      9          1           0       -1.500677   -1.093594   -1.181325
     10          1           0        0.064442   -0.688466    1.424348
     11          1           0        2.225684   -1.202261    0.501981
     12          1           0        1.684438   -0.945727   -1.189152
     13          1           0        1.532278    1.075809    1.156668
     14          1           0        2.009056    1.553106   -0.511864
 ---------------------------------------------------------------------

 SCF Done:  E(RHF) =  -268.880923862     A.U. after    2 cycles

 The electronic state is 1-A.
 Alpha  occ. eigenvalues --  -20.56854 -11.35720 -11.25184 -11.23281 -11.22855
 Alpha  occ. eigenvalues --  -11.22631  -1.43753  -1.15667  -1.01636  -0.85838
 Alpha  occ. eigenvalues --   -0.84270  -0.75001  -0.69042  -0.66273  -0.63399
 Alpha  occ. eigenvalues --   -0.58437  -0.55780  -0.53075  -0.50788  -0.48481
 Alpha  occ. eigenvalues --   -0.45941  -0.38121  -0.28861
 Alpha virt. eigenvalues --    0.03166   0.03632   0.04196   0.04839   0.06018
 Alpha virt. eigenvalues --    0.06329   0.06924   0.07867   0.09630   0.11129
 Alpha virt. eigenvalues --    0.12622   0.13113   0.13843   0.14861   0.15357

 Mulliken charges:
               1
     1  O   -1.181356
     2  C    0.312181
     3  C    0.343008
     4  C    0.245539
     5  C   -0.019359
     6  C   -0.024230
     7  H    0.367056
     8  H   -0.040772
     9  H   -0.021334
    10  H   -0.070296
    11  H    0.051841
    12  H   -0.001542
    13  H    0.042878
    14  H   -0.003613
 Sum of Mulliken charges =   0.00000

 Dipole moment (field-independent basis, Debye):
    X=             -1.4501    Y=             -1.8240    Z=              0.0979  Tot=              2.3322

 Test job not archived.
 1\1\GINC-SE113\SP\RHF\Aug-CC-pVDZ\C5H8O1\OHZDE\09-Apr-2025\0\\#t hf au
 g-cc-pvdz iop(5/13=1,5/36=2,99/5=2) pseudo=read geom=check guess=(read
 ,tcheck) scf=(maxcycle=1)\\title\\0,1\O,0,1.55270757,0.80523698,0.7692
 3195\C,0,0.65742135,-0.4067887,0.15855677\C,0,0.62560264,1.40738908,-0
 .69654351\C,0,-0.44775342,0.55745073,-0.23802185\C,0,-1.17570815,-0.78
 431798,-0.50708245\C,0,-0.38166077,-1.34262996,0.74069772\H,0,2.458757
 5,0.57034671,0.54116161\H,0,0.67876005,2.45351285,-0.39954058\H,0,1.20
 068188,1.11794732,-1.56541361\H,0,-0.96071969,1.03714599,0.60830915\H,

 Normal termination of Gaussian 16 at Wed Apr  9 16:55:13 2025.
