 Gaussian 16, Revision C.01,

 ----------------------------------------------------------------------
 #t hf aug-cc-pvdz symm=none int=(grid=ultrafine) guess=(read,tcheck) s
 table=(opt,rrhf)
 ----------------------------------------------------------------------
 -----
 title
 -----
 Symbolic Z-matrix:
 Charge =  0 Multiplicity = 1

 SCF Done:  E(RHF) =  -379.298213388     A.U. after   22 cycles
 Normal termination of Gaussian 16 at Wed Apr  9 19:04:55 2025.
 Gaussian 16:  ES64L-G16RevC.01  3-Jul-2019

 ----------------------------------------------------------------------
 #t hf aug-cc-pvdz iop(5/13=1,5/36=2,99/5=2) pseudo=read geom=check gue
 ss=(read,tcheck) scf=(maxcycle=1)
 ----------------------------------------------------------------------
 -----
 title
 -----
 Structure from the checkpoint file:  "Grambow2020_wb97xd3_008538_reverse_mol1.chk"
 Charge =  0 Multiplicity = 1

                         Standard orientation:
 ---------------------------------------------------------------------
 Center     Atomic      Atomic             Coordinates (Angstroms)
 Number     Number       Type             X           Y           Z
 ---------------------------------------------------------------------
      1          8           0       -1.571724    1.300866   -0.223087
      2          6           0        0.254323   -0.404181   -0.085086
      3          6           0        0.763374    0.921850    0.295269
      4          8           0        2.122947    0.505866    0.082147
      5          6           0        1.682169   -0.801368   -0.292758
      6          6           0       -0.932328   -1.113411    0.169793
      7          8           0       -2.085925   -0.726271    0.029349
      8          1           0       -2.514584    1.495783   -0.263039
      9          1           0        0.563968    1.268360    1.311863
     10          1           0        0.381810    1.711152   -0.390615
     11          1           0        1.957328   -1.063963   -1.320046
     12          1           0        2.052292   -1.576430    0.388441
     13          1           0       -0.768421   -2.095940    0.642822
 ---------------------------------------------------------------------

 SCF Done:  E(RHF) =  -379.677624961     A.U. after    2 cycles

 The electronic state is 1-A.
 Alpha  occ. eigenvalues --  -20.60916 -20.57392 -20.49261 -11.35824 -11.35188
 Alpha  occ. eigenvalues --  -11.34340 -11.32105  -1.51341  -1.50660  -1.29428
 Alpha  occ. eigenvalues --   -1.11120  -0.98760  -0.93830  -0.77973  -0.74986
 Alpha  occ. eigenvalues --   -0.72330  -0.69734  -0.65329  -0.60899  -0.57927
 Alpha  occ. eigenvalues --   -0.55853  -0.53809  -0.52544  -0.47346  -0.44797
 Alpha  occ. eigenvalues --   -0.41160  -0.30719
 Alpha virt. eigenvalues --   -0.03949   0.02500   0.03641   0.04311   0.04955
 Alpha virt. eigenvalues --    0.06890   0.07244   0.08778   0.09212   0.10616
 Alpha virt. eigenvalues --    0.11884   0.12195   0.14145   0.14185   0.14703

 Mulliken charges:
               1
     1  O   -0.976639
     2  C   -0.404963
     3  C    0.520723
     4  O   -1.288424
     5  C    0.417536
     6  C    1.338953
     7  O   -1.039295
     8  H    0.442522
     9  H    0.165422
    10  H    0.361209
    11  H    0.175354
    12  H    0.173321
    13  H    0.114281
 Sum of Mulliken charges =  -0.00000

 Dipole moment (field-independent basis, Debye):
    X=              2.0870    Y=             -3.4777    Z=              0.6138  Tot=              4.1020

 Test job not archived.
 1\1\GINC-SE454\SP\RHF\Aug-CC-pVDZ\C4H6O3\OHZDE\09-Apr-2025\0\\#t hf au
 g-cc-pvdz iop(5/13=1,5/36=2,99/5=2) pseudo=read geom=check guess=(read
 ,tcheck) scf=(maxcycle=1)\\title\\0,1\O,0,1.5149715,-0.69230633,-1.431
 5329\C,0,-0.04583752,0.29180611,0.25845966\C,0,-0.76289009,-0.65356621
 ,-0.6100257\O,0,-2.03387272,-0.09359763,-0.23862039\C,0,-1.38730092,0.
 84571328,0.62355172\C,0,1.21724754,0.29818465,0.87545744\O,0,2.3072661
 7,0.07781462,0.36195382\H,0,2.41982467,-0.87315419,-1.70921808\H,0,-0.
 66928696,-1.7185137,-0.38548298\H,0,-0.46631927,-0.52562518,-1.6752499

 Normal termination of Gaussian 16 at Wed Apr  9 19:04:59 2025.
