 Gaussian 16, Revision C.01,

 ----------------------------------------------------------------------
 #t hf aug-cc-pvdz symm=none int=(grid=ultrafine) guess=(read,tcheck) s
 table=(opt,rrhf)
 ----------------------------------------------------------------------
 -----
 title
 -----
 Symbolic Z-matrix:
 Charge =  0 Multiplicity = 1

 SCF Done:  E(RHF) =  -308.869337272     A.U. after   15 cycles

 1\1\GINC-SE113\Stability\RHF\Aug-CC-pVDZ\C6H12O1\OHZDE\09-Apr-2025\0\\
 #t hf aug-cc-pvdz symm=none int=(grid=ultrafine) guess=(read,tcheck) s
 table=(opt,rrhf)\\title\\0,1\C,0,2.0968792,-0.35395944,-0.34931653\C,0
 ,0.96608376,0.01220094,0.5986203\O,0,1.5051101,0.04922904,1.90634789\C
 ,0,0.13669504,1.1470983,0.26483759\C,0,-0.75197426,1.12324084,-0.90224
 572\C,0,-1.67624478,0.18429522,-0.1621091\C,0,-1.38168583,-1.2444619,-
 0.15539215\H,0,1.73333984,-0.40462072,-1.37666189\H,0,2.5132216,-1.326
 3699,-0.08068634\H,0,2.88702374,0.39628081,-0.29592722\H,0,0.23119848,

 Normal termination of Gaussian 16 at Wed Apr  9 18:26:48 2025.
 Gaussian 16:  ES64L-G16RevC.01  3-Jul-2019

 ----------------------------------------------------------------------
 #t hf aug-cc-pvdz iop(5/13=1,5/36=2,99/5=2) pseudo=read geom=check gue
 ss=(read,tcheck) scf=(maxcycle=1)
 ----------------------------------------------------------------------
 -----
 title
 -----
 Structure from the checkpoint file:  "Grambow2020_wb97xd3_007565_forward_mol1.chk"
 Charge =  0 Multiplicity = 1

                         Standard orientation:
 ---------------------------------------------------------------------
 Center     Atomic      Atomic             Coordinates (Angstroms)
 Number     Number       Type             X           Y           Z
 ---------------------------------------------------------------------
      1          6           0        1.648491   -0.152125    1.257947
      2          6           0        0.930900    0.092402   -0.059863
      3          8           0        1.905459    0.491229   -1.004979
      4          6           0        0.018390   -0.920579   -0.537861
      5          6           0       -1.231507   -1.214922    0.171720
      6          6           0       -1.810202    0.085273   -0.336516
      7          6           0       -1.509666    1.323163    0.374443
      8          1           0        0.939095   -0.456299    2.028921
      9          1           0        2.149717    0.759299    1.588347
     10          1           0        2.392060   -0.941241    1.137775
     11          1           0        0.227248    1.013739    0.188064
     12          1           0        1.458133    0.651745   -1.837833
     13          1           0        0.124014   -1.282669   -1.553886
     14          1           0       -1.178745   -1.244218    1.261524
     15          1           0       -1.763804   -2.089942   -0.190908
     16          1           0       -2.073136    0.144343   -1.384331
     17          1           0       -1.481862    1.314273    1.457302
     18          1           0       -2.744184    0.642901    0.253842
     19          1           0       -1.570641    2.278967   -0.128203
 ---------------------------------------------------------------------

 SCF Done:  E(RHF) =  -309.203064038     A.U. after    2 cycles

 The electronic state is 1-A.
 Alpha  occ. eigenvalues --  -20.53331 -11.28203 -11.27706 -11.27530 -11.25246
 Alpha  occ. eigenvalues --  -11.21204 -11.20834  -1.43859  -1.14247  -1.03410
 Alpha  occ. eigenvalues --   -0.98690  -0.88134  -0.80314  -0.75789  -0.69886
 Alpha  occ. eigenvalues --   -0.67951  -0.64407  -0.61754  -0.59607  -0.57620
 Alpha  occ. eigenvalues --   -0.54190  -0.52664  -0.51986  -0.50948  -0.49605
 Alpha  occ. eigenvalues --   -0.47889  -0.39441  -0.23902
 Alpha virt. eigenvalues --    0.02967   0.03337   0.03356   0.04432   0.05993
 Alpha virt. eigenvalues --    0.06070   0.06204   0.06296   0.06686   0.09257
 Alpha virt. eigenvalues --    0.09454   0.09604   0.11039   0.12877   0.13661

 Mulliken charges:
               1
     1  C   -0.360162
     2  C    0.971378
     3  O   -1.463185
     4  C    0.219130
     5  C    0.003365
     6  C   -0.021755
     7  C   -0.505913
     8  H    0.156207
     9  H    0.168319
    10  H    0.208856
    11  H    0.339095
    12  H    0.241240
    13  H   -0.290786
    14  H    0.053152
    15  H    0.033322
    16  H   -0.076385
    17  H   -0.020727
    18  H    0.395178
    19  H   -0.050330
 Sum of Mulliken charges =  -0.00000

 Dipole moment (field-independent basis, Debye):
    X=             -3.5829    Y=              0.7547    Z=             -0.0174  Tot=              3.6615

 Test job not archived.
 1\1\GINC-SE113\SP\RHF\Aug-CC-pVDZ\C6H12O1\OHZDE\09-Apr-2025\0\\#t hf a
 ug-cc-pvdz iop(5/13=1,5/36=2,99/5=2) pseudo=read geom=check guess=(rea
 d,tcheck) scf=(maxcycle=1)\\title\\0,1\C,0,2.0968792,-0.35395944,-0.34
 931653\C,0,0.96608376,0.01220094,0.5986203\O,0,1.5051101,0.04922904,1.
 90634789\C,0,0.13669504,1.1470983,0.26483759\C,0,-0.75197426,1.1232408
 4,-0.90224572\C,0,-1.67624478,0.18429522,-0.1621091\C,0,-1.38168583,-1
 .2444619,-0.15539215\H,0,1.73333984,-0.40462072,-1.37666189\H,0,2.5132
 216,-1.3263699,-0.08068634\H,0,2.88702374,0.39628081,-0.29592722\H,0,0

 Normal termination of Gaussian 16 at Wed Apr  9 18:26:56 2025.
