 Gaussian 16, Revision C.01,

 ----------------------------------------------------------------------
 #t hf aug-cc-pvdz symm=none int=(grid=ultrafine) guess=(read,tcheck) s
 table=(opt,rrhf)
 ----------------------------------------------------------------------
 -----
 title
 -----
 Symbolic Z-matrix:
 Charge =  0 Multiplicity = 1

 SCF Done:  E(RHF) =  -308.904612744     A.U. after   15 cycles

 1\1\GINC-SE058\Stability\RHF\Aug-CC-pVDZ\C6H12O1\OHZDE\09-Apr-2025\0\\
 #t hf aug-cc-pvdz symm=none int=(grid=ultrafine) guess=(read,tcheck) s
 table=(opt,rrhf)\\title\\0,1\C,0,1.97175334,-0.4739254,-0.73807596\C,0
 ,1.01454178,0.15331884,0.13705133\O,0,1.25721431,0.25540004,1.45896441
 \C,0,0.0918582,1.22533474,-0.36775084\C,0,-1.29136956,1.08606741,0.251
 90734\C,0,-1.751917,-0.33705106,-0.06468303\C,0,-0.60705475,-1.2785165
 1,0.24719693\H,0,2.77754641,-1.03386857,-0.27776488\H,0,2.15387504,-0.
 01348487,-1.69848936\H,0,0.72401985,-1.09713515,-0.4729491\H,0,2.06573

 Normal termination of Gaussian 16 at Wed Apr  9 03:59:10 2025.
 Gaussian 16:  ES64L-G16RevC.01  3-Jul-2019

 ----------------------------------------------------------------------
 #t hf aug-cc-pvdz iop(5/13=1,5/36=2,99/5=2) pseudo=read geom=check gue
 ss=(read,tcheck) scf=(maxcycle=1)
 ----------------------------------------------------------------------
 -----
 title
 -----
 Structure from the checkpoint file:  "Grambow2020_wb97xd3_008666_reverse_mol1.chk"
 Charge =  0 Multiplicity = 1

                         Standard orientation:
 ---------------------------------------------------------------------
 Center     Atomic      Atomic             Coordinates (Angstroms)
 Number     Number       Type             X           Y           Z
 ---------------------------------------------------------------------
      1          6           0       -1.893976    0.411700   -0.883082
      2          6           0       -0.896763   -0.172897   -0.023228
      3          8           0       -1.150646   -0.372179    1.285434
      4          6           0        0.130660   -1.124219   -0.566163
      5          6           0        1.484268   -0.892796    0.090250
      6          6           0        1.814448    0.582614   -0.137227
      7          6           0        0.581300    1.394546    0.201079
      8          1           0       -2.756260    0.867366   -0.410261
      9          1           0       -2.016166   -0.008186   -1.871178
     10          1           0       -0.714777    1.131820   -0.556832
     11          1           0       -2.003819    0.018369    1.493977
     12          1           0       -0.258952   -2.129827   -0.390491
     13          1           0        0.204830   -0.973226   -1.645023
     14          1           0        1.413708   -1.106271    1.160266
     15          1           0        2.242658   -1.558741   -0.326758
     16          1           0        2.075715    0.725997   -1.191120
     17          1           0        2.695185    0.877911    0.442120
     18          1           0        0.536458    2.346636   -0.344478
     19          1           0        0.466960    1.591899    1.266529
 ---------------------------------------------------------------------

 SCF Done:  E(RHF) =  -309.239675062     A.U. after    2 cycles

 The electronic state is 1-A.
 Alpha  occ. eigenvalues --  -20.59607 -11.37936 -11.24583 -11.22870 -11.22086
 Alpha  occ. eigenvalues --  -11.19738 -11.19413  -1.52263  -1.12410  -1.03452
 Alpha  occ. eigenvalues --   -0.97803  -0.88346  -0.81051  -0.78862  -0.70306
 Alpha  occ. eigenvalues --   -0.67166  -0.64833  -0.62263  -0.60166  -0.58773
 Alpha  occ. eigenvalues --   -0.54404  -0.52765  -0.51898  -0.49391  -0.48614
 Alpha  occ. eigenvalues --   -0.47336  -0.44303  -0.26229
 Alpha virt. eigenvalues --    0.03311   0.03689   0.03940   0.04289   0.05805
 Alpha virt. eigenvalues --    0.06034   0.06346   0.06665   0.07060   0.09048
 Alpha virt. eigenvalues --    0.09355   0.10228   0.12612   0.13848   0.13975

 Mulliken charges:
               1
     1  C   -0.380395
     2  C    1.315038
     3  O   -1.583219
     4  C   -0.369957
     5  C   -0.146552
     6  C   -0.222716
     7  C   -0.567611
     8  H   -0.089527
     9  H   -0.094033
    10  H    0.959938
    11  H    0.322805
    12  H    0.171890
    13  H    0.154310
    14  H    0.134321
    15  H    0.118883
    16  H    0.116666
    17  H    0.089385
    18  H    0.043321
    19  H    0.027457
 Sum of Mulliken charges =  -0.00000

 Dipole moment (field-independent basis, Debye):
    X=             -0.2832    Y=             -0.8187    Z=              0.3256  Tot=              0.9254

 Test job not archived.
 1\1\GINC-SE058\SP\RHF\Aug-CC-pVDZ\C6H12O1\OHZDE\09-Apr-2025\0\\#t hf a
 ug-cc-pvdz iop(5/13=1,5/36=2,99/5=2) pseudo=read geom=check guess=(rea
 d,tcheck) scf=(maxcycle=1)\\title\\0,1\C,0,1.97175334,-0.4739254,-0.73
 807596\C,0,1.01454178,0.15331884,0.13705133\O,0,1.25721431,0.25540004,
 1.45896441\C,0,0.0918582,1.22533474,-0.36775084\C,0,-1.29136956,1.0860
 6741,0.25190734\C,0,-1.751917,-0.33705106,-0.06468303\C,0,-0.60705475,
 -1.27851651,0.24719693\H,0,2.77754641,-1.03386857,-0.27776488\H,0,2.15
 387504,-0.01348487,-1.69848936\H,0,0.72401985,-1.09713515,-0.4729491\H

 Normal termination of Gaussian 16 at Wed Apr  9 03:59:18 2025.
