 Gaussian 16, Revision C.01,

 ----------------------------------------------------------------------
 #t hf aug-cc-pvdz symm=none int=(grid=ultrafine) guess=(read,tcheck) s
 table=(opt,rrhf)
 ----------------------------------------------------------------------
 -----
 title
 -----
 Symbolic Z-matrix:
 Charge =  0 Multiplicity = 1

 SCF Done:  E(RHF) =  -302.753612593     A.U. after   15 cycles
 Normal termination of Gaussian 16 at Wed Apr  9 19:12:01 2025.
 Gaussian 16:  ES64L-G16RevC.01  3-Jul-2019

 ----------------------------------------------------------------------
 #t hf aug-cc-pvdz iop(5/13=1,5/36=2,99/5=2) pseudo=read geom=check gue
 ss=(read,tcheck) scf=(maxcycle=1)
 ----------------------------------------------------------------------
 -----
 title
 -----
 Structure from the checkpoint file:  "Grambow2020_wb97xd3_008879_reverse_mol1.chk"
 Charge =  0 Multiplicity = 1

                         Standard orientation:
 ---------------------------------------------------------------------
 Center     Atomic      Atomic             Coordinates (Angstroms)
 Number     Number       Type             X           Y           Z
 ---------------------------------------------------------------------
      1          6           0       -2.502780   -0.388364    0.023370
      2          7           0       -1.098062   -0.062177   -0.031773
      3          6           0       -0.578591    1.219087   -0.009849
      4          6           0        0.799167    1.176893    0.012404
      5          6           0        1.052033   -0.204841    0.012056
      6          7           0        2.500249   -0.353002    0.004973
      7          6           0       -0.080527   -0.974943   -0.014010
      8          1           0       -3.073046    0.403716   -0.461076
      9          1           0       -2.690254   -1.319995   -0.510225
     10          1           0       -2.852592   -0.492171    1.053392
     11          1           0       -1.269826    2.050581   -0.021683
     12          1           0        2.389239    0.857794    0.008658
     13          1           0        2.904602   -0.755272   -0.834237
     14          1           0        2.912786   -0.769361    0.833159
     15          1           0       -0.272024   -2.036034   -0.024210
 ---------------------------------------------------------------------

 SCF Done:  E(RHF) =  -303.074950975     A.U. after    2 cycles

 The electronic state is 1-A.
 Alpha  occ. eigenvalues --  -15.58928 -15.52559 -11.26780 -11.24901 -11.23228
 Alpha  occ. eigenvalues --  -11.21874 -11.14519  -1.29111  -1.26036  -1.05612
 Alpha  occ. eigenvalues --   -0.96356  -0.93377  -0.81169  -0.77244  -0.76596
 Alpha  occ. eigenvalues --   -0.71474  -0.65909  -0.63874  -0.62724  -0.57862
 Alpha  occ. eigenvalues --   -0.55353  -0.52293  -0.49475  -0.33895  -0.32732
 Alpha  occ. eigenvalues --   -0.27992
 Alpha virt. eigenvalues --    0.01964   0.03814   0.04625   0.04984   0.05573
 Alpha virt. eigenvalues --    0.05692   0.06527   0.08457   0.10061   0.10887
 Alpha virt. eigenvalues --    0.11964   0.12802   0.13399   0.14696   0.15209

 Mulliken charges:
               1
     1  C   -0.341562
     2  N    0.723950
     3  C   -0.338782
     4  C   -0.621224
     5  C   -0.874851
     6  N    0.170274
     7  C    0.164451
     8  H    0.077511
     9  H    0.073396
    10  H    0.178891
    11  H   -0.230601
    12  H    0.535186
    13  H    0.387109
    14  H    0.391054
    15  H   -0.294803
 Sum of Mulliken charges =   0.00000

 Dipole moment (field-independent basis, Debye):
    X=              1.3675    Y=             -4.4199    Z=             -0.0336  Tot=              4.6268

 Test job not archived.
 1\1\GINC-SE104\SP\RHF\Aug-CC-pVDZ\C5H8N2\OHZDE\09-Apr-2025\0\\#t hf au
 g-cc-pvdz iop(5/13=1,5/36=2,99/5=2) pseudo=read geom=check guess=(read
 ,tcheck) scf=(maxcycle=1)\\title\\0,1\C,0,2.38607634,0.15829099,0.0378
 824\N,0,0.96636104,-0.09974337,0.01556239\C,0,0.3730118,-1.30605209,0.
 33917063\C,0,-1.00012571,-1.18994793,0.30035931\C,0,-1.17226555,0.1579
 7436,-0.05545715\N,0,-2.60891893,0.372643,-0.15175444\C,0,0.00339896,0
 .838263,-0.23280045\H,0,2.92001154,-0.75819028,-0.21163116\H,0,2.63913
 835,0.91445814,-0.70506953\H,0,2.71835295,0.50074895,1.02094128\H,0,1.

 Normal termination of Gaussian 16 at Wed Apr  9 19:12:06 2025.
