 Gaussian 16, Revision C.01,

 ----------------------------------------------------------------------
 #t hf aug-cc-pvdz symm=none int=(grid=ultrafine) guess=(read,tcheck) s
 table=(opt,rrhf)
 ----------------------------------------------------------------------
 -----
 title
 -----
 Symbolic Z-matrix:
 Charge =  0 Multiplicity = 1

 SCF Done:  E(RHF) =  -338.554677485     A.U. after   15 cycles
 Normal termination of Gaussian 16 at Wed Apr  9 18:41:31 2025.
 Gaussian 16:  ES64L-G16RevC.01  3-Jul-2019

 ----------------------------------------------------------------------
 #t hf aug-cc-pvdz iop(5/13=1,5/36=2,99/5=2) pseudo=read geom=check gue
 ss=(read,tcheck) scf=(maxcycle=1)
 ----------------------------------------------------------------------
 -----
 title
 -----
 Structure from the checkpoint file:  "Grambow2020_wb97xd3_007973_forward_mol1.chk"
 Charge =  0 Multiplicity = 1

                         Standard orientation:
 ---------------------------------------------------------------------
 Center     Atomic      Atomic             Coordinates (Angstroms)
 Number     Number       Type             X           Y           Z
 ---------------------------------------------------------------------
      1          7           0        1.538111   -1.544273    0.067675
      2          6           0        0.679099   -0.743869   -0.135236
      3          8           0        1.528610    0.895272   -0.293506
      4          6           0        0.334785    1.349224    0.311667
      5          6           0       -0.514277    0.109272    0.053453
      6          6           0       -1.759848   -0.074693   -0.719287
      7          7           0       -1.715326   -0.311722    0.717947
      8          1           0        2.038509   -0.381904    0.052195
      9          1           0        0.429675    1.548101    1.385617
     10          1           0       -0.052281    2.237103   -0.191935
     11          1           0       -1.819371   -0.923097   -1.391990
     12          1           0       -2.311411    0.806089   -1.024440
     13          1           0       -1.712059   -1.296112    0.955661
 ---------------------------------------------------------------------

 SCF Done:  E(RHF) =  -338.905327794     A.U. after    2 cycles

 The electronic state is 1-A.
 Alpha  occ. eigenvalues --  -20.50872 -15.54653 -15.54574 -11.38830 -11.32864
 Alpha  occ. eigenvalues --  -11.30679 -11.29774  -1.42671  -1.32155  -1.29458
 Alpha  occ. eigenvalues --   -1.02351  -0.93709  -0.88905  -0.79926  -0.73790
 Alpha  occ. eigenvalues --   -0.68133  -0.66733  -0.65355  -0.60895  -0.57547
 Alpha  occ. eigenvalues --   -0.56701  -0.54310  -0.51603  -0.46576  -0.41389
 Alpha  occ. eigenvalues --   -0.40826
 Alpha virt. eigenvalues --    0.02872   0.04083   0.04657   0.05155   0.05964
 Alpha virt. eigenvalues --    0.06403   0.08542   0.09120   0.09965   0.11118
 Alpha virt. eigenvalues --    0.12267   0.13207   0.13435   0.14548   0.14857

 Mulliken charges:
               1
     1  N    0.831902
     2  C   -1.505062
     3  O   -1.539028
     4  C    0.594929
     5  C   -1.172289
     6  C    0.787730
     7  N    0.649792
     8  H    0.880834
     9  H    0.210132
    10  H    0.086636
    11  H   -0.027760
    12  H   -0.031095
    13  H    0.233278
 Sum of Mulliken charges =  -0.00000

 Dipole moment (field-independent basis, Debye):
    X=             -3.3149    Y=             -0.0609    Z=             -0.6751  Tot=              3.3835

 Test job not archived.
 1\1\GINC-SE168\SP\RHF\Aug-CC-pVDZ\C4H6N2O1\OHZDE\09-Apr-2025\0\\#t hf
 aug-cc-pvdz iop(5/13=1,5/36=2,99/5=2) pseudo=read geom=check guess=(re
 ad,tcheck) scf=(maxcycle=1)\\title\\0,1\N,0,1.88185041,-1.36377225,-0.
 9178599\C,0,0.94568599,-0.65930362,-0.70097017\O,0,1.62663263,1.049885
 19,-0.4807723\C,0,0.55758869,1.14324856,0.43898388\C,0,-0.2381211,-0.0
 6486565,-0.04306228\C,0,-1.6021187,-0.17365377,-0.59992131\N,0,-1.2407
 2589,-0.81776056,0.65639403\H,0,2.28552994,-0.19379246,-0.65341958\H,0
 ,0.86149854,1.02575228,1.48576889\H,0,0.01252891,2.08154126,0.31947682

 Normal termination of Gaussian 16 at Wed Apr  9 18:41:35 2025.
