 Gaussian 16, Revision C.01,

 ----------------------------------------------------------------------
 #t hf aug-cc-pvdz symm=none int=(grid=ultrafine) guess=(read,tcheck) s
 table=(opt,rrhf)
 ----------------------------------------------------------------------
 -----
 title
 -----
 Symbolic Z-matrix:
 Charge =  0 Multiplicity = 1

 SCF Done:  E(RHF) =  -281.711023114     A.U. after   12 cycles
 Normal termination of Gaussian 16 at Wed Apr  9 03:07:35 2025.
 Gaussian 16:  ES64L-G16RevC.01  3-Jul-2019

 ----------------------------------------------------------------------
 #t hf aug-cc-pvdz iop(5/13=1,5/36=2,99/5=2) pseudo=read geom=check gue
 ss=(read,tcheck) scf=(maxcycle=1)
 ----------------------------------------------------------------------
 -----
 title
 -----
 Structure from the checkpoint file:  "Grambow2020_b97d3_006582_forward_mol2.chk"
 Charge =  0 Multiplicity = 1

                         Standard orientation:
 ---------------------------------------------------------------------
 Center     Atomic      Atomic             Coordinates (Angstroms)
 Number     Number       Type             X           Y           Z
 ---------------------------------------------------------------------
      1          8           0        2.304951   -0.229104   -0.000597
      2          6           0        1.234892    0.347440   -0.000115
      3          7           0       -0.000066   -0.298185    0.000954
      4          6           0       -1.234916    0.347219    0.000519
      5          8           0       -2.305194   -0.228915   -0.000979
      6          1           0        1.121370    1.451524   -0.000528
      7          1           0        0.001046   -1.319101    0.002460
      8          1           0       -1.119867    1.451070    0.001568
 ---------------------------------------------------------------------

 SCF Done:  E(RHF) =  -281.986145858     A.U. after    2 cycles

 The electronic state is 1-A.
 Alpha  occ. eigenvalues --  -20.56451 -20.56448 -15.58391 -11.40881 -11.40848
 Alpha  occ. eigenvalues --   -1.50527  -1.49504  -1.28719  -0.95092  -0.90971
 Alpha  occ. eigenvalues --   -0.76822  -0.72571  -0.66982  -0.65607  -0.65337
 Alpha  occ. eigenvalues --   -0.55774  -0.49400  -0.46148  -0.45630
 Alpha virt. eigenvalues --    0.02829   0.04738   0.05497   0.06707   0.09708
 Alpha virt. eigenvalues --    0.10392   0.10617   0.10639   0.12215   0.14389
 Alpha virt. eigenvalues --    0.14721   0.14834   0.17560   0.18405   0.20647

 Mulliken charges:
               1
     1  O   -1.021076
     2  C    0.587598
     3  N    0.521074
     4  C    0.587880
     5  O   -1.021204
     6  H    0.122026
     7  H    0.101479
     8  H    0.122222
 Sum of Mulliken charges =  -0.00000

 Dipole moment (field-independent basis, Debye):
    X=              0.0030    Y=              2.0497    Z=              0.0061  Tot=              2.0497

 Test job not archived.
 1\1\GINC-SE080\SP\RHF\Aug-CC-pVDZ\C2H3N1O2\OHZDE\09-Apr-2025\0\\#t hf
 aug-cc-pvdz iop(5/13=1,5/36=2,99/5=2) pseudo=read geom=check guess=(re
 ad,tcheck) scf=(maxcycle=1)\\title\\0,1\O,0,-2.33481396,0.18668619,-0.
 03417062\C,0,-1.197517,-0.1445858,-0.30664785\N,0,-0.06780669,0.312451
 28,0.36924121\C,0,1.24192666,-0.05631244,0.06921967\O,0,2.21884575,0.3
 5227424,0.6659708\H,0,-0.93140206,-0.84740197,-1.1234234\H,0,-0.211370
 75,0.96519013,1.14098944\H,0,1.28213806,-0.76830163,-0.78117926\\Versi
 on=ES64L-G16RevC.01\State=1-A\HF=-281.9861459\RMSD=1.166e-02\Dipole=0.

 Normal termination of Gaussian 16 at Wed Apr  9 03:07:37 2025.
