 Gaussian 16, Revision C.01,

 ----------------------------------------------------------------------
 #t hf aug-cc-pvdz symm=none int=(grid=ultrafine) guess=(read,tcheck) s
 table=(opt,rrhf)
 ----------------------------------------------------------------------
 -----
 title
 -----
 Symbolic Z-matrix:
 Charge =  0 Multiplicity = 1

 SCF Done:  E(RHF) =  -360.813482536     A.U. after   15 cycles
 Normal termination of Gaussian 16 at Wed Apr  9 03:58:46 2025.
 Gaussian 16:  ES64L-G16RevC.01  3-Jul-2019

 ----------------------------------------------------------------------
 #t hf aug-cc-pvdz iop(5/13=1,5/36=2,99/5=2) pseudo=read geom=check gue
 ss=(read,tcheck) scf=(maxcycle=1)
 ----------------------------------------------------------------------
 -----
 title
 -----
 Structure from the checkpoint file:  "Grambow2020_wb97xd3_008681_reverse_mol1.chk"
 Charge =  0 Multiplicity = 1

                         Standard orientation:
 ---------------------------------------------------------------------
 Center     Atomic      Atomic             Coordinates (Angstroms)
 Number     Number       Type             X           Y           Z
 ---------------------------------------------------------------------
      1          6           0       -2.966979   -0.165608    0.473854
      2          7           0       -1.859462    0.284413   -0.343339
      3          6           0       -0.640638   -0.660797   -0.416525
      4          6           0        0.558832    0.055031   -0.113990
      5          8           0        0.619449    1.272257   -0.009011
      6          8           0        1.638119   -0.739550    0.009673
      7          6           0        2.871141   -0.066416    0.227195
      8          1           0       -3.333489   -1.119132    0.092816
      9          1           0       -3.780338    0.558022    0.428464
     10          1           0       -2.649621   -0.304485    1.512204
     11          1           0       -1.477442    1.204645   -0.135319
     12          1           0       -1.475602   -0.189600   -1.346729
     13          1           0       -0.829241   -1.647710   -0.022064
     14          1           0        3.628565   -0.845365    0.278176
     15          1           0        2.848490    0.498809    1.159769
     16          1           0        3.090227    0.619005   -0.592447
 ---------------------------------------------------------------------

 SCF Done:  E(RHF) =  -361.188978535     A.U. after    2 cycles

 The electronic state is 1-A.
 Alpha  occ. eigenvalues --  -20.56933 -20.50330 -15.55719 -11.36407 -11.28884
 Alpha  occ. eigenvalues --  -11.28041 -11.23670  -1.52433  -1.42451  -1.26544
 Alpha  occ. eigenvalues --   -1.02291  -0.96936  -0.89378  -0.80257  -0.74997
 Alpha  occ. eigenvalues --   -0.70749  -0.66739  -0.66275  -0.65361  -0.62128
 Alpha  occ. eigenvalues --   -0.58366  -0.57380  -0.54073  -0.51223  -0.50426
 Alpha  occ. eigenvalues --   -0.44021  -0.43022  -0.32466
 Alpha virt. eigenvalues --    0.03106   0.04342   0.04567   0.04855   0.05600
 Alpha virt. eigenvalues --    0.06039   0.06780   0.07222   0.08554   0.10546
 Alpha virt. eigenvalues --    0.11071   0.11556   0.14108   0.15295   0.15618

 Mulliken charges:
               1
     1  C   -0.416596
     2  N    0.120722
     3  C   -1.217857
     4  C    2.540211
     5  O   -1.310618
     6  O   -1.302676
     7  C    0.197838
     8  H    0.083256
     9  H    0.068178
    10  H    0.212934
    11  H    0.235108
    12  H    0.648729
    13  H   -0.171142
    14  H   -0.005159
    15  H    0.159593
    16  H    0.157480
 Sum of Mulliken charges =   0.00000

 Dipole moment (field-independent basis, Debye):
    X=             -2.3461    Y=             -0.9242    Z=              0.8615  Tot=              2.6646

 Test job not archived.
 1\1\GINC-SE329\SP\RHF\Aug-CC-pVDZ\C4H9N1O2\OHZDE\09-Apr-2025\0\\#t hf
 aug-cc-pvdz iop(5/13=1,5/36=2,99/5=2) pseudo=read geom=check guess=(re
 ad,tcheck) scf=(maxcycle=1)\\title\\0,1\C,0,-2.75256263,0.31895894,0.1
 2152278\N,0,-1.62407715,-0.58079677,0.23932371\C,0,-0.36774018,-0.0085
 0193,0.93099236\C,0,0.7869354,-0.22649874,0.11743978\O,0,0.79551425,-0
 .93441788,-0.88011318\O,0,1.88849105,0.39633583,0.57587554\C,0,3.08249
 555,0.14168394,-0.15232223\H,0,-3.06290522,0.64185082,1.115583\H,0,-3.
 58986001,-0.19488403,-0.34980819\H,0,-2.48185029,1.20382606,-0.4631971

 Normal termination of Gaussian 16 at Wed Apr  9 03:58:51 2025.
