 Gaussian 16, Revision C.01,

 ----------------------------------------------------------------------
 #t hf aug-cc-pvdz symm=none int=(grid=ultrafine) guess=(read,tcheck) s
 table=(opt,rrhf)
 ----------------------------------------------------------------------
 -----
 title
 -----
 Symbolic Z-matrix:
 Charge =  0 Multiplicity = 1

 SCF Done:  E(RHF) =  -285.931157614     A.U. after   15 cycles
 Normal termination of Gaussian 16 at Wed Apr  9 03:21:12 2025.
 Gaussian 16:  ES64L-G16RevC.01  3-Jul-2019

 ----------------------------------------------------------------------
 #t hf aug-cc-pvdz iop(5/13=1,5/36=2,99/5=2) pseudo=read geom=check gue
 ss=(read,tcheck) scf=(maxcycle=1)
 ----------------------------------------------------------------------
 -----
 title
 -----
 Structure from the checkpoint file:  "Grambow2020_wb97xd3_006065_forward_mol1.chk"
 Charge =  0 Multiplicity = 1

                         Standard orientation:
 ---------------------------------------------------------------------
 Center     Atomic      Atomic             Coordinates (Angstroms)
 Number     Number       Type             X           Y           Z
 ---------------------------------------------------------------------
      1          6           0       -1.383012   -0.671456    0.802828
      2          6           0       -1.644554    0.374073   -0.274496
      3          6           0       -0.297768    1.072956   -0.350469
      4          6           0        0.728077    0.001163   -0.071590
      5          8           0        0.753278   -1.167037   -0.692982
      6          7           0        1.877450    0.357902    0.470970
      7          1           0       -0.149286   -1.451060   -0.272861
      8          1           0       -2.118328   -1.481737    0.834569
      9          1           0       -1.346134   -0.213804    1.796366
     10          1           0       -1.861212   -0.103589   -1.234687
     11          1           0       -2.450772    1.098751   -0.100197
     12          1           0       -0.045716    1.558533   -1.303310
     13          1           0       -0.215863    1.826862    0.437324
     14          1           0        2.594684   -0.337033    0.591667
     15          1           0        2.007803    1.273648    0.860559
 ---------------------------------------------------------------------

 SCF Done:  E(RHF) =  -286.232511036     A.U. after    2 cycles

 The electronic state is 1-A.
 Alpha  occ. eigenvalues --  -20.57062 -15.58017 -11.41869 -11.25539 -11.20957
 Alpha  occ. eigenvalues --  -11.13844  -1.51871  -1.28709  -1.08227  -0.93907
 Alpha  occ. eigenvalues --   -0.87336  -0.81634  -0.76408  -0.72263  -0.69810
 Alpha  occ. eigenvalues --   -0.64372  -0.61187  -0.56104  -0.53658  -0.52535
 Alpha  occ. eigenvalues --   -0.49282  -0.45388  -0.44553  -0.25821
 Alpha virt. eigenvalues --    0.01786   0.03968   0.04367   0.05403   0.05905
 Alpha virt. eigenvalues --    0.06585   0.06955   0.07558   0.09572   0.10346
 Alpha virt. eigenvalues --    0.11117   0.11915   0.13619   0.14513   0.15274

 Mulliken charges:
               1
     1  C   -0.270800
     2  C   -0.192515
     3  C   -0.173653
     4  C   -0.046228
     5  O   -1.476321
     6  N    0.956618
     7  H    0.609046
     8  H   -0.079328
     9  H   -0.109312
    10  H    0.077465
    11  H    0.055360
    12  H    0.184582
    13  H    0.157077
    14  H    0.165657
    15  H    0.142352
 Sum of Mulliken charges =   0.00000

 Dipole moment (field-independent basis, Debye):
    X=              4.1360    Y=              3.1231    Z=             -0.0649  Tot=              5.1831

 Test job not archived.
 1\1\GINC-SE341\SP\RHF\Aug-CC-pVDZ\C4H9N1O1\OHZDE\09-Apr-2025\0\\#t hf
 aug-cc-pvdz iop(5/13=1,5/36=2,99/5=2) pseudo=read geom=check guess=(re
 ad,tcheck) scf=(maxcycle=1)\\title\\0,1\C,0,1.42183552,0.58749275,-0.0
 3195848\C,0,1.03138851,-0.71362797,-0.72246434\C,0,-0.33542204,-0.9796
 6537,-0.1149321\C,0,-0.9468557,0.38178567,0.11193911\O,0,-1.00510163,1
 .3219026,-0.81770794\N,0,-1.82506898,0.52112715,1.08765386\H,0,0.02555
 736,1.41759088,-0.8371383\H,0,2.24280064,1.12699673,-0.51486897\H,0,1.
 70439511,0.41166145,1.01071481\H,0,0.92717249,-0.56454778,-1.80134431\

 Normal termination of Gaussian 16 at Wed Apr  9 03:21:16 2025.
