 Gaussian 16, Revision C.01,

 ----------------------------------------------------------------------
 #t hf aug-cc-pvdz symm=none int=(grid=ultrafine) guess=(read,tcheck) s
 table=(opt,rrhf)
 ----------------------------------------------------------------------
 -----
 title
 -----
 Symbolic Z-matrix:
 Charge =  0 Multiplicity = 1

 SCF Done:  E(RHF) =  -358.407625075     A.U. after   16 cycles
 Normal termination of Gaussian 16 at Wed Apr  9 17:44:21 2025.
 Gaussian 16:  ES64L-G16RevC.01  3-Jul-2019

 ----------------------------------------------------------------------
 #t hf aug-cc-pvdz iop(5/13=1,5/36=2,99/5=2) pseudo=read geom=check gue
 ss=(read,tcheck) scf=(maxcycle=1)
 ----------------------------------------------------------------------
 -----
 title
 -----
 Structure from the checkpoint file:  "Grambow2020_wb97xd3_006798_reverse_mol1.chk"
 Charge =  0 Multiplicity = 1

                         Standard orientation:
 ---------------------------------------------------------------------
 Center     Atomic      Atomic             Coordinates (Angstroms)
 Number     Number       Type             X           Y           Z
 ---------------------------------------------------------------------
      1          8           0       -2.649888   -0.415579    0.107063
      2          6           0       -1.413999   -0.642045    0.247263
      3          6           0       -0.726196    0.403392   -0.439868
      4          6           0        0.170395    1.313605    0.396300
      5          7           0        0.704163    0.467290   -0.610936
      6          6           0        1.601573   -0.550742   -0.364485
      7          8           0        2.480065   -0.508594    0.455153
      8          1           0       -1.084677   -1.530231    0.788845
      9          1           0       -2.270747    0.483349   -0.587546
     10          1           0        0.402515    1.052362    1.424690
     11          1           0        0.127462    2.372173    0.172665
     12          1           0        1.464253   -1.400569   -1.055080
 ---------------------------------------------------------------------

 SCF Done:  E(RHF) =  -358.767308514     A.U. after    2 cycles

 The electronic state is 1-A.
 Alpha  occ. eigenvalues --  -20.62426 -20.54306 -15.54029 -11.39902 -11.37272
 Alpha  occ. eigenvalues --  -11.30382 -11.27097  -1.56034  -1.48828  -1.31933
 Alpha  occ. eigenvalues --   -1.03617  -0.97178  -0.86216  -0.82909  -0.77298
 Alpha  occ. eigenvalues --   -0.72093  -0.68220  -0.66444  -0.62029  -0.60267
 Alpha  occ. eigenvalues --   -0.56355  -0.53790  -0.51667  -0.45422  -0.44321
 Alpha  occ. eigenvalues --   -0.36071
 Alpha virt. eigenvalues --    0.03095   0.03648   0.04129   0.05108   0.05849
 Alpha virt. eigenvalues --    0.06024   0.08880   0.09211   0.09922   0.10268
 Alpha virt. eigenvalues --    0.12660   0.13403   0.13898   0.14367   0.15096

 Mulliken charges:
               1
     1  O   -1.214222
     2  C    1.327826
     3  C   -1.287182
     4  C    0.177238
     5  N    0.786944
     6  C    0.722805
     7  O   -1.056723
     8  H    0.037429
     9  H    0.525945
    10  H   -0.060890
    11  H   -0.054653
    12  H    0.095483
 Sum of Mulliken charges =  -0.00000

 Dipole moment (field-independent basis, Debye):
    X=             -2.3264    Y=             -1.0230    Z=              0.7684  Tot=              2.6550

 Test job not archived.
 1\1\GINC-SE103\SP\RHF\Aug-CC-pVDZ\C4H5N1O2\OHZDE\09-Apr-2025\0\\#t hf
 aug-cc-pvdz iop(5/13=1,5/36=2,99/5=2) pseudo=read geom=check guess=(re
 ad,tcheck) scf=(maxcycle=1)\\title\\0,1\O,0,2.59173719,0.17187011,-0.1
 4570812\C,0,1.43858576,-0.28135296,-0.39709795\C,0,0.55949715,0.271260
 71,0.5826897\C,0,-0.56762155,1.16974774,0.07884241\N,0,-0.83504076,-0.
 07030128,0.71637387\C,0,-1.47849584,-1.12643296,0.1056158\O,0,-2.38258
 399,-1.0187064,-0.67946342\H,0,1.30087613,-0.98330213,-1.22107625\H,0,
 2.04711871,0.66237376,0.80144413\H,0,-0.7834829,1.22692775,-0.98410069

 Normal termination of Gaussian 16 at Wed Apr  9 17:44:26 2025.
