 Gaussian 16, Revision C.01,

 ----------------------------------------------------------------------
 #t hf aug-cc-pvdz symm=none int=(grid=ultrafine) guess=(read,tcheck) s
 table=(opt,rrhf)
 ----------------------------------------------------------------------
 -----
 title
 -----
 Symbolic Z-matrix:
 Charge =  0 Multiplicity = 1

 SCF Done:  E(RHF) =  -288.989447220     A.U. after   14 cycles

 1\1\GINC-SE273\Stability\RHF\Aug-CC-pVDZ\C6H13N1\OHZDE\09-Apr-2025\0\\
 #t hf aug-cc-pvdz symm=none int=(grid=ultrafine) guess=(read,tcheck) s
 table=(opt,rrhf)\\title\\0,1\C,0,-1.18797583,1.73938669,0.61132538\C,0
 ,-0.68728187,0.33212438,0.75531076\N,0,-0.73762956,-0.54996945,-0.4128
 7459\C,0,-1.26203362,-1.89917957,-0.31784719\C,0,0.50686581,-0.2745797
 5,0.1504491\C,0,1.57699432,-1.09059236,0.60239901\C,0,1.31071708,1.148
 89564,-1.15641631\H,0,-2.25441067,1.77780246,0.84120107\H,0,-0.6689812
 9,2.40422654,1.30470436\H,0,-1.04458368,2.10463016,-0.40294687\H,0,-0.

 Normal termination of Gaussian 16 at Wed Apr  9 04:05:20 2025.
 Gaussian 16:  ES64L-G16RevC.01  3-Jul-2019

 ----------------------------------------------------------------------
 #t hf aug-cc-pvdz iop(5/13=1,5/36=2,99/5=2) pseudo=read geom=check gue
 ss=(read,tcheck) scf=(maxcycle=1)
 ----------------------------------------------------------------------
 -----
 title
 -----
 Structure from the checkpoint file:  "Grambow2020_wb97xd3_009133_reverse_mol1.chk"
 Charge =  0 Multiplicity = 1

                         Standard orientation:
 ---------------------------------------------------------------------
 Center     Atomic      Atomic             Coordinates (Angstroms)
 Number     Number       Type             X           Y           Z
 ---------------------------------------------------------------------
      1          6           0       -1.523754   -1.567435    0.327722
      2          6           0       -0.237025   -0.840057    0.586688
      3          7           0        0.596820   -0.466837   -0.558166
      4          6           0        2.024866   -0.721803   -0.566824
      5          6           0        0.103752    0.550834    0.256189
      6          6           0        0.710595    1.641163    0.933119
      7          6           0       -1.493690    1.314617   -0.859683
      8          1           0       -1.345441   -2.644371    0.323775
      9          1           0       -2.252545   -1.348759    1.110784
     10          1           0       -1.944964   -1.288183   -0.635249
     11          1           0        0.302185   -1.165895    1.478343
     12          1           0        2.497751   -0.079725   -1.310825
     13          1           0        2.492798   -0.535625    0.405894
     14          1           0        2.189028   -1.759517   -0.857611
     15          1           0       -0.453034    1.751107    0.031181
     16          1           0        0.495343    1.786533    1.981628
     17          1           0        1.599232    2.083202    0.503074
     18          1           0       -1.325195    0.812720   -1.806965
     19          1           0       -1.536828    2.402058   -1.018414
     20          1           0       -2.404537    0.990398   -0.361720
 ---------------------------------------------------------------------

 SCF Done:  E(RHF) =  -289.311599474     A.U. after    2 cycles

 The electronic state is 1-A.
 Alpha  occ. eigenvalues --  -15.51833 -11.34162 -11.28776 -11.26420 -11.23850
 Alpha  occ. eigenvalues --  -11.21513 -11.18266  -1.31907  -1.05099  -1.02755
 Alpha  occ. eigenvalues --   -0.96890  -0.92006  -0.82430  -0.75115  -0.68654
 Alpha  occ. eigenvalues --   -0.68089  -0.63146  -0.61627  -0.57946  -0.57278
 Alpha  occ. eigenvalues --   -0.56610  -0.55225  -0.54144  -0.50581  -0.49426
 Alpha  occ. eigenvalues --   -0.47292  -0.42067  -0.26541
 Alpha virt. eigenvalues --    0.03465   0.03965   0.04101   0.04286   0.05446
 Alpha virt. eigenvalues --    0.05482   0.05729   0.05827   0.06500   0.09122
 Alpha virt. eigenvalues --    0.09322   0.10166   0.10429   0.12592   0.13074

 Mulliken charges:
               1
     1  C   -0.542801
     2  C   -0.391508
     3  N    1.025122
     4  C   -0.134803
     5  C   -0.601094
     6  C   -0.323796
     7  C   -0.768843
     8  H    0.165555
     9  H    0.279170
    10  H    0.173742
    11  H   -0.222331
    12  H    0.083694
    13  H    0.199011
    14  H    0.090133
    15  H    0.831916
    16  H   -0.070040
    17  H   -0.098708
    18  H    0.213157
    19  H   -0.117611
    20  H    0.210035
 Sum of Mulliken charges =  -0.00000

 Dipole moment (field-independent basis, Debye):
    X=              0.0225    Y=             -1.8693    Z=              0.4587  Tot=              1.9249

 Test job not archived.
 1\1\GINC-SE273\SP\RHF\Aug-CC-pVDZ\C6H13N1\OHZDE\09-Apr-2025\0\\#t hf a
 ug-cc-pvdz iop(5/13=1,5/36=2,99/5=2) pseudo=read geom=check guess=(rea
 d,tcheck) scf=(maxcycle=1)\\title\\0,1\C,0,-1.18797583,1.73938669,0.61
 132538\C,0,-0.68728187,0.33212438,0.75531076\N,0,-0.73762956,-0.549969
 45,-0.41287459\C,0,-1.26203362,-1.89917957,-0.31784719\C,0,0.50686581,
 -0.27457975,0.1504491\C,0,1.57699432,-1.09059236,0.60239901\C,0,1.3107
 1708,1.14889564,-1.15641631\H,0,-2.25441067,1.77780246,0.84120107\H,0,
 -0.66898129,2.40422654,1.30470436\H,0,-1.04458368,2.10463016,-0.402946

 Normal termination of Gaussian 16 at Wed Apr  9 04:05:29 2025.
