 Gaussian 16, Revision C.01,

 ----------------------------------------------------------------------
 #t hf aug-cc-pvdz symm=none int=(grid=ultrafine) guess=(read,tcheck) s
 table=(opt,rrhf)
 ----------------------------------------------------------------------
 -----
 title
 -----
 Symbolic Z-matrix:
 Charge =  0 Multiplicity = 1

 SCF Done:  E(RHF) =  -269.586142311     A.U. after   14 cycles
 Normal termination of Gaussian 16 at Wed Apr  9 17:23:39 2025.
 Gaussian 16:  ES64L-G16RevC.01  3-Jul-2019

 ----------------------------------------------------------------------
 #t hf aug-cc-pvdz iop(5/13=1,5/36=2,99/5=2) pseudo=read geom=check gue
 ss=(read,tcheck) scf=(maxcycle=1)
 ----------------------------------------------------------------------
 -----
 title
 -----
 Structure from the checkpoint file:  "Grambow2020_wb97xd3_006589_reverse_mol2.chk"
 Charge =  0 Multiplicity = 1

                         Standard orientation:
 ---------------------------------------------------------------------
 Center     Atomic      Atomic             Coordinates (Angstroms)
 Number     Number       Type             X           Y           Z
 ---------------------------------------------------------------------
      1          6           0        1.987376   -0.739277   -0.389960
      2          6           0        0.875897   -0.158088    0.482615
      3          6           0        0.545456    1.350445    0.169155
      4          6           0       -0.927700    1.362738   -0.247161
      5          6           0       -1.427999    0.130951   -0.182141
      6          6           0       -0.436268   -0.834873    0.256796
      7          6           0       -1.637507   -1.270631   -0.007459
      8          1           0        1.724534   -0.659594   -1.446454
      9          1           0        2.913339   -0.185083   -0.229858
     10          1           0        2.169116   -1.789605   -0.158890
     11          1           0        1.152079   -0.282632    1.532485
     12          1           0        0.736843    1.977782    1.046508
     13          1           0        1.207408    1.722868   -0.622038
     14          1           0       -1.446546    2.262937   -0.545853
     15          1           0       -2.332308   -2.094265   -0.066967
 ---------------------------------------------------------------------

 SCF Done:  E(RHF) =  -269.872065378     A.U. after    2 cycles

 The electronic state is 1-A.
 Alpha  occ. eigenvalues --  -11.29615 -11.27244 -11.26953 -11.24678 -11.24006
 Alpha  occ. eigenvalues --  -11.23065 -11.20382  -1.23245  -1.08562  -1.00176
 Alpha  occ. eigenvalues --   -0.89592  -0.85619  -0.76262  -0.70293  -0.67451
 Alpha  occ. eigenvalues --   -0.62620  -0.58883  -0.56775  -0.55257  -0.53159
 Alpha  occ. eigenvalues --   -0.51412  -0.49813  -0.47849  -0.38513  -0.28813
 Alpha virt. eigenvalues --    0.03189   0.03430   0.04204   0.04307   0.05529
 Alpha virt. eigenvalues --    0.06600   0.06896   0.07212   0.09719   0.10298
 Alpha virt. eigenvalues --    0.11339   0.11922   0.13763   0.13857   0.14224

 Mulliken charges:
               1
     1  C   -0.158148
     2  C   -1.142901
     3  C   -0.116656
     4  C    0.646361
     5  C   -0.269502
     6  C    0.560013
     7  C    0.053366
     8  H    0.214082
     9  H    0.158963
    10  H    0.123389
    11  H    0.211510
    12  H    0.156888
    13  H    0.129267
    14  H   -0.227203
    15  H   -0.339431
 Sum of Mulliken charges =  -0.00000

 Dipole moment (field-independent basis, Debye):
    X=              1.3123    Y=             -1.5407    Z=              0.5237  Tot=              2.0905

 Test job not archived.
 1\1\GINC-SE174\SP\RHF\Aug-CC-pVDZ\C7H8\OHZDE\09-Apr-2025\0\\#t hf aug-
 cc-pvdz iop(5/13=1,5/36=2,99/5=2) pseudo=read geom=check guess=(read,t
 check) scf=(maxcycle=1)\\title\\0,1\C,0,-0.67341661,-1.67313238,-0.675
 34753\C,0,0.20442255,-0.76711856,0.18667773\C,0,1.12302294,0.20585584,
 -0.64555777\C,0,0.70789129,1.61626371,-0.21885567\C,0,-0.24716009,1.54
 80342,0.70583282\C,0,-0.59917057,0.17499147,1.02182804\C,0,-1.23080153
 ,1.12744776,1.65155799\H,0,-1.31206228,-1.07622856,-1.32914678\H,0,-0.
 04728618,-2.30838362,-1.30350964\H,0,-1.31010895,-2.31295217,-0.063085

 Normal termination of Gaussian 16 at Wed Apr  9 17:23:44 2025.
