 Gaussian 16, Revision C.01,

 ----------------------------------------------------------------------
 #t hf aug-cc-pvdz symm=none int=(grid=ultrafine) guess=(read,tcheck) s
 table=(opt,rrhf)
 ----------------------------------------------------------------------
 -----
 title
 -----
 Symbolic Z-matrix:
 Charge =  0 Multiplicity = 1

 SCF Done:  E(RHF) =  -394.312645908     A.U. after   15 cycles
 Normal termination of Gaussian 16 at Wed Apr  9 04:05:26 2025.
 Gaussian 16:  ES64L-G16RevC.01  3-Jul-2019

 ----------------------------------------------------------------------
 #t hf aug-cc-pvdz iop(5/13=1,5/36=2,99/5=2) pseudo=read geom=check gue
 ss=(read,tcheck) scf=(maxcycle=1)
 ----------------------------------------------------------------------
 -----
 title
 -----
 Structure from the checkpoint file:  "Grambow2020_wb97xd3_009239_forward_mol1.chk"
 Charge =  0 Multiplicity = 1

                         Standard orientation:
 ---------------------------------------------------------------------
 Center     Atomic      Atomic             Coordinates (Angstroms)
 Number     Number       Type             X           Y           Z
 ---------------------------------------------------------------------
      1          6           0       -2.542133   -0.500973   -0.001410
      2          6           0       -1.292736    0.230626    0.002383
      3          7           0       -0.560017    1.155501    0.000844
      4          8           0        0.707602    1.256717   -0.000460
      5          6           0        1.294617   -0.421143    0.000065
      6          8           0        2.469474   -0.391218   -0.001490
      7          8           0        0.290134   -1.104225    0.001884
      8          1           0       -2.617130   -1.115585    0.894650
      9          1           0       -3.361675    0.219220   -0.019731
     10          1           0       -2.597233   -1.133396   -0.886530
 ---------------------------------------------------------------------

 SCF Done:  E(RHF) =  -394.699700515     A.U. after    2 cycles

 The electronic state is 1-A.
 Alpha  occ. eigenvalues --  -20.60462 -20.58107 -20.55294 -15.64705 -11.44188
 Alpha  occ. eigenvalues --  -11.40053 -11.32805  -1.58614  -1.52501  -1.48587
 Alpha  occ. eigenvalues --   -1.27183  -1.09043  -0.84463  -0.78449  -0.74743
 Alpha  occ. eigenvalues --   -0.72071  -0.71237  -0.68286  -0.65602  -0.64777
 Alpha  occ. eigenvalues --   -0.62703  -0.59689  -0.49363  -0.47702  -0.43918
 Alpha  occ. eigenvalues --   -0.43308
 Alpha virt. eigenvalues --    0.01770   0.03833   0.04198   0.05690   0.07437
 Alpha virt. eigenvalues --    0.09889   0.10199   0.10463   0.11413   0.11770
 Alpha virt. eigenvalues --    0.13223   0.13371   0.14559   0.14747   0.15400

 Mulliken charges:
               1
     1  C   -0.240761
     2  C   -0.718747
     3  N    1.491634
     4  O   -1.345394
     5  C    1.796712
     6  O   -0.950103
     7  O   -0.877622
     8  H    0.277921
     9  H    0.289221
    10  H    0.277139
 Sum of Mulliken charges =   0.00000

 Dipole moment (field-independent basis, Debye):
    X=             -7.4281    Y=             -1.1582    Z=             -0.0042  Tot=              7.5178

 Test job not archived.
 1\1\GINC-SE334\SP\RHF\Aug-CC-pVDZ\C3H3N1O3\OHZDE\09-Apr-2025\0\\#t hf
 aug-cc-pvdz iop(5/13=1,5/36=2,99/5=2) pseudo=read geom=check guess=(re
 ad,tcheck) scf=(maxcycle=1)\\title\\0,1\C,0,-1.724007,0.1775508,0.0209
 9546\C,0,-0.44352545,-0.44080685,0.29347588\N,0,0.33542667,-1.28854234
 ,0.55203232\O,0,1.59715793,-1.28689403,0.71057267\C,0,2.08258059,0.403
 482,0.45212739\O,0,3.2482715,0.46766452,0.5871529\O,0,1.04825164,0.992
 7052,0.21011277\H,0,-1.72448962,0.60908667,-0.97904047\H,0,-2.49697864
 ,-0.58972108,0.08785355\H,0,-1.92268762,0.95547511,0.75706053\\Version

 Normal termination of Gaussian 16 at Wed Apr  9 04:05:29 2025.
