 Gaussian 16, Revision C.01,

 ----------------------------------------------------------------------
 #t hf aug-cc-pvdz symm=none int=(grid=ultrafine) guess=(read,tcheck) s
 table=(opt,rrhf)
 ----------------------------------------------------------------------
 -----
 title
 -----
 Symbolic Z-matrix:
 Charge =  0 Multiplicity = 1

 SCF Done:  E(RHF) =  -333.531965965     A.U. after   18 cycles
 Normal termination of Gaussian 16 at Wed Apr  9 03:33:08 2025.
 Gaussian 16:  ES64L-G16RevC.01  3-Jul-2019

 ----------------------------------------------------------------------
 #t hf aug-cc-pvdz iop(5/13=1,5/36=2,99/5=2) pseudo=read geom=check gue
 ss=(read,tcheck) scf=(maxcycle=1)
 ----------------------------------------------------------------------
 -----
 title
 -----
 Structure from the checkpoint file:  "Grambow2020_wb97xd3_006995_reverse_mol1.chk"
 Charge =  0 Multiplicity = 1

                         Standard orientation:
 ---------------------------------------------------------------------
 Center     Atomic      Atomic             Coordinates (Angstroms)
 Number     Number       Type             X           Y           Z
 ---------------------------------------------------------------------
      1          7           0       -1.893142   -0.593462   -0.368574
      2          6           0       -0.707111   -0.060941    0.132178
      3          6           0       -0.505157    1.250732    0.613182
      4          7           0        0.108149    1.102224   -0.493297
      5          6           0        1.856371    0.214138   -0.382210
      6          7           0        1.351512   -0.778659    0.155084
      7          7           0        0.231333   -1.074003    0.632044
      8          1           0       -2.550748    0.095597   -0.694631
      9          1           0       -1.739798   -1.325437   -1.045597
     10          1           0       -0.535896    1.980770    1.413428
     11          1           0        2.376868    0.232793   -1.328902
 ---------------------------------------------------------------------

 SCF Done:  E(RHF) =  -333.868181249     A.U. after    2 cycles

 The electronic state is 1-A.
 Alpha  occ. eigenvalues --  -15.59588 -15.55418 -15.53647 -15.51407 -11.35479
 Alpha  occ. eigenvalues --  -11.32699 -11.30762  -1.41278  -1.32482  -1.21201
 Alpha  occ. eigenvalues --   -1.12974  -0.91907  -0.85924  -0.80418  -0.75235
 Alpha  occ. eigenvalues --   -0.73700  -0.70267  -0.67745  -0.63560  -0.59364
 Alpha  occ. eigenvalues --   -0.53972  -0.50501  -0.46440  -0.41944  -0.36542
 Alpha virt. eigenvalues --    0.03044   0.04011   0.04145   0.05163   0.06095
 Alpha virt. eigenvalues --    0.07306   0.08448   0.09774   0.10004   0.11093
 Alpha virt. eigenvalues --    0.12450   0.13408   0.13888   0.15419   0.15995

 Mulliken charges:
               1
     1  N    0.583146
     2  C   -1.378307
     3  C   -0.145847
     4  N    0.477125
     5  C   -0.163668
     6  N    0.222804
     7  N    0.022710
     8  H    0.158235
     9  H    0.252127
    10  H   -0.063629
    11  H    0.035304
 Sum of Mulliken charges =  -0.00000

 Dipole moment (field-independent basis, Debye):
    X=             -1.3697    Y=              2.8579    Z=             -1.5882  Tot=              3.5449

 Test job not archived.
 1\1\GINC-SE273\SP\RHF\Aug-CC-pVDZ\C3H4N4\OHZDE\09-Apr-2025\0\\#t hf au
 g-cc-pvdz iop(5/13=1,5/36=2,99/5=2) pseudo=read geom=check guess=(read
 ,tcheck) scf=(maxcycle=1)\\title\\0,1\N,0,1.65291038,-0.51046084,-0.65
 362464\C,0,0.49391999,0.15749777,-0.26430033\C,0,0.37120475,1.10244991
 ,0.77716152\N,0,-0.22095102,0.02394226,1.10680991\C,0,-2.02929601,-0.2
 0880549,0.37671839\N,0,-1.60967874,-0.09130899,-0.78057501\N,0,-0.5261
 2218,0.23515789,-1.31801762\H,0,2.36558824,-0.55042902,0.05634312\H,0,
 1.46710013,-1.41508985,-1.05955834\H,0,0.43129952,2.12047511,1.1436407

 Normal termination of Gaussian 16 at Wed Apr  9 03:33:13 2025.
