 Gaussian 16, Revision C.01,

 ----------------------------------------------------------------------
 #t hf aug-cc-pvdz symm=none int=(grid=ultrafine) guess=(read,tcheck) s
 table=(opt,rrhf)
 ----------------------------------------------------------------------
 -----
 title
 -----
 Symbolic Z-matrix:
 Charge =  0 Multiplicity = 1

 SCF Done:  E(RHF) =  -320.563189863     A.U. after   15 cycles
 Normal termination of Gaussian 16 at Wed Apr  9 16:07:41 2025.
 Gaussian 16:  ES64L-G16RevC.01  3-Jul-2019

 ----------------------------------------------------------------------
 #t hf aug-cc-pvdz iop(5/13=1,5/36=2,99/5=2) pseudo=read geom=check gue
 ss=(read,tcheck) scf=(maxcycle=1)
 ----------------------------------------------------------------------
 -----
 title
 -----
 Structure from the checkpoint file:  "Grambow2020_b97d3_007130_reverse_mol1.chk"
 Charge =  0 Multiplicity = 1

                         Standard orientation:
 ---------------------------------------------------------------------
 Center     Atomic      Atomic             Coordinates (Angstroms)
 Number     Number       Type             X           Y           Z
 ---------------------------------------------------------------------
      1          6           0        2.033599   -0.963099   -0.002218
      2          7           0        0.624144   -0.580589    0.002081
      3          6           0        0.183961    0.691043    0.003348
      4          8           0        0.838167    1.725808    0.000025
      5          6           0       -2.057491    0.320765   -0.003255
      6          8           0       -2.188551   -0.863123    0.000730
      7          1           0        2.618668   -0.037453   -0.032756
      8          1           0        2.295113   -1.526442    0.905356
      9          1           0        2.274237   -1.573033   -0.884892
     10          1           0       -0.088787   -1.306774    0.009282
     11          1           0       -1.625581    1.314079   -0.004845
 ---------------------------------------------------------------------

 SCF Done:  E(RHF) =  -320.880418858     A.U. after    2 cycles

 The electronic state is 1-A.
 Alpha  occ. eigenvalues --  -20.65603 -20.51549 -15.52816 -11.43634 -11.34376
 Alpha  occ. eigenvalues --  -11.27410  -1.57099  -1.44547  -1.23514  -0.97111
 Alpha  occ. eigenvalues --   -0.90973  -0.81486  -0.75435  -0.69854  -0.64669
 Alpha  occ. eigenvalues --   -0.63706  -0.63320  -0.61535  -0.55822  -0.53800
 Alpha  occ. eigenvalues --   -0.51958  -0.41602  -0.30004
 Alpha virt. eigenvalues --    0.03336   0.04152   0.04872   0.05502   0.05680
 Alpha virt. eigenvalues --    0.06844   0.07815   0.09430   0.11100   0.12007
 Alpha virt. eigenvalues --    0.12588   0.13117   0.13546   0.15290   0.16479

 Mulliken charges:
               1
     1  C   -0.397488
     2  N    0.561131
     3  C    0.126779
     4  O   -1.178433
     5  C    0.563506
     6  O   -0.791206
     7  H    0.058077
     8  H    0.159572
     9  H    0.153558
    10  H    0.153115
    11  H    0.591390
 Sum of Mulliken charges =  -0.00000

 Dipole moment (field-independent basis, Debye):
    X=             -1.6308    Y=             -2.1081    Z=             -0.0033  Tot=              2.6653

 Test job not archived.
 1\1\GINC-SE114\SP\RHF\Aug-CC-pVDZ\C3H5N1O2\OHZDE\09-Apr-2025\0\\#t hf
 aug-cc-pvdz iop(5/13=1,5/36=2,99/5=2) pseudo=read geom=check guess=(re
 ad,tcheck) scf=(maxcycle=1)\\title\\0,1\C,0,-1.03376109,1.39751331,-0.
 02329575\N,0,-0.0000422,0.36654148,-0.06096394\C,0,-0.21563696,-0.9332
 163,0.21282254\O,0,-1.26223761,-1.48370774,0.52955784\C,0,1.88280386,-
 1.74456982,-0.10262753\O,0,2.5495256,-0.80496936,-0.40497738\H,0,-1.97
 556185,0.9003732,0.23345376\H,0,-0.80777106,2.15906303,0.73723483\H,0,
 -1.13797787,1.88773405,-1.00199973\H,0,0.95363923,0.62635363,-0.303158

 Normal termination of Gaussian 16 at Wed Apr  9 16:07:45 2025.
