 Gaussian 16, Revision C.01,

 ----------------------------------------------------------------------
 #t hf aug-cc-pvdz symm=none int=(grid=ultrafine) guess=(read,tcheck) s
 table=(opt,rrhf)
 ----------------------------------------------------------------------
 -----
 title
 -----
 Symbolic Z-matrix:
 Charge =  0 Multiplicity = 1

 SCF Done:  E(RHF) =  -272.082152080     A.U. after   13 cycles
 Normal termination of Gaussian 16 at Wed Apr  9 03:39:48 2025.
 Gaussian 16:  ES64L-G16RevC.01  3-Jul-2019

 ----------------------------------------------------------------------
 #t hf aug-cc-pvdz iop(5/13=1,5/36=2,99/5=2) pseudo=read geom=check gue
 ss=(read,tcheck) scf=(maxcycle=1)
 ----------------------------------------------------------------------
 -----
 title
 -----
 Structure from the checkpoint file:  "Grambow2020_wb97xd3_007420_reverse_mol2.chk"
 Charge =  0 Multiplicity = 1

                         Standard orientation:
 ---------------------------------------------------------------------
 Center     Atomic      Atomic             Coordinates (Angstroms)
 Number     Number       Type             X           Y           Z
 ---------------------------------------------------------------------
      1          6           0       -2.024390   -0.741367   -0.712463
      2          6           0       -1.251511   -0.171291    0.472170
      3          6           0        0.097935   -0.897687    0.656772
      4          6           0        1.102542    0.017263    0.001498
      5          6           0        2.500543   -0.425692   -0.273289
      6          6           0        0.571347    1.211996   -0.230409
      7          6           0       -0.858779    1.303479    0.223576
      8          1           0       -1.431766   -0.665442   -1.628712
      9          1           0       -2.267116   -1.794873   -0.555676
     10          1           0       -2.960300   -0.201296   -0.872045
     11          1           0       -1.868688   -0.262468    1.368649
     12          1           0        0.350091   -1.033058    1.715086
     13          1           0        0.090258   -1.897423    0.209860
     14          1           0       -0.935087    1.903014    1.137700
     15          1           0        2.511764   -1.288990   -0.944756
     16          1           0        2.996585   -0.737289    0.650564
     17          1           0        3.091870    0.369860   -0.727486
     18          1           0        1.107504    2.047812   -0.666007
     19          1           0       -1.511241    1.779950   -0.514309
 ---------------------------------------------------------------------

 SCF Done:  E(RHF) =  -272.382003403     A.U. after    2 cycles

 The electronic state is 1-A.
 Alpha  occ. eigenvalues --  -11.22741 -11.22696 -11.22659 -11.22251 -11.22140
 Alpha  occ. eigenvalues --  -11.21624 -11.21468  -1.14316  -1.02983  -0.97302
 Alpha  occ. eigenvalues --   -0.93073  -0.87824  -0.76614  -0.71138  -0.65996
 Alpha  occ. eigenvalues --   -0.62954  -0.58866  -0.58355  -0.56766  -0.55061
 Alpha  occ. eigenvalues --   -0.52737  -0.51283  -0.48939  -0.47807  -0.46467
 Alpha  occ. eigenvalues --   -0.45937  -0.33686
 Alpha virt. eigenvalues --    0.03538   0.03665   0.03850   0.04039   0.05464
 Alpha virt. eigenvalues --    0.05804   0.06113   0.06672   0.06951   0.09070
 Alpha virt. eigenvalues --    0.09112   0.09690   0.12241   0.13363   0.13634

 Mulliken charges:
               1
     1  C   -0.287800
     2  C   -0.275301
     3  C   -0.619992
     4  C    0.407143
     5  C   -0.611571
     6  C    0.097385
     7  C   -0.342243
     8  H    0.251784
     9  H    0.109683
    10  H    0.104760
    11  H    0.098475
    12  H    0.174993
    13  H    0.168151
    14  H    0.172826
    15  H    0.230185
    16  H    0.229548
    17  H    0.111234
    18  H   -0.184114
    19  H    0.164854
 Sum of Mulliken charges =  -0.00000

 Dipole moment (field-independent basis, Debye):
    X=              0.1121    Y=             -0.1894    Z=              0.1925  Tot=              0.2924

 Test job not archived.
 1\1\GINC-SE069\SP\RHF\Aug-CC-pVDZ\C7H12\OHZDE\09-Apr-2025\0\\#t hf aug
 -cc-pvdz iop(5/13=1,5/36=2,99/5=2) pseudo=read geom=check guess=(read,
 tcheck) scf=(maxcycle=1)\\title\\0,1\C,0,-2.14402258,-0.45267764,-0.22
 15672\C,0,-1.15177915,0.60999637,0.23871785\C,0,-0.01881993,-0.0149265
 5,1.08050526\C,0,1.12314148,-0.16845241,0.10679777\C,0,2.33437011,-0.9
 7220837,0.44298934\C,0,0.89284184,0.5233504,-1.00302524\C,0,-0.4224820
 8,1.25013784,-0.9651631\H,0,-1.63380825,-1.22805732,-0.80031533\H,0,-2
 .6303665,-0.93426054,0.62985504\H,0,-2.92337834,-0.02032227,-0.8530275

 Normal termination of Gaussian 16 at Wed Apr  9 03:39:55 2025.
