 Gaussian 16, Revision C.01,

 ----------------------------------------------------------------------
 #t hf aug-cc-pvdz symm=none int=(grid=ultrafine) guess=(read,tcheck) s
 table=(opt,rrhf)
 ----------------------------------------------------------------------
 -----
 title
 -----
 Symbolic Z-matrix:
 Charge =  0 Multiplicity = 1

 SCF Done:  E(RHF) =  -302.701654375     A.U. after   17 cycles
 Normal termination of Gaussian 16 at Wed Apr  9 19:19:06 2025.
 Gaussian 16:  ES64L-G16RevC.01  3-Jul-2019

 ----------------------------------------------------------------------
 #t hf aug-cc-pvdz iop(5/13=1,5/36=2,99/5=2) pseudo=read geom=check gue
 ss=(read,tcheck) scf=(maxcycle=1)
 ----------------------------------------------------------------------
 -----
 title
 -----
 Structure from the checkpoint file:  "Grambow2020_wb97xd3_009336_forward_mol1.chk"
 Charge =  0 Multiplicity = 1

                         Standard orientation:
 ---------------------------------------------------------------------
 Center     Atomic      Atomic             Coordinates (Angstroms)
 Number     Number       Type             X           Y           Z
 ---------------------------------------------------------------------
      1          6           0        2.328506   -0.638615    0.164721
      2          7           0        1.145624    0.055881   -0.141755
      3          6           0        0.097229   -0.869977   -0.204765
      4          6           0       -1.077497   -0.070203    0.032784
      5          6           0       -2.490686   -0.530519    0.106493
      6          6           0       -0.593239    1.217700    0.028168
      7          7           0        0.768198    1.289427   -0.047917
      8          1           0        1.038306   -1.683766    0.240250
      9          1           0        2.391580   -0.879693    1.221017
     10          1           0        3.240978   -0.219592   -0.250461
     11          1           0        0.096768   -1.452811   -1.127699
     12          1           0       -3.177741    0.315342    0.112157
     13          1           0       -2.666781   -1.113046    1.013263
     14          1           0       -2.746827   -1.170042   -0.742035
     15          1           0       -1.158908    2.136135    0.096806
 ---------------------------------------------------------------------

 SCF Done:  E(RHF) =  -303.020396465     A.U. after    2 cycles

 The electronic state is 1-A.
 Alpha  occ. eigenvalues --  -15.62054 -15.55671 -11.28041 -11.27250 -11.26330
 Alpha  occ. eigenvalues --  -11.25349 -11.24188  -1.41552  -1.16462  -1.11092
 Alpha  occ. eigenvalues --   -0.99175  -0.94072  -0.84547  -0.79300  -0.72993
 Alpha  occ. eigenvalues --   -0.68973  -0.65229  -0.61133  -0.59828  -0.59327
 Alpha  occ. eigenvalues --   -0.56322  -0.54152  -0.51928  -0.46680  -0.38409
 Alpha  occ. eigenvalues --   -0.29875
 Alpha virt. eigenvalues --    0.02445   0.03181   0.03916   0.04153   0.04819
 Alpha virt. eigenvalues --    0.05754   0.06468   0.07247   0.07824   0.10150
 Alpha virt. eigenvalues --    0.11034   0.11148   0.11844   0.13760   0.14222

 Mulliken charges:
               1
     1  C   -0.250988
     2  N    0.201487
     3  C   -0.752415
     4  C    0.569211
     5  C   -0.483144
     6  C   -0.259521
     7  N   -0.010609
     8  H    0.546599
     9  H    0.058650
    10  H   -0.089037
    11  H    0.109266
    12  H    0.151060
    13  H    0.244645
    14  H    0.189069
    15  H   -0.224274
 Sum of Mulliken charges =  -0.00000

 Dipole moment (field-independent basis, Debye):
    X=             -3.1280    Y=             -1.4834    Z=             -0.0809  Tot=              3.4629

 Test job not archived.
 1\1\GINC-SE454\SP\RHF\Aug-CC-pVDZ\C5H8N2\OHZDE\09-Apr-2025\0\\#t hf au
 g-cc-pvdz iop(5/13=1,5/36=2,99/5=2) pseudo=read geom=check guess=(read
 ,tcheck) scf=(maxcycle=1)\\title\\0,1\C,0,-2.51108239,-0.3703143,-0.19
 829097\N,0,-1.31826264,0.14743866,0.33516574\C,0,-0.26200407,-0.677018
 47,-0.07091849\C,0,0.89337545,0.17854101,0.0248179\C,0,2.3036973,-0.15
 799079,-0.31009419\C,0,0.40166287,1.31268624,0.62909746\N,0,-0.9543265
 8,1.30255305,0.78920512\H,0,-1.21986842,-1.23207878,-0.7922511\H,0,-2.
 62805059,-0.11376074,-1.24631578\H,0,-3.40316385,-0.20908313,0.4006724

 Normal termination of Gaussian 16 at Wed Apr  9 19:19:11 2025.
