 Gaussian 16, Revision C.01,

 ----------------------------------------------------------------------
 #t hf aug-cc-pvdz symm=none int=(grid=ultrafine) guess=(read,tcheck) s
 table=(opt,rrhf)
 ----------------------------------------------------------------------
 -----
 title
 -----
 Symbolic Z-matrix:
 Charge =  0 Multiplicity = 1

 SCF Done:  E(RHF) =  -324.988987331     A.U. after   15 cycles
 Normal termination of Gaussian 16 at Wed Apr  9 03:52:27 2025.
 Gaussian 16:  ES64L-G16RevC.01  3-Jul-2019

 ----------------------------------------------------------------------
 #t hf aug-cc-pvdz iop(5/13=1,5/36=2,99/5=2) pseudo=read geom=check gue
 ss=(read,tcheck) scf=(maxcycle=1)
 ----------------------------------------------------------------------
 -----
 title
 -----
 Structure from the checkpoint file:  "Grambow2020_wb97xd3_008229_forward_mol1.chk"
 Charge =  0 Multiplicity = 1

                         Standard orientation:
 ---------------------------------------------------------------------
 Center     Atomic      Atomic             Coordinates (Angstroms)
 Number     Number       Type             X           Y           Z
 ---------------------------------------------------------------------
      1          6           0        2.014743    1.208401   -0.262133
      2          6           0        1.972834   -0.309490   -0.368002
      3          6           0        1.034357   -0.980963    0.569489
      4          7           0       -0.682004    0.265827    1.159083
      5          6           0       -1.256538   -0.062502    0.047707
      6          8           0       -0.619910   -0.841961   -0.711608
      7          6           0       -2.612391    0.427172   -0.392923
      8          1           0        2.801385    1.615413   -0.899204
      9          1           0        1.061976    1.636377   -0.572272
     10          1           0        2.204421    1.528813    0.764097
     11          1           0        1.775253   -0.620951   -1.391845
     12          1           0        2.958290   -0.713726   -0.086444
     13          1           0        0.812549   -2.021304    0.381056
     14          1           0        1.206704   -0.766592    1.612506
     15          1           0       -1.161092    0.909043    1.776763
     16          1           0       -2.506173    0.963139   -1.336501
     17          1           0       -3.079405    1.080321    0.341766
     18          1           0       -3.258628   -0.431347   -0.575469
 ---------------------------------------------------------------------

 SCF Done:  E(RHF) =  -325.331771633     A.U. after    2 cycles

 The electronic state is 1-A.
 Alpha  occ. eigenvalues --  -20.48239 -15.44592 -11.34736 -11.31091 -11.25045
 Alpha  occ. eigenvalues --  -11.22864 -11.22642  -1.42374  -1.15368  -1.08649
 Alpha  occ. eigenvalues --   -0.98044  -0.94271  -0.81816  -0.75973  -0.68897
 Alpha  occ. eigenvalues --   -0.66105  -0.63411  -0.61264  -0.59338  -0.58426
 Alpha  occ. eigenvalues --   -0.54685  -0.53131  -0.51993  -0.50769  -0.50065
 Alpha  occ. eigenvalues --   -0.43190  -0.39295  -0.37678
 Alpha virt. eigenvalues --    0.03390   0.03944   0.03992   0.04643   0.05639
 Alpha virt. eigenvalues --    0.05886   0.06175   0.06641   0.07317   0.08116
 Alpha virt. eigenvalues --    0.09626   0.09938   0.12371   0.13679   0.14011

 Mulliken charges:
               1
     1  C   -0.252346
     2  C   -0.395090
     3  C    0.163955
     4  N    0.800154
     5  C    0.033061
     6  O   -1.457096
     7  C   -0.406374
     8  H    0.122836
     9  H    0.198056
    10  H    0.165347
    11  H    0.127099
    12  H    0.237596
    13  H    0.102784
    14  H    0.075588
    15  H   -0.038448
    16  H    0.209457
    17  H    0.104957
    18  H    0.208465
 Sum of Mulliken charges =  -0.00000

 Dipole moment (field-independent basis, Debye):
    X=              1.6667    Y=              0.2877    Z=              0.8008  Tot=              1.8713

 Test job not archived.
 1\1\GINC-SE125\SP\RHF\Aug-CC-pVDZ\C5H11N1O1\OHZDE\09-Apr-2025\0\\#t hf
  aug-cc-pvdz iop(5/13=1,5/36=2,99/5=2) pseudo=read geom=check guess=(r
 ead,tcheck) scf=(maxcycle=1)\\title\\0,1\C,0,-1.9914244,-0.18104179,-0
 .67571738\C,0,-1.61179929,1.04162225,0.14764972\C,0,-0.68678496,0.7758
 6831,1.28088833\N,0,0.62733039,-0.96335975,0.97074769\C,0,1.40350522,-
 0.20604035,0.26571918\O,0,1.05691315,0.99932938,0.13777346\C,0,2.66996
 75,-0.66861749,-0.40834934\H,0,-2.75352698,0.07513647,-1.4132111\H,0,-
 1.11935239,-0.57053558,-1.20002516\H,0,-2.38207377,-0.97959499,-0.0420

 Normal termination of Gaussian 16 at Wed Apr  9 03:52:34 2025.
