 Gaussian 16, Revision C.01,

 ----------------------------------------------------------------------
 #t hf aug-cc-pvdz symm=none int=(grid=ultrafine) guess=(read,tcheck) s
 table=(opt,rrhf)
 ----------------------------------------------------------------------
 -----
 title
 -----
 Symbolic Z-matrix:
 Charge =  0 Multiplicity = 1

 SCF Done:  E(RHF) =  -344.786517833     A.U. after   15 cycles

 1\1\GINC-SE462\Stability\RHF\Aug-CC-pVDZ\C5H10O2\OHZDE\09-Apr-2025\0\\
 #t hf aug-cc-pvdz symm=none int=(grid=ultrafine) guess=(read,tcheck) s
 table=(opt,rrhf)\\title\\0,1\C,0,-1.89448502,-0.35982067,-0.61465644\C
 ,0,-0.82456489,0.32275319,0.21343427\O,0,-1.14467611,1.62096901,0.6415
 6945\C,0,-0.04412469,-0.39304007,1.11695482\C,0,2.05306572,0.00699795,
 0.6790033\C,0,1.9168284,-0.27991746,-0.65307381\O,0,1.15609672,0.44688
 836,-1.39679625\H,0,-1.5544813,-1.34098938,-0.9483738\H,0,-2.8126633,-
 0.48436269,-0.03505049\H,0,-2.13482566,0.22543469,-1.50541333\H,0,0.15

 Normal termination of Gaussian 16 at Wed Apr  9 03:34:35 2025.
 Gaussian 16:  ES64L-G16RevC.01  3-Jul-2019

 ----------------------------------------------------------------------
 #t hf aug-cc-pvdz iop(5/13=1,5/36=2,99/5=2) pseudo=read geom=check gue
 ss=(read,tcheck) scf=(maxcycle=1)
 ----------------------------------------------------------------------
 -----
 title
 -----
 Structure from the checkpoint file:  "Grambow2020_wb97xd3_007090_reverse_mol1.chk"
 Charge =  0 Multiplicity = 1

                         Standard orientation:
 ---------------------------------------------------------------------
 Center     Atomic      Atomic             Coordinates (Angstroms)
 Number     Number       Type             X           Y           Z
 ---------------------------------------------------------------------
      1          6           0        1.860251    0.885875    0.696361
      2          6           0        0.962497   -0.157783    0.062969
      3          8           0        1.509700   -0.812412   -1.052004
      4          6           0        0.131418   -0.961973    0.837812
      5          6           0       -1.896906   -0.806611    0.055632
      6          6           0       -1.885334    0.562736    0.063788
      7          8           0       -1.062692    1.207154   -0.689914
      8          1           0        1.349449    1.381658    1.522764
      9          1           0        2.778750    0.429478    1.073940
     10          1           0        2.138977    1.655627   -0.027192
     11          1           0       -0.036911    0.659970   -0.437303
     12          1           0        1.670474   -0.166550   -1.742826
     13          1           0        0.064944   -2.019666    0.625678
     14          1           0       -0.063752   -0.676119    1.862359
     15          1           0       -2.539395   -1.348191    0.738884
     16          1           0       -1.575449   -1.327292   -0.837111
     17          1           0       -2.394713    1.119686    0.856780
 ---------------------------------------------------------------------

 SCF Done:  E(RHF) =  -345.147093172     A.U. after    2 cycles

 The electronic state is 1-A.
 Alpha  occ. eigenvalues --  -20.55313 -20.54115 -11.30625 -11.28414 -11.27032
 Alpha  occ. eigenvalues --  -11.23884 -11.23793  -1.46549  -1.45494  -1.07106
 Alpha  occ. eigenvalues --   -1.01830  -0.94869  -0.80327  -0.79085  -0.72132
 Alpha  occ. eigenvalues --   -0.67975  -0.64943  -0.63486  -0.62543  -0.58564
 Alpha  occ. eigenvalues --   -0.56600  -0.55216  -0.54626  -0.54200  -0.47960
 Alpha  occ. eigenvalues --   -0.45567  -0.38477  -0.31805
 Alpha virt. eigenvalues --    0.03198   0.03627   0.03819   0.04489   0.06017
 Alpha virt. eigenvalues --    0.06270   0.06519   0.06842   0.08541   0.09516
 Alpha virt. eigenvalues --    0.10045   0.12130   0.12958   0.13530   0.13993

 Mulliken charges:
               1
     1  C   -0.281058
     2  C    0.919488
     3  O   -1.489142
     4  C   -0.190486
     5  C   -0.231235
     6  C    1.190502
     7  O   -1.576362
     8  H    0.160096
     9  H    0.211553
    10  H    0.135331
    11  H    0.942440
    12  H    0.277697
    13  H    0.071922
    14  H   -0.094942
    15  H   -0.073014
    16  H   -0.002163
    17  H    0.029374
 Sum of Mulliken charges =  -0.00000

 Dipole moment (field-independent basis, Debye):
    X=              0.0754    Y=             -0.5447    Z=              1.9688  Tot=              2.0441

 Test job not archived.
 1\1\GINC-SE462\SP\RHF\Aug-CC-pVDZ\C5H10O2\OHZDE\09-Apr-2025\0\\#t hf a
 ug-cc-pvdz iop(5/13=1,5/36=2,99/5=2) pseudo=read geom=check guess=(rea
 d,tcheck) scf=(maxcycle=1)\\title\\0,1\C,0,-1.89448502,-0.35982067,-0.
 61465644\C,0,-0.82456489,0.32275319,0.21343427\O,0,-1.14467611,1.62096
 901,0.64156945\C,0,-0.04412469,-0.39304007,1.11695482\C,0,2.05306572,0
 .00699795,0.6790033\C,0,1.9168284,-0.27991746,-0.65307381\O,0,1.156096
 72,0.44688836,-1.39679625\H,0,-1.5544813,-1.34098938,-0.9483738\H,0,-2
 .8126633,-0.48436269,-0.03505049\H,0,-2.13482566,0.22543469,-1.5054133

 Normal termination of Gaussian 16 at Wed Apr  9 03:34:40 2025.
