 Gaussian 16, Revision C.01,

 ----------------------------------------------------------------------
 #t hf aug-cc-pvdz symm=none int=(grid=ultrafine) guess=(read,tcheck) s
 table=(opt,rrhf)
 ----------------------------------------------------------------------
 -----
 title
 -----
 Symbolic Z-matrix:
 Charge =  0 Multiplicity = 1

 SCF Done:  E(RHF) =  -338.619279384     A.U. after   16 cycles
 Normal termination of Gaussian 16 at Wed Apr  9 03:53:06 2025.
 Gaussian 16:  ES64L-G16RevC.01  3-Jul-2019

 ----------------------------------------------------------------------
 #t hf aug-cc-pvdz iop(5/13=1,5/36=2,99/5=2) pseudo=read geom=check gue
 ss=(read,tcheck) scf=(maxcycle=1)
 ----------------------------------------------------------------------
 -----
 title
 -----
 Structure from the checkpoint file:  "Grambow2020_wb97xd3_008311_reverse_mol2.chk"
 Charge =  0 Multiplicity = 1

                         Standard orientation:
 ---------------------------------------------------------------------
 Center     Atomic      Atomic             Coordinates (Angstroms)
 Number     Number       Type             X           Y           Z
 ---------------------------------------------------------------------
      1          6           0        2.466876    0.316187   -0.121659
      2          8           0        1.483428   -0.634185   -0.009151
      3          6           0        0.261828   -0.331544    0.079045
      4          6           0       -0.222085    1.072841    0.025883
      5          7           0       -1.637310    0.816120   -0.046053
      6          6           0       -1.830916   -0.524819   -0.025999
      7          7           0       -0.752852   -1.244095    0.039816
      8          1           0        3.430695   -0.153013    0.015277
      9          1           0        2.269932    1.223364    0.444143
     10          1           0        0.229105    1.553473   -0.867481
     11          1           0        0.067606    1.683926    0.891725
     12          1           0       -2.359974    1.509116   -0.039227
     13          1           0       -2.827876   -0.943553   -0.071188
 ---------------------------------------------------------------------

 SCF Done:  E(RHF) =  -338.962860866     A.U. after    2 cycles

 The electronic state is 1-A.
 Alpha  occ. eigenvalues --  -20.63822 -15.57300 -15.51911 -11.36908 -11.36773
 Alpha  occ. eigenvalues --  -11.31495 -11.21355  -1.57704  -1.36970  -1.21909
 Alpha  occ. eigenvalues --   -1.06071  -0.96640  -0.89067  -0.84258  -0.79073
 Alpha  occ. eigenvalues --   -0.71886  -0.71484  -0.67801  -0.65031  -0.61573
 Alpha  occ. eigenvalues --   -0.59794  -0.56087  -0.52445  -0.48979  -0.45643
 Alpha  occ. eigenvalues --   -0.23183
 Alpha virt. eigenvalues --    0.01483   0.03541   0.04410   0.05056   0.05593
 Alpha virt. eigenvalues --    0.06260   0.07137   0.08734   0.09739   0.10202
 Alpha virt. eigenvalues --    0.11789   0.12161   0.12516   0.14295   0.15175

 Mulliken charges:
               1
     1  C    0.046007
     2  O   -1.233611
     3  C    0.197345
     4  C   -0.411706
     5  N    0.490632
     6  C   -0.330691
     7  N    0.931113
     8  H   -0.121337
     9  H    0.012829
    10  H    0.260932
    11  H    0.136647
    12  H    0.040750
    13  H   -0.018911
 Sum of Mulliken charges =   0.00000

 Dipole moment (field-independent basis, Debye):
    X=             -6.4376    Y=              2.9443    Z=              1.2781  Tot=              7.1935

 Test job not archived.
 1\1\GINC-SE021\SP\RHF\Aug-CC-pVDZ\C4H6N2O1\OHZDE\09-Apr-2025\0\\#t hf
 aug-cc-pvdz iop(5/13=1,5/36=2,99/5=2) pseudo=read geom=check guess=(re
 ad,tcheck) scf=(maxcycle=1)\\title\\0,1\C,0,2.41488681,-0.08070482,-0.
 24075146\O,0,1.37790069,0.60862877,-0.817392\C,0,0.17379094,0.39874306
 ,-0.50475087\C,0,-0.2240898,-0.57873895,0.5419179\N,0,-1.62486523,-0.2
 5498024,0.62528727\C,0,-1.88817615,0.73832854,-0.2578927\N,0,-0.869884
 83,1.1631974,-0.94088573\H,0,3.32279456,0.1179943,-0.79217514\H,0,2.18
 425354,-1.11976195,-0.01926154\H,0,0.37719288,-0.36611885,1.45072436\H

 Normal termination of Gaussian 16 at Wed Apr  9 03:53:10 2025.
