 Gaussian 16, Revision C.01,

 ----------------------------------------------------------------------
 #t hf aug-cc-pvdz symm=none int=(grid=ultrafine) guess=(read,tcheck) s
 table=(opt,rrhf)
 ----------------------------------------------------------------------
 -----
 title
 -----
 Symbolic Z-matrix:
 Charge =  0 Multiplicity = 1

 SCF Done:  E(RHF) =  -358.409887928     A.U. after   15 cycles
 Normal termination of Gaussian 16 at Wed Apr  9 17:42:35 2025.
 Gaussian 16:  ES64L-G16RevC.01  3-Jul-2019

 ----------------------------------------------------------------------
 #t hf aug-cc-pvdz iop(5/13=1,5/36=2,99/5=2) pseudo=read geom=check gue
 ss=(read,tcheck) scf=(maxcycle=1)
 ----------------------------------------------------------------------
 -----
 title
 -----
 Structure from the checkpoint file:  "Grambow2020_wb97xd3_006789_reverse_mol1.chk"
 Charge =  0 Multiplicity = 1

                         Standard orientation:
 ---------------------------------------------------------------------
 Center     Atomic      Atomic             Coordinates (Angstroms)
 Number     Number       Type             X           Y           Z
 ---------------------------------------------------------------------
      1          8           0        2.474746   -0.206581   -0.090931
      2          6           0        1.454032    0.282979    0.094930
      3          6           0       -0.091342   -0.710840   -0.534368
      4          6           0       -0.753060   -1.182788    0.713282
      5          7           0       -1.572334   -0.528205   -0.273792
      6          6           0       -0.990280    0.750684   -0.460952
      7          8           0       -0.573811    1.549261    0.452780
      8          1           0        0.625669    1.213343    0.521751
      9          1           0        0.168891   -1.346187   -1.370675
     10          1           0       -0.522743   -0.660404    1.638871
     11          1           0       -0.968991   -2.239252    0.806251
     12          1           0       -1.220067    1.148278   -1.451790
 ---------------------------------------------------------------------

 SCF Done:  E(RHF) =  -358.770910532     A.U. after    2 cycles

 The electronic state is 1-A.
 Alpha  occ. eigenvalues --  -20.62694 -20.53635 -15.55253 -11.39079 -11.37640
 Alpha  occ. eigenvalues --  -11.30346 -11.29999  -1.57814  -1.48351  -1.34105
 Alpha  occ. eigenvalues --   -0.99624  -0.91003  -0.82238  -0.81429  -0.75941
 Alpha  occ. eigenvalues --   -0.72818  -0.68495  -0.64920  -0.62902  -0.61476
 Alpha  occ. eigenvalues --   -0.59315  -0.54607  -0.49615  -0.45929  -0.44376
 Alpha  occ. eigenvalues --   -0.38865
 Alpha virt. eigenvalues --    0.03359   0.04252   0.04853   0.05244   0.06396
 Alpha virt. eigenvalues --    0.08068   0.09523   0.09910   0.10583   0.10774
 Alpha virt. eigenvalues --    0.12695   0.13476   0.14053   0.14259   0.14771

 Mulliken charges:
               1
     1  O   -0.968276
     2  C    0.735684
     3  C   -0.280054
     4  C    0.193407
     5  N    0.506522
     6  C    0.774488
     7  O   -1.515489
     8  H    0.857018
     9  H   -0.304726
    10  H   -0.045539
    11  H   -0.045458
    12  H    0.092424
 Sum of Mulliken charges =   0.00000

 Dipole moment (field-independent basis, Debye):
    X=              0.8423    Y=             -1.4184    Z=             -0.3964  Tot=              1.6966

 Test job not archived.
 1\1\GINC-SE340\SP\RHF\Aug-CC-pVDZ\C4H5N1O2\OHZDE\09-Apr-2025\0\\#t hf
 aug-cc-pvdz iop(5/13=1,5/36=2,99/5=2) pseudo=read geom=check guess=(re
 ad,tcheck) scf=(maxcycle=1)\\title\\0,1\O,0,2.51199212,-0.17038165,-0.
 78673801\C,0,1.39653864,-0.4364159,-0.81927871\C,0,0.32780198,0.201564
 02,0.67157911\C,0,-0.51732518,1.27540912,0.08009469\N,0,-1.17228598,0.
 26640416,0.87188986\C,0,-0.85737619,-0.96721452,0.24868025\O,0,-0.8810
 8275,-1.22410624,-1.00811067\H,0,0.30177915,-0.97398622,-1.31572464\H,
 0,0.93121002,0.31445114,1.5626188\H,0,-0.65835612,1.27436102,-0.998216

 Normal termination of Gaussian 16 at Wed Apr  9 17:42:39 2025.
