 Gaussian 16, Revision C.01,

 ----------------------------------------------------------------------
 #t hf aug-cc-pvdz symm=none int=(grid=ultrafine) guess=(read,tcheck) s
 table=(opt,rrhf)
 ----------------------------------------------------------------------
 -----
 title
 -----
 Symbolic Z-matrix:
 Charge =  0 Multiplicity = 1

 SCF Done:  E(RHF) =  -308.897522051     A.U. after   15 cycles

 1\1\GINC-SE117\Stability\RHF\Aug-CC-pVDZ\C6H12O1\OHZDE\09-Apr-2025\0\\
 #t hf aug-cc-pvdz symm=none int=(grid=ultrafine) guess=(read,tcheck) s
 table=(opt,rrhf)\\title\\0,1\C,0,-2.00814144,-1.13671426,-0.7945456\C,
 0,-0.48082167,0.40167305,-0.13188114\C,0,-1.36225736,1.19950515,0.7731
 155\C,0,0.35661015,-0.55793523,0.60466123\O,0,1.21345687,-1.41228248,-
 0.1464509\C,0,1.82684069,-0.37437637,0.57709626\C,0,2.52648037,0.70044
 607,-0.20074531\H,0,-2.89009573,-0.78215667,-1.32614907\H,0,-1.5717036
 5,-2.01812823,-1.2588716\H,0,-2.22957367,-1.31243849,0.25218882\H,0,-1

 Normal termination of Gaussian 16 at Wed Apr  9 18:33:54 2025.
 Gaussian 16:  ES64L-G16RevC.01  3-Jul-2019

 ----------------------------------------------------------------------
 #t hf aug-cc-pvdz iop(5/13=1,5/36=2,99/5=2) pseudo=read geom=check gue
 ss=(read,tcheck) scf=(maxcycle=1)
 ----------------------------------------------------------------------
 -----
 title
 -----
 Structure from the checkpoint file:  "Grambow2020_wb97xd3_007707_reverse_mol1.chk"
 Charge =  0 Multiplicity = 1

                         Standard orientation:
 ---------------------------------------------------------------------
 Center     Atomic      Atomic             Coordinates (Angstroms)
 Number     Number       Type             X           Y           Z
 ---------------------------------------------------------------------
      1          6           0       -2.338524   -1.059527   -0.395291
      2          6           0       -0.692451    0.498756   -0.369503
      3          6           0       -1.467954    1.616294    0.248711
      4          6           0        0.142695   -0.213008    0.610578
      5          8           0        0.901271   -1.329849    0.157264
      6          6           0        1.615128   -0.155286    0.453609
      7          6           0        2.314559    0.540633   -0.676113
      8          1           0       -3.235217   -0.843199   -0.974343
      9          1           0       -1.980681   -2.074811   -0.550574
     10          1           0       -2.496894   -0.855046    0.657643
     11          1           0       -1.502472   -0.395498   -0.967783
     12          1           0       -1.841818    1.449051    1.269861
     13          1           0       -2.288835    1.951146   -0.385310
     14          1           0       -0.756209    2.448856    0.300761
     15          1           0       -0.219398   -0.340906    1.636821
     16          1           0        2.178199   -0.212817    1.385062
     17          1           0        1.674760    0.580331   -1.555045
     18          1           0        3.234152    0.006386   -0.923417
     19          1           0        2.583533    1.558132   -0.383744
 ---------------------------------------------------------------------

 SCF Done:  E(RHF) =  -309.226363507     A.U. after    2 cycles

 The electronic state is 1-A.
 Alpha  occ. eigenvalues --  -20.55445 -11.29752 -11.28697 -11.25663 -11.25069
 Alpha  occ. eigenvalues --  -11.23717 -11.22558  -1.50014  -1.06961  -1.01317
 Alpha  occ. eigenvalues --   -0.95829  -0.91988  -0.83900  -0.74947  -0.70421
 Alpha  occ. eigenvalues --   -0.64120  -0.60667  -0.60151  -0.58295  -0.57690
 Alpha  occ. eigenvalues --   -0.56371  -0.56241  -0.53293  -0.51958  -0.50697
 Alpha  occ. eigenvalues --   -0.43961  -0.42857  -0.32263
 Alpha virt. eigenvalues --    0.03447   0.03535   0.03826   0.04348   0.05618
 Alpha virt. eigenvalues --    0.05794   0.06157   0.07005   0.07220   0.08735
 Alpha virt. eigenvalues --    0.09091   0.10262   0.11117   0.12588   0.13244

 Mulliken charges:
               1
     1  C   -0.482997
     2  C   -1.053422
     3  C   -0.306981
     4  C    1.691617
     5  O   -1.443972
     6  C    0.100035
     7  C   -0.512035
     8  H    0.027346
     9  H    0.085825
    10  H    0.243363
    11  H    0.548047
    12  H    0.184944
    13  H    0.159352
    14  H    0.170842
    15  H   -0.087610
    16  H   -0.031909
    17  H    0.248286
    18  H    0.201408
    19  H    0.257863
 Sum of Mulliken charges =   0.00000

 Dipole moment (field-independent basis, Debye):
    X=             -0.8407    Y=              1.2921    Z=              1.3361  Tot=              2.0400

 Test job not archived.
 1\1\GINC-SE117\SP\RHF\Aug-CC-pVDZ\C6H12O1\OHZDE\09-Apr-2025\0\\#t hf a
 ug-cc-pvdz iop(5/13=1,5/36=2,99/5=2) pseudo=read geom=check guess=(rea
 d,tcheck) scf=(maxcycle=1)\\title\\0,1\C,0,-2.00814144,-1.13671426,-0.
 7945456\C,0,-0.48082167,0.40167305,-0.13188114\C,0,-1.36225736,1.19950
 515,0.7731155\C,0,0.35661015,-0.55793523,0.60466123\O,0,1.21345687,-1.
 41228248,-0.1464509\C,0,1.82684069,-0.37437637,0.57709626\C,0,2.526480
 37,0.70044607,-0.20074531\H,0,-2.89009573,-0.78215667,-1.32614907\H,0,
 -1.57170365,-2.01812823,-1.2588716\H,0,-2.22957367,-1.31243849,0.25218

 Normal termination of Gaussian 16 at Wed Apr  9 18:34:02 2025.
