 Gaussian 16, Revision C.01,

 ----------------------------------------------------------------------
 #t hf aug-cc-pvdz symm=none int=(grid=ultrafine) guess=(read,tcheck) s
 table=(opt,rrhf)
 ----------------------------------------------------------------------
 -----
 title
 -----
 Symbolic Z-matrix:
 Charge =  0 Multiplicity = 1

 SCF Done:  E(RHF) =  -302.841500929     A.U. after   14 cycles
 Normal termination of Gaussian 16 at Wed Apr  9 19:17:01 2025.
 Gaussian 16:  ES64L-G16RevC.01  3-Jul-2019

 ----------------------------------------------------------------------
 #t hf aug-cc-pvdz iop(5/13=1,5/36=2,99/5=2) pseudo=read geom=check gue
 ss=(read,tcheck) scf=(maxcycle=1)
 ----------------------------------------------------------------------
 -----
 title
 -----
 Structure from the checkpoint file:  "Grambow2020_wb97xd3_009046_reverse_mol2.chk"
 Charge =  0 Multiplicity = 1

                         Standard orientation:
 ---------------------------------------------------------------------
 Center     Atomic      Atomic             Coordinates (Angstroms)
 Number     Number       Type             X           Y           Z
 ---------------------------------------------------------------------
      1          7           0       -2.716524   -0.763404    0.407730
      2          6           0       -1.850823   -0.201126   -0.570342
      3          6           0       -0.855669    0.611301   -0.319920
      4          7           0        0.041918    1.409359   -0.094738
      5          6           0        1.591674   -0.499991    0.414363
      6          6           0        1.393342    0.977088    0.274944
      7          6           0        2.477502   -1.198732   -0.276223
      8          1           0       -3.685720   -0.569798    0.194657
      9          1           0       -2.517494   -0.411258    1.332747
     10          1           0       -1.983009   -0.546184   -1.588070
     11          1           0        0.955151   -1.005303    1.136604
     12          1           0        2.072599    1.387814   -0.475393
     13          1           0        1.627954    1.484810    1.215015
     14          1           0        2.596039   -2.265505   -0.130836
     15          1           0        3.120568   -0.727501   -1.012601
 ---------------------------------------------------------------------

 SCF Done:  E(RHF) =  -303.159093676     A.U. after    2 cycles

 The electronic state is 1-A.
 Alpha  occ. eigenvalues --  -15.51775 -15.50736 -11.29256 -11.27772 -11.26973
 Alpha  occ. eigenvalues --  -11.24515 -11.23909  -1.25808  -1.20102  -1.07472
 Alpha  occ. eigenvalues --   -0.99619  -0.94401  -0.79743  -0.75146  -0.71303
 Alpha  occ. eigenvalues --   -0.68835  -0.65617  -0.63897  -0.61806  -0.59230
 Alpha  occ. eigenvalues --   -0.55726  -0.52009  -0.48917  -0.46291  -0.38460
 Alpha  occ. eigenvalues --   -0.33143
 Alpha virt. eigenvalues --    0.03259   0.04089   0.04495   0.04685   0.05362
 Alpha virt. eigenvalues --    0.06416   0.07001   0.07637   0.09705   0.10107
 Alpha virt. eigenvalues --    0.11457   0.12298   0.12955   0.13074   0.14577

 Mulliken charges:
               1
     1  N    0.366189
     2  C    0.059046
     3  C   -1.364045
     4  N    0.975326
     5  C    0.878127
     6  C   -0.728711
     7  C   -0.137417
     8  H    0.171481
     9  H    0.014746
    10  H   -0.124866
    11  H   -0.170509
    12  H    0.065956
    13  H    0.145508
    14  H   -0.094560
    15  H   -0.056271
 Sum of Mulliken charges =  -0.00000

 Dipole moment (field-independent basis, Debye):
    X=             -0.1986    Y=             -0.7035    Z=              0.3597  Tot=              0.8147

 Test job not archived.
 1\1\GINC-SE226\SP\RHF\Aug-CC-pVDZ\C5H8N2\OHZDE\09-Apr-2025\0\\#t hf au
 g-cc-pvdz iop(5/13=1,5/36=2,99/5=2) pseudo=read geom=check guess=(read
 ,tcheck) scf=(maxcycle=1)\\title\\0,1\N,0,2.95909593,-0.30422115,-0.13
 396912\C,0,1.93618083,-0.11868353,0.83630964\C,0,0.90649864,0.67849094
 ,0.70459712\N,0,-0.0283505,1.45926856,0.60606123\C,0,-1.32423613,-0.27
 594898,-0.66525476\C,0,-1.28114722,1.09331781,-0.06210773\C,0,-2.21662
 462,-1.19940611,-0.34790606\H,0,3.87444362,-0.1361379,0.26113926\H,0,2
 .83843656,0.30653285,-0.92876266\H,0,1.9791973,-0.75492661,1.71132529\

 Normal termination of Gaussian 16 at Wed Apr  9 19:17:06 2025.
