 Gaussian 16, Revision C.01,

 ----------------------------------------------------------------------
 #t hf aug-cc-pvdz symm=none int=(grid=ultrafine) guess=(read,tcheck) s
 table=(opt,rrhf)
 ----------------------------------------------------------------------
 -----
 title
 -----
 Symbolic Z-matrix:
 Charge =  0 Multiplicity = 1

 SCF Done:  E(RHF) =  -320.683347269     A.U. after   15 cycles
 Normal termination of Gaussian 16 at Wed Apr  9 16:09:41 2025.
 Gaussian 16:  ES64L-G16RevC.01  3-Jul-2019

 ----------------------------------------------------------------------
 #t hf aug-cc-pvdz iop(5/13=1,5/36=2,99/5=2) pseudo=read geom=check gue
 ss=(read,tcheck) scf=(maxcycle=1)
 ----------------------------------------------------------------------
 -----
 title
 -----
 Structure from the checkpoint file:  "Grambow2020_b97d3_007141_reverse_mol2.chk"
 Charge =  0 Multiplicity = 1

                         Standard orientation:
 ---------------------------------------------------------------------
 Center     Atomic      Atomic             Coordinates (Angstroms)
 Number     Number       Type             X           Y           Z
 ---------------------------------------------------------------------
      1          8           0       -2.259950    0.511805   -0.031534
      2          6           0       -1.286886   -0.156751   -0.109131
      3          7           0       -0.439512   -1.039145   -0.191965
      4          6           0        0.985058   -0.983774   -0.281650
      5          6           0        1.572899    0.413955   -0.149420
      6          8           0        0.904069    1.416127   -0.000844
      7          1           0        0.137048   -0.645593    2.654260
      8          1           0        1.442570   -1.617052    0.498666
      9          1           0        1.331168   -1.404881   -1.243170
     10          1           0        2.686662    0.447170   -0.203311
     11          1           0        0.699758   -0.569661    3.137538
 ---------------------------------------------------------------------

 SCF Done:  E(RHF) =  -321.002140192     A.U. after    2 cycles

 The electronic state is 1-A.
 Alpha  occ. eigenvalues --  -20.59956 -20.58021 -15.53678 -11.42336 -11.37602
 Alpha  occ. eigenvalues --  -11.32929  -1.53340  -1.50385  -1.28510  -1.06112
 Alpha  occ. eigenvalues --   -0.87891  -0.75492  -0.73046  -0.71581  -0.69577
 Alpha  occ. eigenvalues --   -0.65853  -0.62266  -0.60993  -0.60181  -0.53917
 Alpha  occ. eigenvalues --   -0.50627  -0.45009  -0.44299
 Alpha virt. eigenvalues --    0.02616   0.03948   0.04463   0.06603   0.06974
 Alpha virt. eigenvalues --    0.08531   0.09184   0.10394   0.10519   0.11819
 Alpha virt. eigenvalues --    0.12835   0.13347   0.14226   0.14726   0.15095

 Mulliken charges:
               1
     1  O   -0.822739
     2  C    0.230409
     3  N    0.818635
     4  C   -0.763972
     5  C    1.106157
     6  O   -1.111661
     7  H   -0.014882
     8  H    0.205217
     9  H    0.186179
    10  H    0.142139
    11  H    0.024519
 Sum of Mulliken charges =  -0.00000

 Dipole moment (field-independent basis, Debye):
    X=              3.8497    Y=             -2.0900    Z=             -0.4536  Tot=              4.4038

 Test job not archived.
 1\1\GINC-SE229\SP\RHF\Aug-CC-pVDZ\C3H5N1O2\OHZDE\09-Apr-2025\0\\#t hf
 aug-cc-pvdz iop(5/13=1,5/36=2,99/5=2) pseudo=read geom=check guess=(re
 ad,tcheck) scf=(maxcycle=1)\\title\\0,1\O,0,2.9121999,-0.16597179,0.26
 770422\C,0,1.76741441,-0.40489393,0.44721548\N,0,0.66230493,-0.8831839
 1,0.67850254\C,0,-0.63966649,-0.29640035,0.71112664\C,0,-0.68581709,1.
 16376915,0.28396723\O,0,0.29360571,1.80311775,-0.04118054\H,0,0.141424
 07,-0.87672328,-2.20540835\H,0,-1.33001746,-0.86022665,0.0593855\H,0,-
 1.07169086,-0.36392934,1.72623116\H,0,-1.70810704,1.61015803,0.2955971

 Normal termination of Gaussian 16 at Wed Apr  9 16:09:44 2025.
