 Gaussian 16, Revision C.01,

 ----------------------------------------------------------------------
 #t hf aug-cc-pvdz symm=none int=(grid=ultrafine) guess=(read,tcheck) s
 table=(opt,rrhf)
 ----------------------------------------------------------------------
 -----
 title
 -----
 Symbolic Z-matrix:
 Charge =  0 Multiplicity = 1

 SCF Done:  E(RHF) =  -268.773758238     A.U. after   15 cycles
 Normal termination of Gaussian 16 at Wed Apr  9 16:56:09 2025.
 Gaussian 16:  ES64L-G16RevC.01  3-Jul-2019

 ----------------------------------------------------------------------
 #t hf aug-cc-pvdz iop(5/13=1,5/36=2,99/5=2) pseudo=read geom=check gue
 ss=(read,tcheck) scf=(maxcycle=1)
 ----------------------------------------------------------------------
 -----
 title
 -----
 Structure from the checkpoint file:  "Grambow2020_wb97xd3_006188_reverse_mol2.chk"
 Charge =  0 Multiplicity = 1

                         Standard orientation:
 ---------------------------------------------------------------------
 Center     Atomic      Atomic             Coordinates (Angstroms)
 Number     Number       Type             X           Y           Z
 ---------------------------------------------------------------------
      1          8           0        2.393436    0.006022   -0.138419
      2          6           0        1.176455   -0.024280   -0.596153
      3          6           0       -0.903929    1.077752    0.220036
      4          6           0        0.161810   -0.023676    0.492660
      5          6           0       -0.948955   -1.072530    0.209435
      6          6           0       -1.777079    0.023979   -0.484852
      7          1           0        2.435255    0.016518    0.841159
      8          1           0       -0.580564    1.942609   -0.358117
      9          1           0       -1.340521    1.416995    1.159940
     10          1           0        0.609066   -0.036831    1.503554
     11          1           0       -0.661334   -1.942789   -0.379185
     12          1           0       -1.403471   -1.403762    1.143609
     13          1           0       -1.606891    0.025640   -1.560483
     14          1           0       -2.848833    0.045966   -0.289882
 ---------------------------------------------------------------------

 SCF Done:  E(RHF) =  -269.053997501     A.U. after    2 cycles

 The electronic state is 1-A.
 Alpha  occ. eigenvalues --  -20.61391 -11.29780 -11.24216 -11.24151 -11.24024
 Alpha  occ. eigenvalues --  -11.23036  -1.53287  -1.15148  -0.95173  -0.91074
 Alpha  occ. eigenvalues --   -0.84818  -0.78074  -0.68947  -0.68697  -0.62323
 Alpha  occ. eigenvalues --   -0.58927  -0.57681  -0.55626  -0.51097  -0.48285
 Alpha  occ. eigenvalues --   -0.45670  -0.45080  -0.35523
 Alpha virt. eigenvalues --    0.02845   0.03711   0.04020   0.04830   0.06013
 Alpha virt. eigenvalues --    0.06766   0.06816   0.08333   0.10718   0.11790
 Alpha virt. eigenvalues --    0.12022   0.12476   0.13411   0.14220   0.15050

 Mulliken charges:
               1
     1  O   -1.091958
     2  C    0.587101
     3  C    0.134342
     4  C   -0.082526
     5  C    0.137979
     6  C   -0.128850
     7  H    0.350187
     8  H    0.029129
     9  H    0.049776
    10  H   -0.141744
    11  H    0.029801
    12  H    0.051020
    13  H    0.080126
    14  H   -0.004384
 Sum of Mulliken charges =   0.00000

 Dipole moment (field-independent basis, Debye):
    X=             -0.9243    Y=              0.0501    Z=              3.1202  Tot=              3.2546

 Test job not archived.
 1\1\GINC-SE042\SP\RHF\Aug-CC-pVDZ\C5H8O1\OHZDE\09-Apr-2025\0\\#t hf au
 g-cc-pvdz iop(5/13=1,5/36=2,99/5=2) pseudo=read geom=check guess=(read
 ,tcheck) scf=(maxcycle=1)\\title\\0,1\O,0,0.70460098,1.70352976,2.0732
 5927\C,0,0.56615638,0.5372155,1.51466625\C,0,0.83468304,-0.18099558,-0
 .85613533\C,0,-0.0301111,0.62824209,0.15407882\C,0,-1.13516087,-0.4475
 3009,-0.03483838\C,0,-0.07791141,-1.39882274,-0.62426149\H,0,0.3873263
 5,2.43987028,1.50883725\H,0,1.89394875,-0.28499067,-0.62387801\H,0,0.7
 2594196,0.23416334,-1.85860031\H,0,-0.29050649,1.66215007,-0.13806078\

 Normal termination of Gaussian 16 at Wed Apr  9 16:56:13 2025.
