 Gaussian 16, Revision C.01,

 ----------------------------------------------------------------------
 #t hf aug-cc-pvdz symm=none int=(grid=ultrafine) guess=(read,tcheck) s
 table=(opt,rrhf)
 ----------------------------------------------------------------------
 -----
 title
 -----
 Symbolic Z-matrix:
 Charge =  0 Multiplicity = 1

 SCF Done:  E(RHF) =  -353.488648458     A.U. after   16 cycles
 Normal termination of Gaussian 16 at Wed Apr  9 18:36:09 2025.
 Gaussian 16:  ES64L-G16RevC.01  3-Jul-2019

 ----------------------------------------------------------------------
 #t hf aug-cc-pvdz iop(5/13=1,5/36=2,99/5=2) pseudo=read geom=check gue
 ss=(read,tcheck) scf=(maxcycle=1)
 ----------------------------------------------------------------------
 -----
 title
 -----
 Structure from the checkpoint file:  "Grambow2020_wb97xd3_007770_forward_mol1.chk"
 Charge =  0 Multiplicity = 1

                         Standard orientation:
 ---------------------------------------------------------------------
 Center     Atomic      Atomic             Coordinates (Angstroms)
 Number     Number       Type             X           Y           Z
 ---------------------------------------------------------------------
      1          8           0        2.355352   -0.009627   -0.229870
      2          6           0        1.220283   -0.078104   -0.458864
      3          7           0       -0.058442   -0.682795    0.799876
      4          6           0       -0.034399    0.700360    0.645595
      5          7           0       -1.038587    1.135417   -0.136810
      6          6           0       -1.616481   -0.005099   -0.486991
      7          7           0       -1.043581   -1.109698    0.032899
      8          1           0        0.638254   -0.299126   -1.371474
      9          1           0        0.558259    1.337955    1.285891
     10          1           0       -2.471469   -0.065229   -1.145655
 ---------------------------------------------------------------------

 SCF Done:  E(RHF) =  -353.837612013     A.U. after    2 cycles

 The electronic state is 1-A.
 Alpha  occ. eigenvalues --  -20.62330 -15.60166 -15.56154 -15.53941 -11.44112
 Alpha  occ. eigenvalues --  -11.34340 -11.33181  -1.57660  -1.44133  -1.24227
 Alpha  occ. eigenvalues --   -1.13882  -0.92445  -0.89099  -0.88159  -0.78086
 Alpha  occ. eigenvalues --   -0.73871  -0.71131  -0.65702  -0.63352  -0.60049
 Alpha  occ. eigenvalues --   -0.57032  -0.53765  -0.51846  -0.48321  -0.43026
 Alpha virt. eigenvalues --    0.02439   0.03466   0.04595   0.04899   0.07742
 Alpha virt. eigenvalues --    0.08524   0.08707   0.09085   0.09999   0.10459
 Alpha virt. eigenvalues --    0.12241   0.14130   0.15038   0.15450   0.15907

 Mulliken charges:
               1
     1  O   -1.014871
     2  C    1.276287
     3  N    0.180796
     4  C   -1.169868
     5  N    0.748443
     6  C   -0.354793
     7  N    0.094526
     8  H    0.311606
     9  H   -0.029580
    10  H   -0.042546
 Sum of Mulliken charges =   0.00000

 Dipole moment (field-independent basis, Debye):
    X=             -0.1458    Y=              1.4426    Z=             -1.3716  Tot=              1.9959

 Test job not archived.
 1\1\GINC-SE340\SP\RHF\Aug-CC-pVDZ\C3H3N3O1\OHZDE\09-Apr-2025\0\\#t hf
 aug-cc-pvdz iop(5/13=1,5/36=2,99/5=2) pseudo=read geom=check guess=(re
 ad,tcheck) scf=(maxcycle=1)\\title\\0,1\O,0,2.47569273,0.25157309,-0.3
 3300604\C,0,1.39667717,-0.1628409,-0.23556475\N,0,0.18530844,0.4000044
 6,1.10645166\C,0,-0.06254268,0.96064424,-0.14324908\N,0,-1.07865,0.346
 63013,-0.77597263\C,0,-1.38680486,-0.613462,0.08462435\N,0,-0.63760804
 ,-0.6266049,1.20585999\H,0,0.93542376,-1.14530089,-0.44167895\H,0,0.34
 275239,1.9200952,-0.43124033\H,0,-2.16471991,-1.34407244,-0.08717321\\

 Normal termination of Gaussian 16 at Wed Apr  9 18:36:12 2025.
