 Gaussian 16, Revision C.01,

 ----------------------------------------------------------------------
 #t hf aug-cc-pvdz symm=none int=(grid=ultrafine) guess=(read,tcheck) s
 table=(opt,rrhf)
 ----------------------------------------------------------------------
 -----
 title
 -----
 Symbolic Z-matrix:
 Charge =  0 Multiplicity = 1

 SCF Done:  E(RHF) =  -322.466304488     A.U. after   16 cycles
 Normal termination of Gaussian 16 at Wed Apr  9 03:27:21 2025.
 Gaussian 16:  ES64L-G16RevC.01  3-Jul-2019

 ----------------------------------------------------------------------
 #t hf aug-cc-pvdz iop(5/13=1,5/36=2,99/5=2) pseudo=read geom=check gue
 ss=(read,tcheck) scf=(maxcycle=1)
 ----------------------------------------------------------------------
 -----
 title
 -----
 Structure from the checkpoint file:  "Grambow2020_wb97xd3_006642_reverse_mol1.chk"
 Charge =  0 Multiplicity = 1

                         Standard orientation:
 ---------------------------------------------------------------------
 Center     Atomic      Atomic             Coordinates (Angstroms)
 Number     Number       Type             X           Y           Z
 ---------------------------------------------------------------------
      1          6           0        1.679351    0.951875    0.100634
      2          7           0        1.957360   -0.491307   -0.042569
      3          6           0        0.777259   -0.100567   -0.368483
      4          6           0       -1.378805    0.705985    0.773117
      5          6           0       -1.613873    0.433405   -0.732957
      6          6           0       -0.572647   -0.643396   -0.582273
      7          8           0       -0.771862   -0.824586    0.809044
      8          1           0        1.432576    1.346195    1.079036
      9          1           0        2.209504    1.586681   -0.598521
     10          1           0        2.320938   -1.252634    0.509528
     11          1           0       -2.316033    0.610316    1.333924
     12          1           0       -1.385044    1.241318   -1.433609
     13          1           0       -2.569704   -0.027466   -1.013362
     14          1           0       -0.566571   -1.552393   -1.191594
 ---------------------------------------------------------------------

 SCF Done:  E(RHF) =  -322.799163396     A.U. after    2 cycles

 The electronic state is 1-A.
 Alpha  occ. eigenvalues --  -20.50948 -15.60489 -11.39787 -11.34251 -11.30854
 Alpha  occ. eigenvalues --  -11.20957 -11.18641  -1.42710  -1.39085  -1.02774
 Alpha  occ. eigenvalues --   -1.00269  -0.94738  -0.86778  -0.77417  -0.72870
 Alpha  occ. eigenvalues --   -0.69267  -0.67971  -0.62102  -0.58014  -0.55979
 Alpha  occ. eigenvalues --   -0.53462  -0.51685  -0.44878  -0.43038  -0.40802
 Alpha  occ. eigenvalues --   -0.25289
 Alpha virt. eigenvalues --    0.01850   0.03499   0.03826   0.04687   0.05578
 Alpha virt. eigenvalues --    0.05834   0.07186   0.07304   0.09146   0.10410
 Alpha virt. eigenvalues --    0.11125   0.11914   0.13065   0.13514   0.14465

 Mulliken charges:
               1
     1  C    0.289714
     2  N    1.035981
     3  C   -1.239789
     4  C    0.106964
     5  C   -0.167940
     6  C    1.130362
     7  O   -1.362403
     8  H    0.078326
     9  H    0.017792
    10  H    0.122939
    11  H   -0.085876
    12  H    0.041088
    13  H    0.057340
    14  H   -0.024498
 Sum of Mulliken charges =   0.00000

 Dipole moment (field-independent basis, Debye):
    X=              5.4489    Y=             -1.1305    Z=             -3.0158  Tot=              6.3296

 Test job not archived.
 1\1\GINC-SE125\SP\RHF\Aug-CC-pVDZ\C5H7N1O1\OHZDE\09-Apr-2025\0\\#t hf
 aug-cc-pvdz iop(5/13=1,5/36=2,99/5=2) pseudo=read geom=check guess=(re
 ad,tcheck) scf=(maxcycle=1)\\title\\0,1\C,0,-1.70028302,-0.87056149,-0
 .204603\N,0,-1.93402661,0.512431,-0.66641096\C,0,-0.70734002,0.1481125
 8,-0.54788353\C,0,0.99694563,-0.33565059,1.31323664\C,0,1.68412393,-0.
 28948244,-0.07365596\C,0,0.63719978,0.73198512,-0.42990293\O,0,0.39415
 657,1.14155898,0.90481007\H,0,-1.7647926,-1.09028239,0.85427265\H,0,-1
 .9818705,-1.63860443,-0.91430531\H,0,-2.45789645,1.32746681,-0.3873130

 Normal termination of Gaussian 16 at Wed Apr  9 03:27:26 2025.
