 Gaussian 16, Revision C.01,

 ----------------------------------------------------------------------
 #t hf aug-cc-pvdz symm=none int=(grid=ultrafine) guess=(read,tcheck) s
 table=(opt,rrhf)
 ----------------------------------------------------------------------
 -----
 title
 -----
 Symbolic Z-matrix:
 Charge =  0 Multiplicity = 1

 SCF Done:  E(RHF) =  -337.381447311     A.U. after   13 cycles
 Normal termination of Gaussian 16 at Wed Apr  9 19:21:46 2025.
 Gaussian 16:  ES64L-G16RevC.01  3-Jul-2019

 ----------------------------------------------------------------------
 #t hf aug-cc-pvdz iop(5/13=1,5/36=2,99/5=2) pseudo=read geom=check gue
 ss=(read,tcheck) scf=(maxcycle=1)
 ----------------------------------------------------------------------
 -----
 title
 -----
 Structure from the checkpoint file:  "Grambow2020_wb97xd3_009446_reverse_mol2.chk"
 Charge =  0 Multiplicity = 1

                         Standard orientation:
 ---------------------------------------------------------------------
 Center     Atomic      Atomic             Coordinates (Angstroms)
 Number     Number       Type             X           Y           Z
 ---------------------------------------------------------------------
      1          7           0        1.051284    0.000101   -1.108078
      2          6           0        0.750897    0.758889   -0.000374
      3          6           0       -0.709716    1.235303    0.004479
      4          8           0       -1.426813    0.000785   -0.006175
      5          6           0       -0.711234   -1.234337    0.004057
      6          6           0        0.749681   -0.759689   -0.002091
      7          7           0        1.055070   -0.001285    1.104613
      8          1           0       -0.952122    1.803668   -0.891943
      9          1           0       -0.949077    1.789784    0.910463
     10          1           0       -0.949989   -1.789213    0.910093
     11          1           0       -0.956545   -1.803223   -0.891391
 ---------------------------------------------------------------------

 SCF Done:  E(RHF) =  -337.720285261     A.U. after    2 cycles

 The electronic state is 1-A.
 Alpha  occ. eigenvalues --  -20.58735 -15.53499 -15.53368 -11.37819 -11.37550
 Alpha  occ. eigenvalues --  -11.34133 -11.34049  -1.51669  -1.43109  -1.16928
 Alpha  occ. eigenvalues --   -1.06164  -0.95062  -0.84248  -0.77365  -0.70585
 Alpha  occ. eigenvalues --   -0.69835  -0.69755  -0.64833  -0.58856  -0.54967
 Alpha  occ. eigenvalues --   -0.54732  -0.53438  -0.53390  -0.45951  -0.40586
 Alpha virt. eigenvalues --    0.02420   0.04256   0.04399   0.04815   0.05636
 Alpha virt. eigenvalues --    0.06407   0.07079   0.09386   0.10354   0.10971
 Alpha virt. eigenvalues --    0.11113   0.13204   0.13765   0.14791   0.14846

 Mulliken charges:
               1
     1  N    0.873876
     2  C   -1.537530
     3  C    1.040874
     4  O   -1.310963
     5  C    1.041092
     6  C   -1.537901
     7  N    0.873023
     8  H    0.138883
     9  H    0.140028
    10  H    0.140272
    11  H    0.138346
 Sum of Mulliken charges =  -0.00000

 Dipole moment (field-independent basis, Debye):
    X=             -1.8494    Y=              0.0017    Z=              0.0311  Tot=              1.8496

 Test job not archived.
 1\1\GINC-SE098\SP\RHF\Aug-CC-pVDZ\C4H4N2O1\OHZDE\09-Apr-2025\0\\#t hf
 aug-cc-pvdz iop(5/13=1,5/36=2,99/5=2) pseudo=read geom=check guess=(re
 ad,tcheck) scf=(maxcycle=1)\\title\\0,1\N,0,0.82138292,-0.21661465,1.4
 9150904\C,0,0.76906859,0.8132032,0.58060994\C,0,0.93601656,0.32420095,
 -0.86624421\O,0,-0.16790232,-0.56989615,-1.00882323\C,0,-1.07079199,-0
 .76015137,0.08034147\C,0,-0.46413601,0.14519376,1.16289442\N,0,-0.4260
 1461,1.46509333,0.77605557\H,0,1.86690648,-0.22375224,-1.00249024\H,0,
 0.84043541,1.14051452,-1.58042113\H,0,-2.06777115,-0.43012481,-0.20759

 Normal termination of Gaussian 16 at Wed Apr  9 19:21:50 2025.
