 Gaussian 16, Revision C.01,

 ----------------------------------------------------------------------
 #t hf aug-cc-pvdz symm=none int=(grid=ultrafine) guess=(read,tcheck) s
 table=(opt,rrhf)
 ----------------------------------------------------------------------
 -----
 title
 -----
 Symbolic Z-matrix:
 Charge =  0 Multiplicity = 1

 SCF Done:  E(RHF) =  -344.804528263     A.U. after   13 cycles

 1\1\GINC-SE396\Stability\RHF\Aug-CC-pVDZ\C5H10O2\OHZDE\09-Apr-2025\0\\
 #t hf aug-cc-pvdz symm=none int=(grid=ultrafine) guess=(read,tcheck) s
 table=(opt,rrhf)\\title\\0,1\C,0,-1.94838363,0.27610464,0.06090766\C,0
 ,-0.56424841,0.28519704,0.64109617\O,0,-0.54025976,0.79839207,1.934812
 79\C,0,0.34572093,-0.83059727,0.27493028\C,0,0.56473836,0.54729128,-0.
 32948718\C,0,1.87433875,0.51551498,0.42869679\O,0,1.5358452,-0.7491721
 1,1.05247557\H,0,-2.3419791,1.29243054,0.00809835\H,0,-1.94789411,-0.1
 452413,-0.94594547\H,0,-2.61260556,-0.31863219,0.68916626\H,0,-0.17803

 Normal termination of Gaussian 16 at Wed Apr  9 03:34:31 2025.
 Gaussian 16:  ES64L-G16RevC.01  3-Jul-2019

 ----------------------------------------------------------------------
 #t hf aug-cc-pvdz iop(5/13=1,5/36=2,99/5=2) pseudo=read geom=check gue
 ss=(read,tcheck) scf=(maxcycle=1)
 ----------------------------------------------------------------------
 -----
 title
 -----
 Structure from the checkpoint file:  "Grambow2020_wb97xd3_007056_reverse_mol2.chk"
 Charge =  0 Multiplicity = 1

                         Standard orientation:
 ---------------------------------------------------------------------
 Center     Atomic      Atomic             Coordinates (Angstroms)
 Number     Number       Type             X           Y           Z
 ---------------------------------------------------------------------
      1          6           0       -2.122677    0.271148    0.050679
      2          6           0       -0.716467   -0.253016    0.031814
      3          8           0       -0.674454   -1.644367    0.026777
      4          6           0        0.297571    0.516715   -0.733928
      5          6           0        0.309794    0.561580    0.785843
      6          6           0        1.658199   -0.113064    0.653301
      7          8           0        1.515088   -0.219870   -0.785874
      8          1           0       -2.639166   -0.066684    0.950531
      9          1           0       -2.133731    1.362467    0.037040
     10          1           0       -2.669463   -0.095567   -0.818893
     11          1           0       -0.348372    4.169661   -0.206155
     12          1           0        0.103968   -1.903815   -0.478585
     13          1           0        0.111591    1.254989   -1.504968
     14          1           0       -0.050660    3.490217   -0.134473
     15          1           0        0.058844    1.355425    1.475244
     16          1           0        1.781594   -1.088219    1.131390
     17          1           0        2.501808    0.535255    0.895397
 ---------------------------------------------------------------------

 SCF Done:  E(RHF) =  -345.166856191     A.U. after    2 cycles

 The electronic state is 1-A.
 Alpha  occ. eigenvalues --  -20.55723 -20.54953 -11.30086 -11.29971 -11.29837
 Alpha  occ. eigenvalues --  -11.24573 -11.23476  -1.49810  -1.45250  -1.14188
 Alpha  occ. eigenvalues --   -0.99448  -0.95069  -0.79817  -0.77400  -0.73735
 Alpha  occ. eigenvalues --   -0.70563  -0.65616  -0.62077  -0.60478  -0.59094
 Alpha  occ. eigenvalues --   -0.56559  -0.55927  -0.54954  -0.52235  -0.49596
 Alpha  occ. eigenvalues --   -0.47630  -0.40416  -0.37962
 Alpha virt. eigenvalues --    0.03545   0.03750   0.04073   0.04672   0.05805
 Alpha virt. eigenvalues --    0.06308   0.06727   0.07123   0.07947   0.10376
 Alpha virt. eigenvalues --    0.10843   0.12748   0.13218   0.14223   0.14371

 Mulliken charges:
               1
     1  C   -0.357337
     2  C    1.069495
     3  O   -1.619349
     4  C    1.527548
     5  C   -0.074894
     6  C    0.448250
     7  O   -1.496385
     8  H    0.233170
     9  H    0.123007
    10  H    0.225385
    11  H    0.053618
    12  H    0.282031
    13  H   -0.161916
    14  H   -0.066980
    15  H   -0.261152
    16  H    0.071476
    17  H    0.004031
 Sum of Mulliken charges =  -0.00000

 Dipole moment (field-independent basis, Debye):
    X=              0.0329    Y=              1.8061    Z=              0.6659  Tot=              1.9252

 Test job not archived.
 1\1\GINC-SE396\SP\RHF\Aug-CC-pVDZ\C5H10O2\OHZDE\09-Apr-2025\0\\#t hf a
 ug-cc-pvdz iop(5/13=1,5/36=2,99/5=2) pseudo=read geom=check guess=(rea
 d,tcheck) scf=(maxcycle=1)\\title\\0,1\C,0,-1.94838363,0.27610464,0.06
 090766\C,0,-0.56424841,0.28519704,0.64109617\O,0,-0.54025976,0.7983920
 7,1.93481279\C,0,0.34572093,-0.83059727,0.27493028\C,0,0.56473836,0.54
 729128,-0.32948718\C,0,1.87433875,0.51551498,0.42869679\O,0,1.5358452,
 -0.74917211,1.05247557\H,0,-2.3419791,1.29243054,0.00809835\H,0,-1.947
 89411,-0.1452413,-0.94594547\H,0,-2.61260556,-0.31863219,0.68916626\H,

 Normal termination of Gaussian 16 at Wed Apr  9 03:34:38 2025.
