 Gaussian 16, Revision C.01,

 ----------------------------------------------------------------------
 #t hf aug-cc-pvdz symm=none int=(grid=ultrafine) guess=(read,tcheck) s
 table=(opt,rrhf)
 ----------------------------------------------------------------------
 -----
 title
 -----
 Symbolic Z-matrix:
 Charge =  0 Multiplicity = 1

 SCF Done:  E(RHF) =  -302.725437909     A.U. after   18 cycles
 Normal termination of Gaussian 16 at Wed Apr  9 03:33:01 2025.
 Gaussian 16:  ES64L-G16RevC.01  3-Jul-2019

 ----------------------------------------------------------------------
 #t hf aug-cc-pvdz iop(5/13=1,5/36=2,99/5=2) pseudo=read geom=check gue
 ss=(read,tcheck) scf=(maxcycle=1)
 ----------------------------------------------------------------------
 -----
 title
 -----
 Structure from the checkpoint file:  "Grambow2020_wb97xd3_006966_forward_mol1.chk"
 Charge =  0 Multiplicity = 1

                         Standard orientation:
 ---------------------------------------------------------------------
 Center     Atomic      Atomic             Coordinates (Angstroms)
 Number     Number       Type             X           Y           Z
 ---------------------------------------------------------------------
      1          6           0        1.645681   -1.167518    0.150632
      2          6           0        0.701200    0.022711    0.064466
      3          6           0        1.435555    1.324678   -0.214644
      4          7           0       -0.374750   -0.191638   -0.932013
      5          6           0       -0.322137    0.007344    1.184526
      6          6           0       -1.531310   -0.142930   -0.131538
      7          7           0       -2.673917    0.084977    0.035772
      8          1           0        2.389837   -1.007656    0.931933
      9          1           0        2.176841   -1.294581   -0.797454
     10          1           0        1.096180   -2.079640    0.385308
     11          1           0        2.053366    1.251891   -1.112124
     12          1           0        0.726960    2.142389   -0.350885
     13          1           0        2.087409    1.569343    0.627172
     14          1           0       -0.321721   -1.088110   -1.405972
     15          1           0       -0.442141    0.987286    1.675056
 ---------------------------------------------------------------------

 SCF Done:  E(RHF) =  -303.037916581     A.U. after    2 cycles

 The electronic state is 1-A.
 Alpha  occ. eigenvalues --  -15.57021 -15.52689 -11.32128 -11.30053 -11.28988
 Alpha  occ. eigenvalues --  -11.25151 -11.24320  -1.31153  -1.21883  -1.07617
 Alpha  occ. eigenvalues --   -0.97013  -0.94913  -0.82150  -0.76743  -0.68466
 Alpha  occ. eigenvalues --   -0.67140  -0.63387  -0.61279  -0.57716  -0.57440
 Alpha  occ. eigenvalues --   -0.56160  -0.52577  -0.51143  -0.49484  -0.46770
 Alpha  occ. eigenvalues --   -0.35698
 Alpha virt. eigenvalues --   -0.00938   0.02957   0.03765   0.04084   0.04198
 Alpha virt. eigenvalues --    0.05566   0.06682   0.07041   0.07857   0.09481
 Alpha virt. eigenvalues --    0.11837   0.12015   0.12840   0.13582   0.13891

 Mulliken charges:
               1
     1  C    0.243481
     2  C   -2.066773
     3  C   -0.002687
     4  N    0.929790
     5  C    0.020926
     6  C   -1.835155
     7  N    1.072833
     8  H    0.192417
     9  H    0.222024
    10  H    0.176716
    11  H    0.212922
    12  H    0.196908
    13  H    0.228378
    14  H    0.300594
    15  H    0.107625
 Sum of Mulliken charges =  -0.00000

 Dipole moment (field-independent basis, Debye):
    X=              5.3349    Y=             -0.6173    Z=             -0.6334  Tot=              5.4077

 Test job not archived.
 1\1\GINC-SE021\SP\RHF\Aug-CC-pVDZ\C5H8N2\OHZDE\09-Apr-2025\0\\#t hf au
 g-cc-pvdz iop(5/13=1,5/36=2,99/5=2) pseudo=read geom=check guess=(read
 ,tcheck) scf=(maxcycle=1)\\title\\0,1\C,0,-0.83508285,1.3982968,0.1160
 3873\C,0,-0.10894616,0.06083653,0.10993313\C,0,-1.04557934,-1.10694246
 ,0.37697271\N,0,0.64777292,-0.15584516,-1.14585708\C,0,1.1902057,0.125
 78934,0.89094088\C,0,1.97243085,-0.24729839,-0.67929333\N,0,3.07757762
 ,-0.64587905,-0.75188882\H,0,-1.33303112,1.55715541,1.07341363\H,0,-1.
 59979283,1.41377818,-0.66634297\H,0,-0.13426102,2.21830398,-0.04342508

 Normal termination of Gaussian 16 at Wed Apr  9 03:33:06 2025.
