 Gaussian 16, Revision C.01,

 ----------------------------------------------------------------------
 #t hf aug-cc-pvdz symm=none int=(grid=ultrafine) guess=(read,tcheck) s
 table=(opt,rrhf)
 ----------------------------------------------------------------------
 -----
 title
 -----
 Symbolic Z-matrix:
 Charge =  0 Multiplicity = 1

 SCF Done:  E(RHF) =  -338.609964573     A.U. after   16 cycles
 Normal termination of Gaussian 16 at Wed Apr  9 03:52:48 2025.
 Gaussian 16:  ES64L-G16RevC.01  3-Jul-2019

 ----------------------------------------------------------------------
 #t hf aug-cc-pvdz iop(5/13=1,5/36=2,99/5=2) pseudo=read geom=check gue
 ss=(read,tcheck) scf=(maxcycle=1)
 ----------------------------------------------------------------------
 -----
 title
 -----
 Structure from the checkpoint file:  "Grambow2020_wb97xd3_008311_reverse_mol1.chk"
 Charge =  0 Multiplicity = 1

                         Standard orientation:
 ---------------------------------------------------------------------
 Center     Atomic      Atomic             Coordinates (Angstroms)
 Number     Number       Type             X           Y           Z
 ---------------------------------------------------------------------
      1          6           0        2.306013    0.378605   -0.193594
      2          8           0        1.447476   -0.724044   -0.000871
      3          6           0        0.231605   -0.394333    0.207161
      4          6           0       -0.125809    1.010939    0.118050
      5          7           0       -1.530036    0.884929   -0.106407
      6          6           0       -1.839802   -0.426865   -0.102319
      7          7           0       -0.827683   -1.232144    0.085222
      8          1           0        3.262239   -0.009719   -0.529129
      9          1           0        2.394253    0.976114    0.715829
     10          1           0        0.743377    1.267986   -0.692375
     11          1           0        0.133916    1.709664    0.913956
     12          1           0       -2.189639    1.637629   -0.156773
     13          1           0       -2.851965   -0.768894   -0.272037
 ---------------------------------------------------------------------

 SCF Done:  E(RHF) =  -338.955023176     A.U. after    2 cycles

 The electronic state is 1-A.
 Alpha  occ. eigenvalues --  -20.61183 -15.57476 -15.51444 -11.36370 -11.36311
 Alpha  occ. eigenvalues --  -11.29200 -11.22130  -1.55496  -1.36868  -1.21556
 Alpha  occ. eigenvalues --   -1.05175  -0.95116  -0.88543  -0.83375  -0.79938
 Alpha  occ. eigenvalues --   -0.71276  -0.69193  -0.66942  -0.64525  -0.60449
 Alpha  occ. eigenvalues --   -0.58493  -0.53259  -0.51637  -0.48815  -0.42794
 Alpha  occ. eigenvalues --   -0.26425
 Alpha virt. eigenvalues --    0.01761   0.03758   0.04443   0.05658   0.05941
 Alpha virt. eigenvalues --    0.06604   0.07304   0.08415   0.09594   0.10302
 Alpha virt. eigenvalues --    0.12115   0.12327   0.13314   0.14122   0.14669

 Mulliken charges:
               1
     1  C   -0.077539
     2  O   -1.300150
     3  C    0.252084
     4  C   -0.567131
     5  N    0.537673
     6  C   -0.284280
     7  N    0.882144
     8  H   -0.106168
     9  H    0.046474
    10  H    0.557092
    11  H    0.009948
    12  H    0.051954
    13  H   -0.002101
 Sum of Mulliken charges =  -0.00000

 Dipole moment (field-independent basis, Debye):
    X=             -5.2112    Y=              2.9783    Z=              0.9995  Tot=              6.0849

 Test job not archived.
 1\1\GINC-SE041\SP\RHF\Aug-CC-pVDZ\C4H6N2O1\OHZDE\09-Apr-2025\0\\#t hf
 aug-cc-pvdz iop(5/13=1,5/36=2,99/5=2) pseudo=read geom=check guess=(re
 ad,tcheck) scf=(maxcycle=1)\\title\\0,1\C,0,2.22563692,-0.04976597,-0.
 11867073\O,0,1.28965976,0.60639144,-0.94539113\C,0,0.07729311,0.299744
 71,-0.68758589\C,0,-0.18725057,-0.56820736,0.44694173\N,0,-1.55576794,
 -0.23813974,0.68427776\C,0,-1.93571839,0.66673934,-0.23963073\N,0,-1.0
 023198,1.01806889,-1.08423945\H,0,3.19406244,0.40485052,-0.30094383\H,
 0,2.22919301,-1.1262315,-0.30050415\H,0,0.79182532,-0.19881262,1.06605

 Normal termination of Gaussian 16 at Wed Apr  9 03:52:53 2025.
