 Gaussian 16, Revision C.01,

 ----------------------------------------------------------------------
 #t hf aug-cc-pvdz symm=none int=(grid=ultrafine) guess=(read,tcheck) s
 table=(opt,rrhf)
 ----------------------------------------------------------------------
 -----
 title
 -----
 Symbolic Z-matrix:
 Charge =  0 Multiplicity = 1

 SCF Done:  E(RHF) =  -358.470965537     A.U. after   13 cycles
 Normal termination of Gaussian 16 at Wed Apr  9 17:43:35 2025.
 Gaussian 16:  ES64L-G16RevC.01  3-Jul-2019

 ----------------------------------------------------------------------
 #t hf aug-cc-pvdz iop(5/13=1,5/36=2,99/5=2) pseudo=read geom=check gue
 ss=(read,tcheck) scf=(maxcycle=1)
 ----------------------------------------------------------------------
 -----
 title
 -----
 Structure from the checkpoint file:  "Grambow2020_wb97xd3_006796_reverse_mol2.chk"
 Charge =  0 Multiplicity = 1

                         Standard orientation:
 ---------------------------------------------------------------------
 Center     Atomic      Atomic             Coordinates (Angstroms)
 Number     Number       Type             X           Y           Z
 ---------------------------------------------------------------------
      1          8           0       -1.372141    0.237151   -0.700662
      2          6           0       -0.651800    0.817418    0.405813
      3          6           0        0.765330    0.874587   -0.189950
      4          6           0        1.709862   -0.137795    0.312912
      5          7           0        0.779835   -0.481443   -0.766699
      6          6           0       -0.567646   -0.861889   -0.281862
      7          8           0       -0.667509   -0.442524    1.080763
      8          1           0       -1.112937    1.660714    0.911191
      9          1           0        1.051294    1.708712   -0.816327
     10          1           0        1.546982   -0.558413    1.295428
     11          1           0        2.739504   -0.086715   -0.018916
     12          1           0       -0.900959   -1.865142   -0.526770
 ---------------------------------------------------------------------

 SCF Done:  E(RHF) =  -358.832498080     A.U. after    2 cycles

 The electronic state is 1-A.
 Alpha  occ. eigenvalues --  -20.57270 -20.56720 -15.51875 -11.39256 -11.37517
 Alpha  occ. eigenvalues --  -11.28291 -11.28070  -1.60735  -1.40393  -1.29392
 Alpha  occ. eigenvalues --   -1.02303  -0.93949  -0.83356  -0.81001  -0.77524
 Alpha  occ. eigenvalues --   -0.73056  -0.67963  -0.66902  -0.58165  -0.56767
 Alpha  occ. eigenvalues --   -0.55460  -0.53749  -0.49127  -0.47170  -0.45608
 Alpha  occ. eigenvalues --   -0.43746
 Alpha virt. eigenvalues --    0.03454   0.03976   0.04727   0.04877   0.05950
 Alpha virt. eigenvalues --    0.08278   0.09478   0.09917   0.10557   0.12937
 Alpha virt. eigenvalues --    0.14059   0.14318   0.15016   0.15452   0.15810

 Mulliken charges:
               1
     1  O   -1.364609
     2  C    1.333201
     3  C    0.128973
     4  C    0.220682
     5  N    0.480231
     6  C    0.752068
     7  O   -1.435672
     8  H    0.102562
     9  H   -0.166923
    10  H   -0.072842
    11  H   -0.058653
    12  H    0.080981
 Sum of Mulliken charges =  -0.00000

 Dipole moment (field-independent basis, Debye):
    X=              1.2424    Y=              1.1235    Z=              1.3872  Tot=              2.1749

 Test job not archived.
 1\1\GINC-SE454\SP\RHF\Aug-CC-pVDZ\C4H5N1O2\OHZDE\09-Apr-2025\0\\#t hf
 aug-cc-pvdz iop(5/13=1,5/36=2,99/5=2) pseudo=read geom=check guess=(re
 ad,tcheck) scf=(maxcycle=1)\\title\\0,1\O,0,0.95959013,-1.52750326,0.1
 4458704\C,0,0.8515474,-0.42814301,-0.78257103\C,0,0.62137869,0.7349598
 ,0.19756937\C,0,-0.75783269,1.24781131,0.26604023\N,0,-0.37986908,0.06
 683469,1.04773404\C,0,-0.41982965,-1.19162892,0.26659085\O,0,-0.477001
 75,-0.8363881,-1.11656514\H,0,1.57827472,-0.38462474,-1.58828513\H,0,1
 .46787369,1.21420755,0.67049039\H,0,-1.40306986,1.12084815,-0.59206011

 Normal termination of Gaussian 16 at Wed Apr  9 17:43:39 2025.
