 Gaussian 16, Revision C.01,

 ----------------------------------------------------------------------
 #t hf aug-cc-pvdz symm=none int=(grid=ultrafine) guess=(read,tcheck) s
 table=(opt,rrhf)
 ----------------------------------------------------------------------
 -----
 title
 -----
 Symbolic Z-matrix:
 Charge =  0 Multiplicity = 1

 SCF Done:  E(RHF) =  -263.796632411     A.U. after   15 cycles
 Normal termination of Gaussian 16 at Wed Apr  9 15:51:43 2025.
 Gaussian 16:  ES64L-G16RevC.01  3-Jul-2019

 ----------------------------------------------------------------------
 #t hf aug-cc-pvdz iop(5/13=1,5/36=2,99/5=2) pseudo=read geom=check gue
 ss=(read,tcheck) scf=(maxcycle=1)
 ----------------------------------------------------------------------
 -----
 title
 -----
 Structure from the checkpoint file:  "Grambow2020_b97d3_006859_reverse_mol2.chk"
 Charge =  0 Multiplicity = 1

                         Standard orientation:
 ---------------------------------------------------------------------
 Center     Atomic      Atomic             Coordinates (Angstroms)
 Number     Number       Type             X           Y           Z
 ---------------------------------------------------------------------
      1          6           0        1.520723   -1.106705    0.090650
      2          6           0        0.362519   -0.129347    0.043735
      3          6           0       -1.004393   -0.708063   -0.084474
      4          7           0       -2.047344    0.016239    0.095843
      5          7           0        0.597205    1.213377   -0.749629
      6          6           0        0.480108    1.248246    0.506120
      7          1           0        2.476206   -0.571600    0.144652
      8          1           0        1.445544   -1.765360    0.969273
      9          1           0        1.535658   -1.742189   -0.807725
     10          1           0       -1.025395   -1.784298   -0.335800
     11          1           0       -2.899301   -0.542533   -0.049027
     12          1           0        0.464522    1.973889    1.318939
 ---------------------------------------------------------------------

 SCF Done:  E(RHF) =  -264.066837508     A.U. after    2 cycles

 The electronic state is 1-A.
 Alpha  occ. eigenvalues --  -15.53780 -15.50443 -11.30605 -11.29964 -11.29370
 Alpha  occ. eigenvalues --  -11.24538  -1.31152  -1.20898  -1.02571  -0.89974
 Alpha  occ. eigenvalues --   -0.81345  -0.77672  -0.72207  -0.66632  -0.63122
 Alpha  occ. eigenvalues --   -0.59155  -0.57122  -0.54760  -0.49664  -0.47878
 Alpha  occ. eigenvalues --   -0.44917  -0.40361
 Alpha virt. eigenvalues --    0.03342   0.03910   0.04106   0.04963   0.05572
 Alpha virt. eigenvalues --    0.07414   0.08233   0.09648   0.10234   0.10601
 Alpha virt. eigenvalues --    0.12710   0.13174   0.13618   0.14615   0.15220

 Mulliken charges:
               1
     1  C   -0.687460
     2  C   -0.354261
     3  C   -0.671057
     4  N    0.492824
     5  N    0.519355
     6  C    0.042292
     7  H    0.170256
     8  H    0.274453
     9  H    0.232287
    10  H   -0.151033
    11  H    0.138999
    12  H   -0.006656
 Sum of Mulliken charges =  -0.00000

 Dipole moment (field-independent basis, Debye):
    X=              0.8618    Y=             -2.7491    Z=              2.2572  Tot=              3.6599

 Test job not archived.
 1\1\GINC-SE129\SP\RHF\Aug-CC-pVDZ\C4H6N2\OHZDE\09-Apr-2025\0\\#t hf au
 g-cc-pvdz iop(5/13=1,5/36=2,99/5=2) pseudo=read geom=check guess=(read
 ,tcheck) scf=(maxcycle=1)\\title\\0,1\C,0,-1.51088852,-0.38834604,0.18
 092506\C,0,-0.11853445,0.2107919,0.14558503\C,0,0.99806228,-0.69828579
 ,-0.23728249\N,0,2.1614184,-0.23459425,-0.5138059\N,0,0.23091757,1.263
 61677,1.26668025\C,0,0.11475984,1.64792001,0.07058258\H,0,-2.24396924,
 0.35646329,0.51266949\H,0,-1.81152691,-0.74637606,-0.81551262\H,0,-1.5
 5413587,-1.2421364,0.87396988\H,0,0.72914263,-1.77017281,-0.26238276\H

 Normal termination of Gaussian 16 at Wed Apr  9 15:51:47 2025.
