 Gaussian 16, Revision C.01,

 ----------------------------------------------------------------------
 #t hf aug-cc-pvdz symm=none int=(grid=ultrafine) guess=(read,tcheck) s
 table=(opt,rrhf)
 ----------------------------------------------------------------------
 -----
 title
 -----
 Symbolic Z-matrix:
 Charge =  0 Multiplicity = 1

 SCF Done:  E(RHF) =  -271.918386501     A.U. after   15 cycles
 Normal termination of Gaussian 16 at Wed Apr  9 03:40:21 2025.
 Gaussian 16:  ES64L-G16RevC.01  3-Jul-2019

 ----------------------------------------------------------------------
 #t hf aug-cc-pvdz iop(5/13=1,5/36=2,99/5=2) pseudo=read geom=check gue
 ss=(read,tcheck) scf=(maxcycle=1)
 ----------------------------------------------------------------------
 -----
 title
 -----
 Structure from the checkpoint file:  "Grambow2020_wb97xd3_007437_reverse_mol2.chk"
 Charge =  0 Multiplicity = 1

                         Standard orientation:
 ---------------------------------------------------------------------
 Center     Atomic      Atomic             Coordinates (Angstroms)
 Number     Number       Type             X           Y           Z
 ---------------------------------------------------------------------
      1          6           0        2.760624   -0.160787   -0.310918
      2          6           0        1.364942   -0.672421    0.026458
      3          6           0        0.497659    0.414192    0.608849
      4          6           0       -0.268346    1.303217   -0.293606
      5          6           0       -2.243139   -0.169377   -0.932779
      6          6           0       -1.750751   -0.979638    0.173418
      7          6           0       -1.006739    0.294563    0.628747
      8          1           0        3.380944   -0.952033   -0.734589
      9          1           0        3.266729    0.218869    0.579832
     10          1           0        2.710812    0.653663   -1.036816
     11          1           0        0.892410   -1.065568   -0.877851
     12          1           0        1.433242   -1.505847    0.732795
     13          1           0        0.894194    0.871264    1.510594
     14          1           0       -0.215977    1.108196   -1.352751
     15          1           0       -0.407375    2.342018   -0.026449
     16          1           0       -3.075454    0.441896   -0.537004
     17          1           0       -2.421687   -1.279713    0.981281
     18          1           0       -1.077997   -1.793039   -0.094754
     19          1           0       -1.505351    0.781795    1.454697
 ---------------------------------------------------------------------

 SCF Done:  E(RHF) =  -272.214609592     A.U. after    2 cycles

 The electronic state is 1-A.
 Alpha  occ. eigenvalues --  -11.26165 -11.24941 -11.24510 -11.24452 -11.23813
 Alpha  occ. eigenvalues --  -11.23366 -11.22546  -1.17807  -1.05656  -1.01760
 Alpha  occ. eigenvalues --   -0.87821  -0.82779  -0.76902  -0.76209  -0.69948
 Alpha  occ. eigenvalues --   -0.63556  -0.62280  -0.59150  -0.56488  -0.55269
 Alpha  occ. eigenvalues --   -0.52951  -0.50385  -0.50066  -0.48249  -0.43082
 Alpha  occ. eigenvalues --   -0.41553  -0.33814
 Alpha virt. eigenvalues --    0.02992   0.03344   0.03559   0.04410   0.05649
 Alpha virt. eigenvalues --    0.05675   0.06018   0.06591   0.07214   0.08715
 Alpha virt. eigenvalues --    0.09153   0.10030   0.10819   0.12578   0.13639

 Mulliken charges:
               1
     1  C   -0.412754
     2  C   -0.603238
     3  C    0.544120
     4  C    0.080741
     5  C   -0.195009
     6  C   -0.058033
     7  C    0.175832
     8  H    0.119345
     9  H    0.191513
    10  H    0.178681
    11  H    0.137665
    12  H    0.122589
    13  H   -0.231589
    14  H   -0.004044
    15  H   -0.130588
    16  H    0.136106
    17  H    0.082412
    18  H    0.116776
    19  H   -0.250525
 Sum of Mulliken charges =  -0.00000

 Dipole moment (field-independent basis, Debye):
    X=              0.7732    Y=              0.2615    Z=              2.3903  Tot=              2.5258

 Test job not archived.
 1\1\GINC-SE333\SP\RHF\Aug-CC-pVDZ\C7H12\OHZDE\09-Apr-2025\0\\#t hf aug
 -cc-pvdz iop(5/13=1,5/36=2,99/5=2) pseudo=read geom=check guess=(read,
 tcheck) scf=(maxcycle=1)\\title\\0,1\C,0,2.46199052,0.32271492,-0.8250
 8272\C,0,1.05695044,-0.2683703,-0.82598037\C,0,0.46926134,-0.31321299,
 0.56135541\C,0,-0.24843677,0.86790651,1.09184601\C,0,-2.50958036,0.671
 75668,-0.05951875\C,0,-2.0190728,-0.66382937,-0.37297322\C,0,-1.017882
 73,-0.44564997,0.78222403\H,0,2.87902975,0.35456172,-1.83276721\H,0,3.
 13767518,-0.26913367,-0.20308473\H,0,2.45466461,1.34121316,-0.43094289

 Normal termination of Gaussian 16 at Wed Apr  9 03:40:29 2025.
