 Gaussian 16, Revision C.01,

 ----------------------------------------------------------------------
 #t hf aug-cc-pvdz symm=none int=(grid=ultrafine) guess=(read,tcheck) s
 table=(opt,rrhf)
 ----------------------------------------------------------------------
 -----
 title
 -----
 Symbolic Z-matrix:
 Charge =  0 Multiplicity = 1

 SCF Done:  E(RHF) =  -305.667817145     A.U. after   15 cycles
 Normal termination of Gaussian 16 at Wed Apr  9 03:05:54 2025.
 Gaussian 16:  ES64L-G16RevC.01  3-Jul-2019

 ----------------------------------------------------------------------
 #t hf aug-cc-pvdz iop(5/13=1,5/36=2,99/5=2) pseudo=read geom=check gue
 ss=(read,tcheck) scf=(maxcycle=1)
 ----------------------------------------------------------------------
 -----
 title
 -----
 Structure from the checkpoint file:  "Grambow2020_b97d3_006510_reverse_mol1.chk"
 Charge =  0 Multiplicity = 1

                         Standard orientation:
 ---------------------------------------------------------------------
 Center     Atomic      Atomic             Coordinates (Angstroms)
 Number     Number       Type             X           Y           Z
 ---------------------------------------------------------------------
      1          8           0       -1.807466   -1.021481    0.084034
      2          6           0       -1.349052    0.874800    0.010455
      3          6           0       -0.038578    0.404990    0.014449
      4          6           0        0.924155   -0.025913    1.074119
      5          6           0        1.808585   -0.365061   -0.151369
      6          8           0        0.741828    0.135792   -1.051694
      7          1           0       -1.949282   -1.248400   -0.857914
      8          1           0       -1.861732    1.156528   -0.903907
      9          1           0       -1.836466    1.059021    0.963119
     10          1           0       -0.445007    2.092228    0.104147
     11          1           0        1.292394    0.772879    1.726691
     12          1           0        0.557957   -0.876102    1.655692
     13          1           0        1.976308   -1.428939   -0.344410
     14          1           0        2.720274    0.225399   -0.288065
 ---------------------------------------------------------------------

 SCF Done:  E(RHF) =  -305.984368863     A.U. after    2 cycles

 The electronic state is 1-A.
 Alpha  occ. eigenvalues --  -20.62469 -20.42698 -11.40649 -11.34355 -11.32222
 Alpha  occ. eigenvalues --  -11.28976  -1.56029  -1.26581  -1.09847  -1.06434
 Alpha  occ. eigenvalues --   -0.91969  -0.78362  -0.73154  -0.72851  -0.70624
 Alpha  occ. eigenvalues --   -0.61377  -0.59198  -0.57792  -0.55134  -0.53768
 Alpha  occ. eigenvalues --   -0.50928  -0.46185  -0.36029  -0.30654
 Alpha virt. eigenvalues --    0.02511   0.03382   0.04007   0.04598   0.06119
 Alpha virt. eigenvalues --    0.06529   0.07232   0.07466   0.09200   0.11503
 Alpha virt. eigenvalues --    0.12084   0.12341   0.13110   0.13865   0.14454

 Mulliken charges:
               1
     1  O   -1.078737
     2  C    0.119080
     3  C    1.290613
     4  C   -0.429795
     5  C    0.543123
     6  O   -1.381585
     7  H    0.305838
     8  H   -0.056824
     9  H   -0.011418
    10  H    0.261192
    11  H    0.131126
    12  H    0.183129
    13  H    0.073223
    14  H    0.051034
 Sum of Mulliken charges =   0.00000

 Dipole moment (field-independent basis, Debye):
    X=              4.6776    Y=              2.1503    Z=              0.5889  Tot=              5.1817

 Test job not archived.
 1\1\GINC-SE073\SP\RHF\Aug-CC-pVDZ\C4H8O2\OHZDE\09-Apr-2025\0\\#t hf au
 g-cc-pvdz iop(5/13=1,5/36=2,99/5=2) pseudo=read geom=check guess=(read
 ,tcheck) scf=(maxcycle=1)\\title\\0,1\O,0,-1.92790156,0.64541658,-0.80
 237911\C,0,-1.3153093,-0.8584696,0.28136199\C,0,-0.09106871,-0.1969998
 7,0.23925826\C,0,1.04168442,-0.13570798,-0.73467559\C,0,1.58477666,0.9
 0888091,0.27177622\O,0,0.39456458,0.69172571,1.12947665\H,0,-2.3029429
 7,1.25651336,-0.13546457\H,0,-1.99350495,-0.77093059,1.12436694\H,0,-1
 .55143445,-1.56260809,-0.51079467\H,0,-0.29921174,-1.76962234,0.948859

 Normal termination of Gaussian 16 at Wed Apr  9 03:05:58 2025.
