 Gaussian 16, Revision C.01,

 ----------------------------------------------------------------------
 #t hf aug-cc-pvdz symm=none int=(grid=ultrafine) guess=(read,tcheck) s
 table=(opt,rrhf)
 ----------------------------------------------------------------------
 -----
 title
 -----
 Symbolic Z-matrix:
 Charge =  0 Multiplicity = 1

 SCF Done:  E(RHF) =  -333.559022330     A.U. after   17 cycles
 Normal termination of Gaussian 16 at Wed Apr  9 03:33:07 2025.
 Gaussian 16:  ES64L-G16RevC.01  3-Jul-2019

 ----------------------------------------------------------------------
 #t hf aug-cc-pvdz iop(5/13=1,5/36=2,99/5=2) pseudo=read geom=check gue
 ss=(read,tcheck) scf=(maxcycle=1)
 ----------------------------------------------------------------------
 -----
 title
 -----
 Structure from the checkpoint file:  "Grambow2020_wb97xd3_006982_reverse_mol1.chk"
 Charge =  0 Multiplicity = 1

                         Standard orientation:
 ---------------------------------------------------------------------
 Center     Atomic      Atomic             Coordinates (Angstroms)
 Number     Number       Type             X           Y           Z
 ---------------------------------------------------------------------
      1          7           0        2.211634   -0.277403   -0.252143
      2          6           0        0.948057    0.067473    0.102440
      3          6           0       -0.178109   -0.728070    0.589033
      4          7           0       -1.030368   -1.199935   -0.327464
      5          6           0       -1.691958   -0.046342   -0.303368
      6          7           0       -1.076601    1.052319    0.199753
      7          7           0        0.355937    1.189555   -0.057772
      8          1           0        2.770956    0.474647   -0.620909
      9          1           0        2.701004   -0.933090    0.330342
     10          1           0       -0.436366   -0.697505    1.651011
     11          1           0       -2.727754    0.045830   -0.625693
 ---------------------------------------------------------------------

 SCF Done:  E(RHF) =  -333.893659895     A.U. after    2 cycles

 The electronic state is 1-A.
 Alpha  occ. eigenvalues --  -15.55314 -15.53719 -15.51966 -15.50172 -11.40266
 Alpha  occ. eigenvalues --  -11.34410 -11.33365  -1.38528  -1.28174  -1.22652
 Alpha  occ. eigenvalues --   -1.11195  -0.96313  -0.88613  -0.80343  -0.78911
 Alpha  occ. eigenvalues --   -0.75919  -0.70852  -0.69154  -0.61494  -0.56459
 Alpha  occ. eigenvalues --   -0.55929  -0.50452  -0.44654  -0.43747  -0.37470
 Alpha virt. eigenvalues --    0.01613   0.03498   0.04232   0.05197   0.05705
 Alpha virt. eigenvalues --    0.08052   0.09223   0.10450   0.10753   0.11080
 Alpha virt. eigenvalues --    0.11224   0.12954   0.13549   0.14299   0.14587

 Mulliken charges:
               1
     1  N    0.707107
     2  C   -1.586375
     3  C   -0.305581
     4  N    0.524454
     5  C   -0.394763
     6  N   -0.043254
     7  N    0.636454
     8  H    0.127625
     9  H    0.186624
    10  H    0.134602
    11  H    0.013108
 Sum of Mulliken charges =   0.00000

 Dipole moment (field-independent basis, Debye):
    X=              3.2763    Y=             -2.9783    Z=              2.0948  Tot=              4.8982

 Test job not archived.
 1\1\GINC-SE179\SP\RHF\Aug-CC-pVDZ\C3H4N4\OHZDE\09-Apr-2025\0\\#t hf au
 g-cc-pvdz iop(5/13=1,5/36=2,99/5=2) pseudo=read geom=check guess=(read
 ,tcheck) scf=(maxcycle=1)\\title\\0,1\N,0,2.01893546,-0.4400068,-0.200
 50652\C,0,0.69533115,-0.18303701,-0.35326569\C,0,-0.17374634,0.8333382
 7,0.23800089\N,0,-0.81276659,0.50542757,1.3663169\C,0,-1.77930862,-0.0
 6344462,0.65130666\N,0,-1.52955152,-0.40064694,-0.63817605\N,0,-0.1876
 0884,-0.88948697,-0.9504985\H,0,2.35320296,-1.25669584,-0.68598878\H,0
 ,2.65061809,0.34064369,-0.18444576\H,0,-0.47606153,1.69516202,-0.36307

 Normal termination of Gaussian 16 at Wed Apr  9 03:33:11 2025.
