 Gaussian 16, Revision C.01,

 ----------------------------------------------------------------------
 #t hf aug-cc-pvdz symm=none int=(grid=ultrafine) guess=(read,tcheck) s
 table=(opt,rrhf)
 ----------------------------------------------------------------------
 -----
 title
 -----
 Symbolic Z-matrix:
 Charge =  0 Multiplicity = 1

 SCF Done:  E(RHF) =  -320.752917175     A.U. after   13 cycles
 Normal termination of Gaussian 16 at Wed Apr  9 16:07:41 2025.
 Gaussian 16:  ES64L-G16RevC.01  3-Jul-2019

 ----------------------------------------------------------------------
 #t hf aug-cc-pvdz iop(5/13=1,5/36=2,99/5=2) pseudo=read geom=check gue
 ss=(read,tcheck) scf=(maxcycle=1)
 ----------------------------------------------------------------------
 -----
 title
 -----
 Structure from the checkpoint file:  "Grambow2020_b97d3_007133_forward_mol2.chk"
 Charge =  0 Multiplicity = 1

                         Standard orientation:
 ---------------------------------------------------------------------
 Center     Atomic      Atomic             Coordinates (Angstroms)
 Number     Number       Type             X           Y           Z
 ---------------------------------------------------------------------
      1          8           0        2.076496   -0.019089    0.037445
      2          6           0        0.867322   -0.005393   -0.014506
      3          7           0        0.024445    1.086819   -0.194927
      4          6           0       -1.345584    0.744843    0.157976
      5          6           0       -1.300054   -0.772038   -0.113795
      6          8           0        0.079204   -1.139719    0.085523
      7          1           0        0.411650    1.992740    0.046146
      8          1           0       -1.576555    0.963773    1.214855
      9          1           0       -2.079564    1.255697   -0.478701
     10          1           0       -1.580927   -0.997900   -1.152664
     11          1           0       -1.921418   -1.356051    0.573056
 ---------------------------------------------------------------------

 SCF Done:  E(RHF) =  -321.074975971     A.U. after    2 cycles

 The electronic state is 1-A.
 Alpha  occ. eigenvalues --  -20.59483 -20.52331 -15.54311 -11.41699 -11.32220
 Alpha  occ. eigenvalues --  -11.30489  -1.53892  -1.45032  -1.25343  -1.04018
 Alpha  occ. eigenvalues --   -0.89684  -0.85761  -0.73960  -0.72825  -0.67797
 Alpha  occ. eigenvalues --   -0.63302  -0.61242  -0.60158  -0.59272  -0.53679
 Alpha  occ. eigenvalues --   -0.45966  -0.45415  -0.43970
 Alpha virt. eigenvalues --    0.02677   0.03862   0.03975   0.04843   0.06159
 Alpha virt. eigenvalues --    0.08959   0.10093   0.10922   0.11505   0.13239
 Alpha virt. eigenvalues --    0.14333   0.14572   0.14610   0.15733   0.16813

 Mulliken charges:
               1
     1  O   -1.157326
     2  C    1.393569
     3  N    0.418793
     4  C   -0.462233
     5  C    0.523032
     6  O   -1.234485
     7  H    0.134660
     8  H    0.040069
     9  H    0.118709
    10  H    0.122232
    11  H    0.102980
 Sum of Mulliken charges =  -0.00000

 Dipole moment (field-independent basis, Debye):
    X=             -5.1557    Y=              1.8859    Z=              0.4102  Tot=              5.5051

 Test job not archived.
 1\1\GINC-SE219\SP\RHF\Aug-CC-pVDZ\C3H5N1O2\OHZDE\09-Apr-2025\0\\#t hf
 aug-cc-pvdz iop(5/13=1,5/36=2,99/5=2) pseudo=read geom=check guess=(re
 ad,tcheck) scf=(maxcycle=1)\\title\\0,1\O,0,2.64948849,0.04785102,-0.2
 2445092\C,0,1.44498314,0.10535583,-0.12029972\N,0,0.60340609,-0.718248
 99,0.62087678\C,0,-0.78088635,-0.550461,0.20368467\C,0,-0.70640903,0.8
 9552635,-0.32587603\O,0,0.66299099,1.064079,-0.74253075\H,0,0.96829866
 ,-1.63615589,0.85117244\H,0,-1.07212573,-1.261296,-0.58888298\H,0,-1.4
 8308764,-0.6466391,1.04196826\H,0,-0.92713923,1.6216549,0.46984132\H,0

 Normal termination of Gaussian 16 at Wed Apr  9 16:07:45 2025.
