 Gaussian 16, Revision C.01,

 ----------------------------------------------------------------------
 #t hf aug-cc-pvdz symm=none int=(grid=ultrafine) guess=(read,tcheck) s
 table=(opt,rrhf)
 ----------------------------------------------------------------------
 -----
 title
 -----
 Symbolic Z-matrix:
 Charge =  0 Multiplicity = 1

 SCF Done:  E(RHF) =  -322.686242516     A.U. after   13 cycles
 Normal termination of Gaussian 16 at Wed Apr  9 03:26:47 2025.
 Gaussian 16:  ES64L-G16RevC.01  3-Jul-2019

 ----------------------------------------------------------------------
 #t hf aug-cc-pvdz iop(5/13=1,5/36=2,99/5=2) pseudo=read geom=check gue
 ss=(read,tcheck) scf=(maxcycle=1)
 ----------------------------------------------------------------------
 -----
 title
 -----
 Structure from the checkpoint file:  "Grambow2020_wb97xd3_006632_reverse_mol2.chk"
 Charge =  0 Multiplicity = 1

                         Standard orientation:
 ---------------------------------------------------------------------
 Center     Atomic      Atomic             Coordinates (Angstroms)
 Number     Number       Type             X           Y           Z
 ---------------------------------------------------------------------
      1          8           0        3.297280   -0.169020   -0.298313
      2          6           0        2.864409    0.640857    0.348506
      3          6           0       -1.215052    1.276591   -0.210190
      4          6           0       -1.632124   -0.004965   -0.792421
      5          6           0       -0.590699   -1.083159   -0.550812
      6          6           0       -0.714781   -0.711793    0.941984
      7          7           0       -1.805519    0.273765    0.672789
      8          1           0       -0.157890    1.507106   -0.106455
      9          1           0       -1.857173    2.134293   -0.366617
     10          1           0       -2.482960   -0.087289   -1.458200
     11          1           0        0.372699   -0.949228   -1.045700
     12          1           0       -0.957165   -2.087055   -0.757773
     13          1           0        0.159177   -0.265106    1.422831
     14          1           0       -1.086813   -1.522108    1.566499
 ---------------------------------------------------------------------

 SCF Done:  E(RHF) =  -323.014210649     A.U. after    2 cycles

 The electronic state is 1-A.
 Alpha  occ. eigenvalues --  -20.66233 -15.49555 -11.37914 -11.26505 -11.26110
 Alpha  occ. eigenvalues --  -11.25962 -11.23862  -1.61660  -1.29995  -1.01710
 Alpha  occ. eigenvalues --   -0.94281  -0.84142  -0.81707  -0.75867  -0.70715
 Alpha  occ. eigenvalues --   -0.65498  -0.64631  -0.64527  -0.62978  -0.56514
 Alpha  occ. eigenvalues --   -0.56066  -0.55035  -0.49686  -0.47713  -0.45318
 Alpha  occ. eigenvalues --   -0.39744
 Alpha virt. eigenvalues --    0.03883   0.04391   0.04574   0.05079   0.05986
 Alpha virt. eigenvalues --    0.06553   0.06725   0.08557   0.10272   0.10533
 Alpha virt. eigenvalues --    0.11303   0.11913   0.13461   0.14050   0.14431

 Mulliken charges:
               1
     1  O   -0.488885
     2  C    0.497551
     3  C    0.098637
     4  C    0.158554
     5  C   -0.036795
     6  C   -0.094277
     7  N    0.217030
     8  H   -0.094295
     9  H   -0.111967
    10  H   -0.206629
    11  H    0.006713
    12  H    0.076971
    13  H   -0.003146
    14  H   -0.019463
 Sum of Mulliken charges =  -0.00000

 Dipole moment (field-independent basis, Debye):
    X=              1.5536    Y=             -0.4176    Z=             -1.4069  Tot=              2.1372

 Test job not archived.
 1\1\GINC-SE229\SP\RHF\Aug-CC-pVDZ\C5H7N1O1\OHZDE\09-Apr-2025\0\\#t hf
 aug-cc-pvdz iop(5/13=1,5/36=2,99/5=2) pseudo=read geom=check guess=(re
 ad,tcheck) scf=(maxcycle=1)\\title\\0,1\O,0,1.97352807,0.32886312,3.14
 50768\C,0,1.59062946,1.28587154,2.69878581\C,0,0.29188795,0.93307182,-
 1.24419577\C,0,0.01932061,-0.50677356,-1.33296581\C,0,-0.09697184,-1.1
 3011556,0.04665887\C,0,-1.16134766,-0.04746364,0.32363927\N,0,-1.08531
 137,0.47671025,-1.07384424\H,0,0.82042436,1.33325388,-0.38280596\H,0,0
 .44756049,1.47475926,-2.1687396\H,0,0.08608399,-1.05073904,-2.26763393

 Normal termination of Gaussian 16 at Wed Apr  9 03:26:52 2025.
