 Gaussian 16, Revision C.01,

 ----------------------------------------------------------------------
 #t hf aug-cc-pvdz symm=none int=(grid=ultrafine) guess=(read,tcheck) s
 table=(opt,rrhf)
 ----------------------------------------------------------------------
 -----
 title
 -----
 Symbolic Z-matrix:
 Charge =  0 Multiplicity = 1

 SCF Done:  E(RHF) =  -359.725963481     A.U. after   15 cycles
 Normal termination of Gaussian 16 at Wed Apr  9 18:17:10 2025.
 Gaussian 16:  ES64L-G16RevC.01  3-Jul-2019

 ----------------------------------------------------------------------
 #t hf aug-cc-pvdz iop(5/13=1,5/36=2,99/5=2) pseudo=read geom=check gue
 ss=(read,tcheck) scf=(maxcycle=1)
 ----------------------------------------------------------------------
 -----
 title
 -----
 Structure from the checkpoint file:  "Grambow2020_wb97xd3_007276_reverse_mol2.chk"
 Charge =  0 Multiplicity = 1

                         Standard orientation:
 ---------------------------------------------------------------------
 Center     Atomic      Atomic             Coordinates (Angstroms)
 Number     Number       Type             X           Y           Z
 ---------------------------------------------------------------------
      1          8           0        1.528064   -1.537497   -0.239517
      2          6           0        0.631069   -0.448513   -0.320236
      3          6           0       -0.710455   -0.791528    0.325101
      4          7           0       -1.570305    0.367986    0.338361
      5          6           0       -2.674160    0.296096   -0.258242
      6          6           0        1.259298    0.771203    0.337236
      7          8           0        1.515802    1.794348   -0.224490
      8          1           0        1.615298   -1.810265    0.677880
      9          1           0        0.500854   -0.230340   -1.380911
     10          1           0       -1.144071   -1.657375   -0.193831
     11          1           0       -0.527296   -1.078981    1.368162
     12          1           0        1.510791    0.626621    1.413973
     13          1           0       -3.331461    1.163106   -0.266018
     14          1           0       -3.017417   -0.607017   -0.778885
 ---------------------------------------------------------------------

 SCF Done:  E(RHF) =  -360.089611214     A.U. after    2 cycles

 The electronic state is 1-A.
 Alpha  occ. eigenvalues --  -20.57565 -20.55141 -15.52143 -11.34196 -11.30934
 Alpha  occ. eigenvalues --  -11.30088 -11.28477  -1.49032  -1.47579  -1.25976
 Alpha  occ. eigenvalues --   -1.05767  -0.93801  -0.84211  -0.81524  -0.71581
 Alpha  occ. eigenvalues --   -0.71255  -0.68309  -0.66560  -0.66116  -0.60524
 Alpha  occ. eigenvalues --   -0.56737  -0.55019  -0.51687  -0.50752  -0.46735
 Alpha  occ. eigenvalues --   -0.45799  -0.40682
 Alpha virt. eigenvalues --    0.02999   0.03541   0.04359   0.05092   0.05402
 Alpha virt. eigenvalues --    0.05848   0.07275   0.07736   0.10477   0.11359
 Alpha virt. eigenvalues --    0.12082   0.12774   0.13223   0.14558   0.15118

 Mulliken charges:
               1
     1  O   -1.213552
     2  C    0.773762
     3  C   -0.615678
     4  N    0.641162
     5  C   -0.351067
     6  C    1.200454
     7  O   -1.129915
     8  H    0.264634
     9  H    0.002491
    10  H    0.119453
    11  H    0.085645
    12  H    0.141798
    13  H    0.011876
    14  H    0.068937
 Sum of Mulliken charges =  -0.00000

 Dipole moment (field-independent basis, Debye):
    X=             -2.9885    Y=             -3.1190    Z=              1.1106  Tot=              4.4601

 Test job not archived.
 1\1\GINC-SE340\SP\RHF\Aug-CC-pVDZ\C4H7N1O2\OHZDE\09-Apr-2025\0\\#t hf
 aug-cc-pvdz iop(5/13=1,5/36=2,99/5=2) pseudo=read geom=check guess=(re
 ad,tcheck) scf=(maxcycle=1)\\title\\0,1\O,0,2.13234026,0.13711122,0.66
 165706\C,0,0.88236875,-0.39280532,0.26953109\C,0,-0.06429762,0.7139246
 6,-0.19174687\N,0,-1.29044235,0.14465408,-0.69819505\C,0,-2.36981326,0
 .46630152,-0.14043186\C,0,1.09481531,-1.42471592,-0.82804541\O,0,0.814
 87328,-2.58320775,-0.74038137\H,0,2.49511854,0.66144441,-0.05743687\H,
 0,0.4747355,-0.90650478,1.1410444\H,0,-0.21408849,1.42176132,0.6350148

 Normal termination of Gaussian 16 at Wed Apr  9 18:17:13 2025.
