 Gaussian 16, Revision C.01,

 ----------------------------------------------------------------------
 #t hf aug-cc-pvdz symm=none int=(grid=ultrafine) guess=(read,tcheck) s
 table=(opt,rrhf)
 ----------------------------------------------------------------------
 -----
 title
 -----
 Symbolic Z-matrix:
 Charge =  0 Multiplicity = 1

 SCF Done:  E(RHF) =  -307.911717139     A.U. after   14 cycles

 1\1\GINC-SE454\Stability\RHF\Aug-CC-pVDZ\C6H10O1\OHZDE\09-Apr-2025\0\\
 #t hf aug-cc-pvdz symm=none int=(grid=ultrafine) guess=(read,tcheck) s
 table=(opt,rrhf)\\title\\0,1\C,0,-2.24206405,0.24418059,0.34736277\C,0
 ,-0.74469139,0.14069466,0.52590906\C,0,-0.10040702,-0.93938485,-0.3316
 709\C,0,1.40448088,-0.98655544,-0.08269019\C,0,1.94497347,0.41211573,-
 0.0205993\C,0,1.14616834,1.46854637,0.08195908\O,0,-0.20090018,1.42571
 222,0.21311556\H,0,-2.72594474,-0.68076441,0.6653861\H,0,-2.48841846,0
 .42518169,-0.70069167\H,0,-2.6417951,1.06666041,0.94110267\H,0,-0.5078

 Normal termination of Gaussian 16 at Wed Apr  9 19:16:08 2025.
 Gaussian 16:  ES64L-G16RevC.01  3-Jul-2019

 ----------------------------------------------------------------------
 #t hf aug-cc-pvdz iop(5/13=1,5/36=2,99/5=2) pseudo=read geom=check gue
 ss=(read,tcheck) scf=(maxcycle=1)
 ----------------------------------------------------------------------
 -----
 title
 -----
 Structure from the checkpoint file:  "Grambow2020_wb97xd3_009028_reverse_mol2.chk"
 Charge =  0 Multiplicity = 1

                         Standard orientation:
 ---------------------------------------------------------------------
 Center     Atomic      Atomic             Coordinates (Angstroms)
 Number     Number       Type             X           Y           Z
 ---------------------------------------------------------------------
      1          6           0        2.358949    0.035829   -0.015287
      2          6           0        0.888269    0.052890    0.333314
      3          6           0        0.124500    1.209156   -0.296624
      4          6           0       -1.344355    1.160836    0.114515
      5          6           0       -1.837112   -0.254921    0.043165
      6          6           0       -1.003932   -1.281732   -0.083810
      7          8           0        0.347751   -1.200964   -0.091550
      8          1           0        2.850142    0.929905    0.372219
      9          1           0        2.492667    0.005070   -1.098358
     10          1           0        2.843701   -0.840595    0.415622
     11          1           0        0.764193    0.102489    1.424503
     12          1           0        0.212888    1.126119   -1.384343
     13          1           0        0.588291    2.153333   -0.002820
     14          1           0       -1.471350    1.564284    1.125035
     15          1           0       -2.900105   -0.458116    0.053600
     16          1           0       -1.339341   -2.305164   -0.201138
     17          1           0       -1.941018    1.798051   -0.543556
 ---------------------------------------------------------------------

 SCF Done:  E(RHF) =  -308.238476502     A.U. after    2 cycles

 The electronic state is 1-A.
 Alpha  occ. eigenvalues --  -20.55799 -11.28899 -11.28611 -11.23439 -11.23080
 Alpha  occ. eigenvalues --  -11.22541 -11.21828  -1.48909  -1.09216  -1.06218
 Alpha  occ. eigenvalues --   -0.95691  -0.87598  -0.84339  -0.73984  -0.69738
 Alpha  occ. eigenvalues --   -0.64758  -0.63592  -0.60829  -0.57484  -0.56599
 Alpha  occ. eigenvalues --   -0.54640  -0.54205  -0.52567  -0.48231  -0.46759
 Alpha  occ. eigenvalues --   -0.45212  -0.33157
 Alpha virt. eigenvalues --    0.03707   0.03746   0.03921   0.04168   0.05675
 Alpha virt. eigenvalues --    0.06041   0.06380   0.06709   0.08595   0.09754
 Alpha virt. eigenvalues --    0.11159   0.12118   0.13748   0.14231   0.14866

 Mulliken charges:
               1
     1  C   -0.437158
     2  C    0.532957
     3  C   -0.380917
     4  C   -0.430840
     5  C    0.440559
     6  C    0.949433
     7  O   -1.610239
     8  H    0.181854
     9  H    0.206554
    10  H    0.149470
    11  H    0.089167
    12  H    0.114165
    13  H    0.144874
    14  H    0.189548
    15  H   -0.185465
    16  H   -0.136110
    17  H    0.182150
 Sum of Mulliken charges =   0.00000

 Dipole moment (field-independent basis, Debye):
    X=              0.0600    Y=              1.2427    Z=              0.3066  Tot=              1.2813

 Test job not archived.
 1\1\GINC-SE454\SP\RHF\Aug-CC-pVDZ\C6H10O1\OHZDE\09-Apr-2025\0\\#t hf a
 ug-cc-pvdz iop(5/13=1,5/36=2,99/5=2) pseudo=read geom=check guess=(rea
 d,tcheck) scf=(maxcycle=1)\\title\\0,1\C,0,-2.24206405,0.24418059,0.34
 736277\C,0,-0.74469139,0.14069466,0.52590906\C,0,-0.10040702,-0.939384
 85,-0.3316709\C,0,1.40448088,-0.98655544,-0.08269019\C,0,1.94497347,0.
 41211573,-0.0205993\C,0,1.14616834,1.46854637,0.08195908\O,0,-0.200900
 18,1.42571222,0.21311556\H,0,-2.72594474,-0.68076441,0.6653861\H,0,-2.
 48841846,0.42518169,-0.70069167\H,0,-2.6417951,1.06666041,0.94110267\H

 Normal termination of Gaussian 16 at Wed Apr  9 19:16:14 2025.
