 Gaussian 16, Revision C.01,

 ----------------------------------------------------------------------
 #t hf aug-cc-pvdz symm=none int=(grid=ultrafine) guess=(read,tcheck) s
 table=(opt,rrhf)
 ----------------------------------------------------------------------
 -----
 title
 -----
 Symbolic Z-matrix:
 Charge =  0 Multiplicity = 1

 SCF Done:  E(RHF) =  -321.511525458     A.U. after   15 cycles
 Normal termination of Gaussian 16 at Wed Apr  9 18:52:35 2025.
 Gaussian 16:  ES64L-G16RevC.01  3-Jul-2019

 ----------------------------------------------------------------------
 #t hf aug-cc-pvdz iop(5/13=1,5/36=2,99/5=2) pseudo=read geom=check gue
 ss=(read,tcheck) scf=(maxcycle=1)
 ----------------------------------------------------------------------
 -----
 title
 -----
 Structure from the checkpoint file:  "Grambow2020_wb97xd3_008184_reverse_mol2.chk"
 Charge =  0 Multiplicity = 1

                         Standard orientation:
 ---------------------------------------------------------------------
 Center     Atomic      Atomic             Coordinates (Angstroms)
 Number     Number       Type             X           Y           Z
 ---------------------------------------------------------------------
      1          8           0        3.115319   -0.469872   -0.077962
      2          6           0       -0.018437   -1.482439    0.007361
      3          6           0       -0.610427   -0.286526    0.008413
      4          6           0       -2.029157   -0.090904    0.001388
      5          6           0       -3.213447    0.081791   -0.003825
      6          6           0        0.212001    0.898132    0.009803
      7          7           0        0.896583    1.820080    0.007178
      8          1           0        2.793114    0.432100   -0.174258
      9          1           0       -0.614770   -2.385464    0.000057
     10          1           0        1.063245   -1.553526    0.010915
     11          1           0        3.783837   -0.428757    0.606973
     12          1           0       -4.267265    0.233745   -0.009075
 ---------------------------------------------------------------------

 SCF Done:  E(RHF) =  -321.834835817     A.U. after    2 cycles

 The electronic state is 1-A.
 Alpha  occ. eigenvalues --  -20.55750 -15.52630 -11.32262 -11.30006 -11.29488
 Alpha  occ. eigenvalues --  -11.27121 -11.26529  -1.44113  -1.25409  -1.14428
 Alpha  occ. eigenvalues --   -1.04307  -0.91015  -0.80515  -0.73197  -0.71523
 Alpha  occ. eigenvalues --   -0.68837  -0.63017  -0.60518  -0.57578  -0.57048
 Alpha  occ. eigenvalues --   -0.52729  -0.49777  -0.48302  -0.43545  -0.38250
 Alpha virt. eigenvalues --    0.03108   0.03666   0.04036   0.04368   0.06940
 Alpha virt. eigenvalues --    0.07152   0.09114   0.09468   0.10381   0.11028
 Alpha virt. eigenvalues --    0.11683   0.12129   0.13946   0.14133   0.14600

 Mulliken charges:
               1
     1  O   -0.930467
     2  C    0.110067
     3  C    1.362214
     4  C    0.509621
     5  C    0.173866
     6  C   -2.604412
     7  N    1.045126
     8  H    0.541278
     9  H   -0.161994
    10  H   -0.009365
    11  H    0.376408
    12  H   -0.412343
 Sum of Mulliken charges =  -0.00000

 Dipole moment (field-independent basis, Debye):
    X=             -1.6084    Y=             -2.9750    Z=              0.9788  Tot=              3.5207

 Test job not archived.
 1\1\GINC-SE168\SP\RHF\Aug-CC-pVDZ\C5H5N1O1\OHZDE\09-Apr-2025\0\\#t hf
 aug-cc-pvdz iop(5/13=1,5/36=2,99/5=2) pseudo=read geom=check guess=(re
 ad,tcheck) scf=(maxcycle=1)\\title\\0,1\O,0,-1.83520025,-1.89800608,-1
 .49318685\C,0,-0.8764584,0.22446927,0.83681523\C,0,0.34408671,0.491294
 08,0.3680539\C,0,1.25369186,1.41750709,0.97291703\C,0,2.0203137,2.1892
 0026,1.47208971\C,0,0.79373279,-0.17958922,-0.82674229\N,0,1.11825994,
 -0.72850655,-1.78173934\H,0,-1.01820697,-1.70732445,-1.96520935\H,0,-1
 .23804426,0.72019544,1.72823663\H,0,-1.51183611,-0.48854373,0.32397207

 Normal termination of Gaussian 16 at Wed Apr  9 18:52:39 2025.
