 Gaussian 16, Revision C.01,

 ----------------------------------------------------------------------
 #t hf aug-cc-pvdz symm=none int=(grid=ultrafine) guess=(read,tcheck) s
 table=(opt,rrhf)
 ----------------------------------------------------------------------
 -----
 title
 -----
 Symbolic Z-matrix:
 Charge =  0 Multiplicity = 1

 SCF Done:  E(RHF) =  -343.674087095     A.U. after   15 cycles
 Normal termination of Gaussian 16 at Wed Apr  9 18:51:47 2025.
 Gaussian 16:  ES64L-G16RevC.01  3-Jul-2019

 ----------------------------------------------------------------------
 #t hf aug-cc-pvdz iop(5/13=1,5/36=2,99/5=2) pseudo=read geom=check gue
 ss=(read,tcheck) scf=(maxcycle=1)
 ----------------------------------------------------------------------
 -----
 title
 -----
 Structure from the checkpoint file:  "Grambow2020_wb97xd3_008137_reverse_mol2.chk"
 Charge =  0 Multiplicity = 1

                         Standard orientation:
 ---------------------------------------------------------------------
 Center     Atomic      Atomic             Coordinates (Angstroms)
 Number     Number       Type             X           Y           Z
 ---------------------------------------------------------------------
      1          6           0        0.601768   -1.091885    0.568717
      2          8           0        1.472555   -0.663977   -0.536160
      3          6           0        1.501677    0.606121   -0.764423
      4          6           0        0.611629    1.252572    0.265493
      5          6           0       -0.222396    0.137866    0.918145
      6          6           0       -1.642917    0.066084    0.363400
      7          8           0       -1.688347   -0.247986   -1.011928
      8          1           0        1.258920   -1.424991    1.371904
      9          1           0        0.017541   -1.929693    0.192389
     10          1           0       -1.334760    0.482144   -1.525071
     11          1           0        0.028901    2.068304   -0.169401
     12          1           0        1.303509    1.730369    0.969658
     13          1           0       -0.285662    0.269604    1.999795
     14          1           0       -2.195237   -0.732571    0.863311
     15          1           0       -2.165445    1.007996    0.574134
 ---------------------------------------------------------------------

 SCF Done:  E(RHF) =  -344.025858265     A.U. after    2 cycles

 The electronic state is 1-A.
 Alpha  occ. eigenvalues --  -20.60360 -20.56044 -11.30332 -11.29922 -11.29385
 Alpha  occ. eigenvalues --  -11.25681 -11.24523  -1.53470  -1.46471  -1.10651
 Alpha  occ. eigenvalues --   -1.01227  -0.94792  -0.82018  -0.78434  -0.71208
 Alpha  occ. eigenvalues --   -0.70254  -0.68946  -0.63463  -0.60331  -0.58063
 Alpha  occ. eigenvalues --   -0.55924  -0.54175  -0.52546  -0.50916  -0.48762
 Alpha  occ. eigenvalues --   -0.44537  -0.35400
 Alpha virt. eigenvalues --    0.02622   0.03522   0.03920   0.04496   0.06073
 Alpha virt. eigenvalues --    0.06405   0.06784   0.07382   0.09571   0.11592
 Alpha virt. eigenvalues --    0.12283   0.12500   0.13372   0.14047   0.14223

 Mulliken charges:
               1
     1  C    0.867668
     2  O   -1.100857
     3  C    0.329609
     4  C   -0.157239
     5  C   -0.807962
     6  C    0.853480
     7  O   -1.101680
     8  H    0.097588
     9  H    0.107333
    10  H    0.329526
    11  H    0.116928
    12  H    0.202779
    13  H    0.075920
    14  H    0.060881
    15  H    0.126025
 Sum of Mulliken charges =  -0.00000

 Dipole moment (field-independent basis, Debye):
    X=             -1.8435    Y=              0.5502    Z=              3.6762  Tot=              4.1492

 Test job not archived.
 1\1\GINC-SE220\SP\RHF\Aug-CC-pVDZ\C5H8O2\OHZDE\09-Apr-2025\0\\#t hf au
 g-cc-pvdz iop(5/13=1,5/36=2,99/5=2) pseudo=read geom=check guess=(read
 ,tcheck) scf=(maxcycle=1)\\title\\0,1\C,0,-1.2206584,0.70650594,0.3678
 9124\O,0,-1.37912228,0.95271239,-1.07308011\C,0,-0.84104069,0.07526561
 ,-1.85196222\C,0,-0.23495878,-0.98012286,-0.96334958\C,0,-0.19412356,-
 0.41174495,0.4647258\C,0,1.19099071,0.09882036,0.85402972\O,0,1.631931
 56,1.17613609,0.05578562\H,0,-2.20558699,0.43489639,0.74744541\H,0,-0.
 89810139,1.64896683,0.80674295\H,0,1.80066806,0.87158174,-0.83875568\H

 Normal termination of Gaussian 16 at Wed Apr  9 18:51:52 2025.
