 Gaussian 16, Revision C.01,

 ----------------------------------------------------------------------
 #t hf aug-cc-pvdz symm=none int=(grid=ultrafine) guess=(read,tcheck) s
 table=(opt,rrhf)
 ----------------------------------------------------------------------
 -----
 title
 -----
 Symbolic Z-matrix:
 Charge =  0 Multiplicity = 1

 SCF Done:  E(RHF) =  -359.504824272     A.U. after   21 cycles
 Normal termination of Gaussian 16 at Wed Apr  9 18:17:51 2025.
 Gaussian 16:  ES64L-G16RevC.01  3-Jul-2019

 ----------------------------------------------------------------------
 #t hf aug-cc-pvdz iop(5/13=1,5/36=2,99/5=2) pseudo=read geom=check gue
 ss=(read,tcheck) scf=(maxcycle=1)
 ----------------------------------------------------------------------
 -----
 title
 -----
 Structure from the checkpoint file:  "Grambow2020_wb97xd3_007281_forward_mol1.chk"
 Charge =  0 Multiplicity = 1

                         Standard orientation:
 ---------------------------------------------------------------------
 Center     Atomic      Atomic             Coordinates (Angstroms)
 Number     Number       Type             X           Y           Z
 ---------------------------------------------------------------------
      1          8           0       -1.145425   -1.182590   -1.070249
      2          6           0        0.272453    1.089656   -0.590568
      3          6           0       -1.032568    1.134045    0.070422
      4          7           0       -1.128808   -0.140020    0.693593
      5          6           0        0.184842   -0.586540    1.073329
      6          6           0        1.085236    0.080774    0.022336
      7          8           0        2.246759   -0.221327   -0.181205
      8          1           0       -0.463962   -0.897383   -1.687196
      9          1           0        0.632364    1.827276   -1.291292
     10          1           0       -1.001052    1.891428    0.880644
     11          1           0       -1.897643    1.347227   -0.555147
     12          1           0       -1.951725   -0.410582    1.208114
     13          1           0        0.260837   -1.670048    1.086644
     14          1           0        0.452383   -0.184059    2.061610
 ---------------------------------------------------------------------

 SCF Done:  E(RHF) =  -359.868625374     A.U. after    2 cycles

 The electronic state is 1-A.
 Alpha  occ. eigenvalues --  -20.58314 -20.49936 -15.61059 -11.32366 -11.30693
 Alpha  occ. eigenvalues --  -11.29368 -11.25647  -1.43715  -1.37740  -1.29989
 Alpha  occ. eigenvalues --   -1.06398  -1.02768  -0.87192  -0.79643  -0.75769
 Alpha  occ. eigenvalues --   -0.71252  -0.65144  -0.63413  -0.62988  -0.60688
 Alpha  occ. eigenvalues --   -0.60218  -0.57063  -0.50739  -0.48543  -0.43902
 Alpha  occ. eigenvalues --   -0.39406  -0.28833
 Alpha virt. eigenvalues --   -0.05086   0.02175   0.03707   0.04125   0.04803
 Alpha virt. eigenvalues --    0.05666   0.06110   0.07027   0.09055   0.11067
 Alpha virt. eigenvalues --    0.12337   0.13231   0.13637   0.14332   0.15086

 Mulliken charges:
               1
     1  O   -0.860466
     2  C    0.239284
     3  C   -0.571230
     4  N    1.000779
     5  C   -0.571631
     6  C    1.285118
     7  O   -1.492393
     8  H    0.551287
     9  H   -0.111894
    10  H    0.235200
    11  H    0.011355
    12  H   -0.001928
    13  H    0.086777
    14  H    0.199743
 Sum of Mulliken charges =  -0.00000

 Dipole moment (field-independent basis, Debye):
    X=             -4.1281    Y=              2.2773    Z=              2.0978  Tot=              5.1603

 Test job not archived.
 1\1\GINC-SE045\SP\RHF\Aug-CC-pVDZ\C4H7N1O2\OHZDE\09-Apr-2025\0\\#t hf
 aug-cc-pvdz iop(5/13=1,5/36=2,99/5=2) pseudo=read geom=check guess=(re
 ad,tcheck) scf=(maxcycle=1)\\title\\0,1\O,0,1.1452638,-0.1514941,-1.86
 947458\C,0,0.76175461,0.05330154,0.81651832\C,0,0.1891514,1.20236469,0
 .11385154\N,0,-0.52692061,0.60720995,-0.96033514\C,0,-1.02243407,-0.67
 92255,-0.54947473\C,0,0.02044549,-1.12787297,0.48576401\O,0,0.12625928
 ,-2.26440779,0.90875659\H,0,1.7393707,-0.60032445,-1.25960003\H,0,1.49
 552953,0.1179002,1.60520951\H,0,-0.55813492,1.69190378,0.7718759\H,0,0

 Normal termination of Gaussian 16 at Wed Apr  9 18:17:55 2025.
