 Gaussian 16, Revision C.01,

 ----------------------------------------------------------------------
 #t hf aug-cc-pvdz symm=none int=(grid=ultrafine) guess=(read,tcheck) s
 table=(opt,rrhf)
 ----------------------------------------------------------------------
 -----
 title
 -----
 Symbolic Z-matrix:
 Charge =  0 Multiplicity = 1

 SCF Done:  E(RHF) =  -273.229584187     A.U. after   12 cycles
 Normal termination of Gaussian 16 at Wed Apr  9 03:46:07 2025.
 Gaussian 16:  ES64L-G16RevC.01  3-Jul-2019

 ----------------------------------------------------------------------
 #t hf aug-cc-pvdz iop(5/13=1,5/36=2,99/5=2) pseudo=read geom=check gue
 ss=(read,tcheck) scf=(maxcycle=1)
 ----------------------------------------------------------------------
 -----
 title
 -----
 Structure from the checkpoint file:  "Grambow2020_wb97xd3_007783_reverse_mol2.chk"
 Charge =  0 Multiplicity = 1

                         Standard orientation:
 ---------------------------------------------------------------------
 Center     Atomic      Atomic             Coordinates (Angstroms)
 Number     Number       Type             X           Y           Z
 ---------------------------------------------------------------------
      1          6           0       -1.923378   -0.287640    1.069831
      2          6           0       -0.929749   -0.067443   -0.047182
      3          6           0       -0.831190   -1.231138   -1.005884
      4          6           0        2.390163   -0.617551    0.514019
      5          6           0        0.287766    0.759334    0.275311
      6          6           0       -0.800774    1.328121   -0.592543
      7          6           0        1.663213    0.467485   -0.272600
      8          1           0       -1.972878    0.577984    1.733260
      9          1           0       -2.927421   -0.464349    0.673774
     10          1           0       -1.645498   -1.156028    1.673815
     11          1           0       -0.529718   -2.144212   -0.484868
     12          1           0       -1.801652   -1.423202   -1.471195
     13          1           0       -0.114605   -1.050511   -1.807172
     14          1           0        2.482164   -0.341976    1.567456
     15          1           0        1.847559   -1.564229    0.467332
     16          1           0        3.396106   -0.787767    0.125380
     17          1           0        0.307870    1.137045    1.294661
     18          1           0       -0.583783    1.436435   -1.649376
     19          1           0       -1.440637    2.103206   -0.188817
     20          1           0        2.249899    1.391575   -0.255050
     21          1           0        1.596293    0.179029   -1.324914
 ---------------------------------------------------------------------

 SCF Done:  E(RHF) =  -273.535447951     A.U. after    2 cycles

 The electronic state is 1-A.
 Alpha  occ. eigenvalues --  -11.23262 -11.22455 -11.22405 -11.22061 -11.22009
 Alpha  occ. eigenvalues --  -11.21882 -11.21847  -1.16202  -1.03314  -0.97549
 Alpha  occ. eigenvalues --   -0.93590  -0.86239  -0.79090  -0.72962  -0.65619
 Alpha  occ. eigenvalues --   -0.63230  -0.60559  -0.58589  -0.57210  -0.54923
 Alpha  occ. eigenvalues --   -0.53744  -0.53078  -0.51997  -0.49496  -0.49163
 Alpha  occ. eigenvalues --   -0.46865  -0.40202  -0.38737
 Alpha virt. eigenvalues --    0.03504   0.03561   0.03656   0.04073   0.05659
 Alpha virt. eigenvalues --    0.05963   0.06054   0.06327   0.06378   0.08929
 Alpha virt. eigenvalues --    0.09406   0.09575   0.10031   0.10369   0.11921

 Mulliken charges:
               1
     1  C   -0.494846
     2  C   -0.244778
     3  C   -0.405089
     4  C   -0.342520
     5  C    0.427691
     6  C    0.437542
     7  C   -0.510948
     8  H    0.086352
     9  H    0.205519
    10  H    0.203169
    11  H    0.238672
    12  H    0.167972
    13  H    0.126007
    14  H    0.170199
    15  H    0.142007
    16  H    0.101806
    17  H   -0.310801
    18  H   -0.125304
    19  H   -0.163387
    20  H    0.129290
    21  H    0.161446
 Sum of Mulliken charges =  -0.00000

 Dipole moment (field-independent basis, Debye):
    X=              0.0448    Y=             -0.0363    Z=             -0.0086  Tot=              0.0583

 Test job not archived.
 1\1\GINC-SE044\SP\RHF\Aug-CC-pVDZ\C7H14\OHZDE\09-Apr-2025\0\\#t hf aug
 -cc-pvdz iop(5/13=1,5/36=2,99/5=2) pseudo=read geom=check guess=(read,
 tcheck) scf=(maxcycle=1)\\title\\0,1\C,0,-0.24551495,2.2023991,0.22310
 316\C,0,0.08173323,0.86673535,-0.40332546\C,0,-0.927566,0.42020508,-1.
 43528271\C,0,-0.7421778,-2.01184153,1.23201846\C,0,0.77685122,-0.14499
 67,0.47023853\C,0,1.53356399,0.54666734,-0.63003193\C,0,0.49029342,-1.
 62579801,0.42176353\H,0,0.51136111,2.49406907,0.95382941\H,0,-0.300685
 98,2.98911802,-0.53466912\H,0,-1.21006575,2.1664408,0.73736014\H,0,-1.

 Normal termination of Gaussian 16 at Wed Apr  9 03:46:16 2025.
