 Gaussian 16, Revision C.01,

 ----------------------------------------------------------------------
 #t hf aug-cc-pvdz symm=none int=(grid=ultrafine) guess=(read,tcheck) s
 table=(opt,rrhf)
 ----------------------------------------------------------------------
 -----
 title
 -----
 Symbolic Z-matrix:
 Charge =  0 Multiplicity = 1

 SCF Done:  E(RHF) =  -342.470164345     A.U. after   13 cycles
 Normal termination of Gaussian 16 at Wed Apr  9 03:59:37 2025.
 Gaussian 16:  ES64L-G16RevC.01  3-Jul-2019

 ----------------------------------------------------------------------
 #t hf aug-cc-pvdz iop(5/13=1,5/36=2,99/5=2) pseudo=read geom=check gue
 ss=(read,tcheck) scf=(maxcycle=1)
 ----------------------------------------------------------------------
 -----
 title
 -----
 Structure from the checkpoint file:  "Grambow2020_wb97xd3_008772_reverse_mol2.chk"
 Charge =  0 Multiplicity = 1

                         Standard orientation:
 ---------------------------------------------------------------------
 Center     Atomic      Atomic             Coordinates (Angstroms)
 Number     Number       Type             X           Y           Z
 ---------------------------------------------------------------------
      1          8           0        1.476179   -0.554750   -0.749732
      2          6           0        1.924154    0.060935    0.474707
      3          6           0        0.532315    0.015759    0.076384
      4          8           0       -0.185783    1.152627   -0.366483
      5          6           0       -1.365710    0.634306    0.255890
      6          6           0       -1.767614   -0.637308   -0.390585
      7          6           0       -0.682908   -0.639189    0.662232
      8          1           0        2.471514    0.988945    0.343739
      9          1           0        2.309166   -0.627147    1.221823
     10          1           0       -1.993913    1.320478    0.804142
     11          1           0       -2.708197   -1.059295   -0.058417
     12          1           0       -1.517519   -0.805049   -1.431239
     13          1           0       -0.725651   -1.207957    1.577907
 ---------------------------------------------------------------------

 SCF Done:  E(RHF) =  -342.817226580     A.U. after    2 cycles

 The electronic state is 1-A.
 Alpha  occ. eigenvalues --  -20.56558 -20.56038 -11.35813 -11.30846 -11.29697
 Alpha  occ. eigenvalues --  -11.25739 -11.25421  -1.54060  -1.47870  -1.15416
 Alpha  occ. eigenvalues --   -0.96074  -0.90503  -0.84537  -0.76375  -0.74028
 Alpha  occ. eigenvalues --   -0.71878  -0.65672  -0.62626  -0.61975  -0.55575
 Alpha  occ. eigenvalues --   -0.54173  -0.50690  -0.49818  -0.45261  -0.42223
 Alpha  occ. eigenvalues --   -0.39156
 Alpha virt. eigenvalues --    0.03077   0.03614   0.04177   0.04898   0.06030
 Alpha virt. eigenvalues --    0.06456   0.09176   0.10047   0.10322   0.11880
 Alpha virt. eigenvalues --    0.12874   0.13703   0.14078   0.14772   0.15552

 Mulliken charges:
               1
     1  O   -1.353217
     2  C    0.343386
     3  C    2.035300
     4  O   -1.541173
     5  C    1.216946
     6  C    0.171142
     7  C   -0.368950
     8  H    0.039258
     9  H    0.006873
    10  H   -0.133335
    11  H   -0.071071
    12  H   -0.130621
    13  H   -0.214538
 Sum of Mulliken charges =   0.00000

 Dipole moment (field-independent basis, Debye):
    X=             -1.2392    Y=             -0.5521    Z=              2.7059  Tot=              3.0270

 Test job not archived.
 1\1\GINC-SE082\SP\RHF\Aug-CC-pVDZ\C5H6O2\OHZDE\09-Apr-2025\0\\#t hf au
 g-cc-pvdz iop(5/13=1,5/36=2,99/5=2) pseudo=read geom=check guess=(read
 ,tcheck) scf=(maxcycle=1)\\title\\0,1\O,0,1.46295708,1.3596918,-0.1360
 9542\C,0,2.08393907,0.18936323,-0.70505372\C,0,0.78458242,0.16233175,-
 0.06563303\O,0,0.55297164,-0.43433404,1.19714605\C,0,-0.74746901,-0.83
 614809,0.75484241\C,0,-1.58274891,0.35574133,0.47526123\C,0,-0.5989554
 9,-0.13317153,-0.5630686\H,0,2.94122221,-0.1842548,-0.15420674\H,0,2.1
 6846306,0.1936279,-1.78797164\H,0,-1.0843016,-1.83096133,1.00572605\H,

 Normal termination of Gaussian 16 at Wed Apr  9 03:59:41 2025.
