 Gaussian 16, Revision C.01,

 ----------------------------------------------------------------------
 #t hf aug-cc-pvdz symm=none int=(grid=ultrafine) guess=(read,tcheck) s
 table=(opt,rrhf)
 ----------------------------------------------------------------------
 -----
 title
 -----
 Symbolic Z-matrix:
 Charge =  0 Multiplicity = 1

 SCF Done:  E(RHF) =  -344.667938637     A.U. after   17 cycles

 1\1\GINC-SE113\Stability\RHF\Aug-CC-pVDZ\C5H10O2\OHZDE\09-Apr-2025\0\\
 #t hf aug-cc-pvdz symm=none int=(grid=ultrafine) guess=(read,tcheck) s
 table=(opt,rrhf)\\title\\0,1\C,0,2.14482201,0.11860882,-0.09447819\O,0
 ,1.06562075,-0.03590423,0.80236469\C,0,-0.21570076,0.00028611,0.282694
 57\C,0,-0.49834186,0.76558015,-0.87568241\C,0,-1.19139964,-0.10832243,
 1.32973696\C,0,-0.62168789,-1.5914068,-0.10819772\O,0,-1.54773777,-2.0
 1105241,-0.71831643\H,0,2.06925053,-0.56006123,-0.95125512\H,0,3.04274
 053,-0.12363624,0.47040297\H,0,2.22089972,1.14678079,-0.45787586\H,0,0

 Normal termination of Gaussian 16 at Wed Apr  9 18:58:05 2025.
 Gaussian 16:  ES64L-G16RevC.01  3-Jul-2019

 ----------------------------------------------------------------------
 #t hf aug-cc-pvdz iop(5/13=1,5/36=2,99/5=2) pseudo=read geom=check gue
 ss=(read,tcheck) scf=(maxcycle=1)
 ----------------------------------------------------------------------
 -----
 title
 -----
 Structure from the checkpoint file:  "Grambow2020_wb97xd3_008393_forward_mol1.chk"
 Charge =  0 Multiplicity = 1

                         Standard orientation:
 ---------------------------------------------------------------------
 Center     Atomic      Atomic             Coordinates (Angstroms)
 Number     Number       Type             X           Y           Z
 ---------------------------------------------------------------------
      1          6           0       -2.178326   -0.706632    0.056226
      2          8           0       -1.212112    0.008386   -0.684082
      3          6           0       -0.054296    0.392903   -0.032346
      4          6           0       -0.070131    0.662602    1.358485
      5          6           0        0.788676    1.159717   -0.904972
      6          6           0        1.056447   -0.861067   -0.244291
      7          8           0        2.112052   -1.035108    0.266907
      8          1           0       -1.743270   -1.563265    0.582797
      9          1           0       -2.905176   -1.068730   -0.668071
     10          1           0       -2.687554   -0.063363    0.778636
     11          1           0       -0.833703    0.240659    1.997933
     12          1           0       -0.185435    2.412281    0.794238
     13          1           0        0.891109    0.828114    1.828531
     14          1           0        0.096309    2.616617    0.039143
     15          1           0        1.779546    1.419735   -0.562636
     16          1           0        0.613104    1.097357   -1.971565
     17          1           0        0.521335   -1.590768   -0.880220
 ---------------------------------------------------------------------

 SCF Done:  E(RHF) =  -345.023991179     A.U. after    2 cycles

 The electronic state is 1-A.
 Alpha  occ. eigenvalues --  -20.57677 -20.56111 -11.38655 -11.33139 -11.30112
 Alpha  occ. eigenvalues --  -11.27645 -11.25431  -1.51165  -1.50202  -1.11970
 Alpha  occ. eigenvalues --   -0.97550  -0.93930  -0.87146  -0.77138  -0.72030
 Alpha  occ. eigenvalues --   -0.69298  -0.68056  -0.66892  -0.63225  -0.60357
 Alpha  occ. eigenvalues --   -0.58236  -0.57671  -0.55248  -0.53759  -0.51026
 Alpha  occ. eigenvalues --   -0.48017  -0.38728  -0.28292
 Alpha virt. eigenvalues --    0.02845   0.03375   0.03785   0.04621   0.05020
 Alpha virt. eigenvalues --    0.05850   0.06401   0.06888   0.07760   0.09227
 Alpha virt. eigenvalues --    0.09836   0.10532   0.11463   0.12874   0.13165

 Mulliken charges:
               1
     1  C    0.173472
     2  O   -1.703173
     3  C    0.942581
     4  C    0.117027
     5  C   -0.125938
     6  C    1.097533
     7  O   -1.198756
     8  H    0.218011
     9  H   -0.047533
    10  H    0.171034
    11  H   -0.043099
    12  H    0.155624
    13  H   -0.025010
    14  H    0.146444
    15  H    0.015752
    16  H   -0.051221
    17  H    0.157251
 Sum of Mulliken charges =  -0.00000

 Dipole moment (field-independent basis, Debye):
    X=             -1.8861    Y=             -1.1619    Z=             -0.4176  Tot=              2.2542

 Test job not archived.
 1\1\GINC-SE113\SP\RHF\Aug-CC-pVDZ\C5H10O2\OHZDE\09-Apr-2025\0\\#t hf a
 ug-cc-pvdz iop(5/13=1,5/36=2,99/5=2) pseudo=read geom=check guess=(rea
 d,tcheck) scf=(maxcycle=1)\\title\\0,1\C,0,2.14482201,0.11860882,-0.09
 447819\O,0,1.06562075,-0.03590423,0.80236469\C,0,-0.21570076,0.0002861
 1,0.28269457\C,0,-0.49834186,0.76558015,-0.87568241\C,0,-1.19139964,-0
 .10832243,1.32973696\C,0,-0.62168789,-1.5914068,-0.10819772\O,0,-1.547
 73777,-2.01105241,-0.71831643\H,0,2.06925053,-0.56006123,-0.95125512\H
 ,0,3.04274053,-0.12363624,0.47040297\H,0,2.22089972,1.14678079,-0.4578

 Normal termination of Gaussian 16 at Wed Apr  9 18:58:11 2025.
