 Gaussian 16, Revision C.01,

 ----------------------------------------------------------------------
 #t hf aug-cc-pvdz symm=none int=(grid=ultrafine) guess=(read,tcheck) s
 table=(opt,rrhf)
 ----------------------------------------------------------------------
 -----
 title
 -----
 Symbolic Z-matrix:
 Charge =  0 Multiplicity = 1

 SCF Done:  E(RHF) =  -310.016847004     A.U. after   15 cycles

 1\1\GINC-SE229\Stability\RHF\Aug-CC-pVDZ\C6H14O1\OHZDE\09-Apr-2025\0\\
 #t hf aug-cc-pvdz symm=none int=(grid=ultrafine) guess=(read,tcheck) s
 table=(opt,rrhf)\\title\\0,1\C,0,-3.26300498,0.16050101,-0.73212938\C,
 0,-2.18980308,0.1044107,0.18286594\C,0,-1.02438764,-0.73098088,-0.0628
 8681\C,0,0.26916773,-0.54769688,0.66909453\C,0,1.33793044,0.00146628,-
 0.26884492\O,0,2.53994667,0.13110667,0.44445571\C,0,3.58578984,0.62245
 293,-0.35148301\H,0,-3.55532347,-0.73815603,-1.26369613\H,0,-1.8651748
 2,0.3295633,-1.95778901\H,0,-4.04395778,0.89580857,-0.58456434\H,0,-1.

 Normal termination of Gaussian 16 at Wed Apr  9 18:34:21 2025.
 Gaussian 16:  ES64L-G16RevC.01  3-Jul-2019

 ----------------------------------------------------------------------
 #t hf aug-cc-pvdz iop(5/13=1,5/36=2,99/5=2) pseudo=read geom=check gue
 ss=(read,tcheck) scf=(maxcycle=1)
 ----------------------------------------------------------------------
 -----
 title
 -----
 Structure from the checkpoint file:  "Grambow2020_wb97xd3_007721_reverse_mol1.chk"
 Charge =  0 Multiplicity = 1

                         Standard orientation:
 ---------------------------------------------------------------------
 Center     Atomic      Atomic             Coordinates (Angstroms)
 Number     Number       Type             X           Y           Z
 ---------------------------------------------------------------------
      1          6           0        3.466525    0.617710   -0.137314
      2          6           0        2.354956   -0.193759   -0.450453
      3          6           0        1.266943   -0.390209    0.495117
      4          6           0       -0.072079   -0.921634    0.086112
      5          6           0       -1.128529    0.173705    0.173927
      6          8           0       -2.371544   -0.369149   -0.187557
      7          6           0       -3.408224    0.574148   -0.122656
      8          1           0        3.849672    0.625340    0.876953
      9          1           0        2.124400    1.774306    0.450683
     10          1           0        4.183809    0.852071   -0.913792
     11          1           0        2.049066   -0.218931   -1.495134
     12          1           0        2.477444   -1.304028   -0.112526
     13          1           0        1.551963   -0.468772    1.539794
     14          1           0        1.394466    1.529425    0.740356
     15          1           0       -0.394147   -1.757546    0.711894
     16          1           0       -0.036448   -1.277995   -0.946770
     17          1           0       -1.166665    0.576800    1.196799
     18          1           0       -0.854803    1.004585   -0.492122
     19          1           0       -3.521805    0.974816    0.893306
     20          1           0       -4.330584    0.070458   -0.408596
     21          1           0       -3.231577    1.412897   -0.808794
 ---------------------------------------------------------------------

 SCF Done:  E(RHF) =  -310.355723792     A.U. after    2 cycles

 The electronic state is 1-A.
 Alpha  occ. eigenvalues --  -20.55000 -11.29458 -11.29229 -11.28466 -11.26049
 Alpha  occ. eigenvalues --  -11.25231 -11.20865  -1.47439  -1.12964  -1.04464
 Alpha  occ. eigenvalues --   -0.94978  -0.89223  -0.83973  -0.78427  -0.69077
 Alpha  occ. eigenvalues --   -0.67810  -0.65302  -0.63279  -0.63159  -0.61551
 Alpha  occ. eigenvalues --   -0.57814  -0.54783  -0.52403  -0.52299  -0.50657
 Alpha  occ. eigenvalues --   -0.48808  -0.46771  -0.42326  -0.25780
 Alpha virt. eigenvalues --    0.03248   0.03388   0.03567   0.04433   0.05247
 Alpha virt. eigenvalues --    0.05782   0.06045   0.06684   0.07295   0.08003
 Alpha virt. eigenvalues --    0.08550   0.08708   0.09770   0.10315   0.11765

 Mulliken charges:
               1
     1  C   -0.037858
     2  C   -0.072383
     3  C   -0.269819
     4  C   -0.504436
     5  C    0.712132
     6  O   -1.347574
     7  C    0.041608
     8  H   -0.054614
     9  H    0.129645
    10  H   -0.095218
    11  H   -0.046175
    12  H    0.592796
    13  H   -0.124936
    14  H    0.095104
    15  H    0.176438
    16  H    0.130258
    17  H    0.170280
    18  H    0.166246
    19  H    0.183577
    20  H   -0.030096
    21  H    0.185023
 Sum of Mulliken charges =  -0.00000

 Dipole moment (field-independent basis, Debye):
    X=             -1.4809    Y=             -1.1246    Z=              0.3086  Tot=              1.8850

 Test job not archived.
 1\1\GINC-SE229\SP\RHF\Aug-CC-pVDZ\C6H14O1\OHZDE\09-Apr-2025\0\\#t hf a
 ug-cc-pvdz iop(5/13=1,5/36=2,99/5=2) pseudo=read geom=check guess=(rea
 d,tcheck) scf=(maxcycle=1)\\title\\0,1\C,0,-3.26300498,0.16050101,-0.7
 3212938\C,0,-2.18980308,0.1044107,0.18286594\C,0,-1.02438764,-0.730980
 88,-0.06288681\C,0,0.26916773,-0.54769688,0.66909453\C,0,1.33793044,0.
 00146628,-0.26884492\O,0,2.53994667,0.13110667,0.44445571\C,0,3.585789
 84,0.62245293,-0.35148301\H,0,-3.55532347,-0.73815603,-1.26369613\H,0,
 -1.86517482,0.3295633,-1.95778901\H,0,-4.04395778,0.89580857,-0.584564

 Normal termination of Gaussian 16 at Wed Apr  9 18:34:29 2025.
