 Gaussian 16, Revision C.01,

 ----------------------------------------------------------------------
 #t hf aug-cc-pvdz symm=none int=(grid=ultrafine) guess=(read,tcheck) s
 table=(opt,rrhf)
 ----------------------------------------------------------------------
 -----
 title
 -----
 Symbolic Z-matrix:
 Charge =  0 Multiplicity = 1

 SCF Done:  E(RHF) =  -357.292057384     A.U. after   16 cycles
 Normal termination of Gaussian 16 at Wed Apr  9 19:08:35 2025.
 Gaussian 16:  ES64L-G16RevC.01  3-Jul-2019

 ----------------------------------------------------------------------
 #t hf aug-cc-pvdz iop(5/13=1,5/36=2,99/5=2) pseudo=read geom=check gue
 ss=(read,tcheck) scf=(maxcycle=1)
 ----------------------------------------------------------------------
 -----
 title
 -----
 Structure from the checkpoint file:  "Grambow2020_wb97xd3_008634_reverse_mol1.chk"
 Charge =  0 Multiplicity = 1

                         Standard orientation:
 ---------------------------------------------------------------------
 Center     Atomic      Atomic             Coordinates (Angstroms)
 Number     Number       Type             X           Y           Z
 ---------------------------------------------------------------------
      1          7           0        2.655425    0.620935    0.305654
      2          6           0        1.713902    0.104920   -0.251215
      3          6           0        0.744455   -0.574351   -0.817975
      4          6           0       -0.501497   -0.881186   -0.026343
      5          6           0       -1.607591    0.152897   -0.319726
      6          8           0       -0.583921   -0.505002    1.229619
      7          8           0       -2.340597    1.009272   -0.199890
      8          1           0        2.734885    1.631252    0.255558
      9          1           0        0.870836   -0.951130   -1.824323
     10          1           0       -0.893168   -1.874506   -0.317093
 ---------------------------------------------------------------------

 SCF Done:  E(RHF) =  -357.640947564     A.U. after    2 cycles

 The electronic state is 1-A.
 Alpha  occ. eigenvalues --  -20.68352 -20.49026 -15.54203 -11.45456 -11.37566
 Alpha  occ. eigenvalues --  -11.34695 -11.26172  -1.63390  -1.42185  -1.27502
 Alpha  occ. eigenvalues --   -1.07992  -0.96068  -0.83758  -0.81260  -0.74597
 Alpha  occ. eigenvalues --   -0.70863  -0.69000  -0.67565  -0.63964  -0.60800
 Alpha  occ. eigenvalues --   -0.57566  -0.52342  -0.40681  -0.39737  -0.38088
 Alpha virt. eigenvalues --    0.02404   0.03576   0.04719   0.05702   0.08314
 Alpha virt. eigenvalues --    0.08625   0.09587   0.10652   0.11489   0.11615
 Alpha virt. eigenvalues --    0.11723   0.12835   0.13585   0.13927   0.15287

 Mulliken charges:
               1
     1  N    0.787180
     2  C   -1.685207
     3  C    1.016405
     4  C    1.052987
     5  C    0.720839
     6  O   -1.413810
     7  O   -0.774117
     8  H    0.165331
     9  H   -0.100057
    10  H    0.230450
 Sum of Mulliken charges =  -0.00000

 Dipole moment (field-independent basis, Debye):
    X=             -0.9330    Y=              0.5942    Z=             -4.6130  Tot=              4.7438

 Test job not archived.
 1\1\GINC-SE048\SP\RHF\Aug-CC-pVDZ\C4H3N1O2\OHZDE\09-Apr-2025\0\\#t hf
 aug-cc-pvdz iop(5/13=1,5/36=2,99/5=2) pseudo=read geom=check guess=(re
 ad,tcheck) scf=(maxcycle=1)\\title\\0,1\N,0,2.31108472,-0.64682401,0.8
 2755045\C,0,1.23285419,-0.71694186,0.28409715\C,0,0.02633524,-0.878107
 64,-0.20660545\C,0,-1.0721105,0.06595803,0.21218374\C,0,-1.24754597,1.
 19776232,-0.82081515\O,0,-0.82058072,1.00756619,1.09301004\O,0,-1.2350
 11,2.21957341,-1.31151009\H,0,3.0284931,-0.08778845,0.37769623\H,0,-0.
 17888158,-1.71455439,-0.86152164\H,0,-2.03260947,-0.4807336,0.26872471

 Normal termination of Gaussian 16 at Wed Apr  9 19:08:39 2025.
