 Gaussian 16, Revision C.01,

 ----------------------------------------------------------------------
 #t hf aug-cc-pvdz symm=none int=(grid=ultrafine) guess=(read,tcheck) s
 table=(opt,rrhf)
 ----------------------------------------------------------------------
 -----
 title
 -----
 Symbolic Z-matrix:
 Charge =  0 Multiplicity = 1

 SCF Done:  E(RHF) =  -376.971605701     A.U. after   13 cycles
 Normal termination of Gaussian 16 at Wed Apr  9 03:59:59 2025.
 Gaussian 16:  ES64L-G16RevC.01  3-Jul-2019

 ----------------------------------------------------------------------
 #t hf aug-cc-pvdz iop(5/13=1,5/36=2,99/5=2) pseudo=read geom=check gue
 ss=(read,tcheck) scf=(maxcycle=1)
 ----------------------------------------------------------------------
 -----
 title
 -----
 Structure from the checkpoint file:  "Grambow2020_wb97xd3_008741_forward_mol2.chk"
 Charge =  0 Multiplicity = 1

                         Standard orientation:
 ---------------------------------------------------------------------
 Center     Atomic      Atomic             Coordinates (Angstroms)
 Number     Number       Type             X           Y           Z
 ---------------------------------------------------------------------
      1          7           0       -2.546140   -0.004979    0.196701
      2          6           0       -1.201254   -0.151353   -0.046501
      3          8           0       -0.719162   -1.238988   -0.323327
      4          7           0       -0.468393    0.994414    0.025693
      5          6           0        0.912120    1.063803   -0.440493
      6          6           0        1.915163    0.286929    0.408919
      7          8           0        2.015832   -1.069635    0.074572
      8          1           0       -3.031533   -0.872879    0.340856
      9          1           0       -2.866978    0.770576    0.748140
     10          1           0       -0.975119    1.860218    0.055981
     11          1           0        1.180733    2.121267   -0.422714
     12          1           0        0.986264    0.716691   -1.476151
     13          1           0        1.658891    0.428969    1.469285
     14          1           0        2.905914    0.721357    0.249299
     15          1           0        1.114029   -1.399544   -0.062962
 ---------------------------------------------------------------------

 SCF Done:  E(RHF) =  -377.358106364     A.U. after    2 cycles

 The electronic state is 1-A.
 Alpha  occ. eigenvalues --  -20.51486 -20.51374 -15.53537 -15.53446 -11.39579
 Alpha  occ. eigenvalues --  -11.27808 -11.27503  -1.47982  -1.42434  -1.27287
 Alpha  occ. eigenvalues --   -1.21064  -1.01768  -0.89191  -0.82332  -0.80429
 Alpha  occ. eigenvalues --   -0.75859  -0.69463  -0.67242  -0.64724  -0.62618
 Alpha  occ. eigenvalues --   -0.61083  -0.57515  -0.54780  -0.50227  -0.47234
 Alpha  occ. eigenvalues --   -0.44937  -0.43293  -0.41531
 Alpha virt. eigenvalues --    0.01961   0.03687   0.04777   0.05069   0.05698
 Alpha virt. eigenvalues --    0.06268   0.07319   0.08979   0.11005   0.11595
 Alpha virt. eigenvalues --    0.12324   0.13676   0.14544   0.15062   0.15311

 Mulliken charges:
               1
     1  N    0.642530
     2  C   -0.034105
     3  O   -1.308648
     4  N    0.549652
     5  C   -0.605845
     6  C    0.756381
     7  O   -1.226050
     8  H    0.217404
     9  H    0.043332
    10  H    0.131921
    11  H    0.030433
    12  H    0.114321
    13  H    0.143128
    14  H    0.045808
    15  H    0.499737
 Sum of Mulliken charges =  -0.00000

 Dipole moment (field-independent basis, Debye):
    X=             -3.3241    Y=              4.5453    Z=              1.1772  Tot=              5.7528

 Test job not archived.
 1\1\GINC-SE195\SP\RHF\Aug-CC-pVDZ\C3H8N2O2\OHZDE\09-Apr-2025\0\\#t hf
 aug-cc-pvdz iop(5/13=1,5/36=2,99/5=2) pseudo=read geom=check guess=(re
 ad,tcheck) scf=(maxcycle=1)\\title\\0,1\N,0,2.32068232,1.1016805,-0.42
 847005\C,0,1.0005366,0.84957018,-0.1404664\O,0,0.27497485,1.71348911,0
 .32772077\N,0,0.57126791,-0.40981005,-0.43161879\C,0,-0.84224272,-0.77
 014324,-0.4213108\C,0,-1.48693347,-0.79590427,0.96246582\O,0,-1.944113
 6,0.45307087,1.40205218\H,0,2.67081091,1.95299987,-0.02560054\H,0,2.97
 210174,0.3384344,-0.46866471\H,0,1.17480146,-0.97964651,-0.99583414\H,

 Normal termination of Gaussian 16 at Wed Apr  9 04:00:09 2025.
