 Gaussian 16, Revision C.01,

 ----------------------------------------------------------------------
 #t hf aug-cc-pvdz symm=none int=(grid=ultrafine) guess=(read,tcheck) s
 table=(opt,rrhf)
 ----------------------------------------------------------------------
 -----
 title
 -----
 Symbolic Z-matrix:
 Charge =  0 Multiplicity = 1

 SCF Done:  E(RHF) =  -338.769035769     A.U. after   14 cycles
 Normal termination of Gaussian 16 at Wed Apr  9 03:28:12 2025.
 Gaussian 16:  ES64L-G16RevC.01  3-Jul-2019

 ----------------------------------------------------------------------
 #t hf aug-cc-pvdz iop(5/13=1,5/36=2,99/5=2) pseudo=read geom=check gue
 ss=(read,tcheck) scf=(maxcycle=1)
 ----------------------------------------------------------------------
 -----
 title
 -----
 Structure from the checkpoint file:  "Grambow2020_wb97xd3_006689_forward_mol2.chk"
 Charge =  0 Multiplicity = 1

                         Standard orientation:
 ---------------------------------------------------------------------
 Center     Atomic      Atomic             Coordinates (Angstroms)
 Number     Number       Type             X           Y           Z
 ---------------------------------------------------------------------
      1          6           0        2.424196   -0.582506    0.002342
      2          6           0        1.072525    0.019119    0.001226
      3          6           0        0.576232    1.265438    0.006518
      4          7           0       -0.815524    1.231115    0.007117
      5          6           0       -1.082546   -0.027490   -0.006604
      6          7           0       -2.308938   -0.627513   -0.074459
      7          8           0       -0.012625   -0.839596   -0.009078
      8          1           0        2.590576   -1.192341   -0.888222
      9          1           0        3.170565    0.211102    0.015415
     10          1           0        2.580827   -1.214664    0.879124
     11          1           0        1.120365    2.196341    0.014896
     12          1           0       -2.365990   -1.544031    0.334877
     13          1           0       -3.066558   -0.012217    0.167036
 ---------------------------------------------------------------------

 SCF Done:  E(RHF) =  -339.116039642     A.U. after    2 cycles

 The electronic state is 1-A.
 Alpha  occ. eigenvalues --  -20.61119 -15.53011 -15.47713 -11.36699 -11.28742
 Alpha  occ. eigenvalues --  -11.25308 -11.24697  -1.56626  -1.25803  -1.21468
 Alpha  occ. eigenvalues --   -1.05643  -0.95135  -0.85233  -0.81856  -0.75886
 Alpha  occ. eigenvalues --   -0.71866  -0.68133  -0.64687  -0.59737  -0.58573
 Alpha  occ. eigenvalues --   -0.57902  -0.55529  -0.52098  -0.48591  -0.46350
 Alpha  occ. eigenvalues --   -0.32326
 Alpha virt. eigenvalues --    0.03105   0.03876   0.04570   0.05405   0.05942
 Alpha virt. eigenvalues --    0.06700   0.09660   0.11444   0.11583   0.11753
 Alpha virt. eigenvalues --    0.12793   0.13939   0.14938   0.15503   0.16055

 Mulliken charges:
               1
     1  C   -0.540015
     2  C    2.135571
     3  C   -1.144016
     4  N    0.838112
     5  C   -0.996366
     6  N    0.741887
     7  O   -1.825420
     8  H    0.229410
     9  H    0.191556
    10  H    0.219887
    11  H   -0.207464
    12  H    0.192562
    13  H    0.164296
 Sum of Mulliken charges =  -0.00000

 Dipole moment (field-independent basis, Debye):
    X=              0.5140    Y=             -2.0473    Z=              1.0183  Tot=              2.3437

 Test job not archived.
 1\1\GINC-SE292\SP\RHF\Aug-CC-pVDZ\C4H6N2O1\OHZDE\09-Apr-2025\0\\#t hf
 aug-cc-pvdz iop(5/13=1,5/36=2,99/5=2) pseudo=read geom=check guess=(re
 ad,tcheck) scf=(maxcycle=1)\\title\\0,1\C,0,-2.1204086,0.48365705,0.01
 765663\C,0,-0.77543841,-0.09533541,-0.19398025\C,0,-0.29036312,-1.3023
 8384,-0.52167437\N,0,1.10031494,-1.26583962,-0.57499197\C,0,1.37752006
 ,-0.04289757,-0.28664145\N,0,2.60495377,0.55813841,-0.25780724\O,0,0.3
 1570611,0.74152363,-0.03867421\H,0,-2.32051168,1.29584802,-0.68447471\
 H,0,-2.87241983,-0.29000064,-0.13394933\H,0,-2.23268582,0.87687024,1.0

 Normal termination of Gaussian 16 at Wed Apr  9 03:28:16 2025.
