 Gaussian 16, Revision C.01,

 ----------------------------------------------------------------------
 #t hf aug-cc-pvdz symm=none int=(grid=ultrafine) guess=(read,tcheck) s
 table=(opt,rrhf)
 ----------------------------------------------------------------------
 -----
 title
 -----
 Symbolic Z-matrix:
 Charge =  0 Multiplicity = 1

 SCF Done:  E(RHF) =  -354.629415520     A.U. after   16 cycles
 Normal termination of Gaussian 16 at Wed Apr  9 18:19:01 2025.
 Gaussian 16:  ES64L-G16RevC.01  3-Jul-2019

 ----------------------------------------------------------------------
 #t hf aug-cc-pvdz iop(5/13=1,5/36=2,99/5=2) pseudo=read geom=check gue
 ss=(read,tcheck) scf=(maxcycle=1)
 ----------------------------------------------------------------------
 -----
 title
 -----
 Structure from the checkpoint file:  "Grambow2020_wb97xd3_007315_reverse_mol2.chk"
 Charge =  0 Multiplicity = 1

                         Standard orientation:
 ---------------------------------------------------------------------
 Center     Atomic      Atomic             Coordinates (Angstroms)
 Number     Number       Type             X           Y           Z
 ---------------------------------------------------------------------
      1          8           0       -1.902281    0.222792    0.688372
      2          6           0       -1.673380   -0.673252   -0.359464
      3          6           0       -0.291732   -1.200491   -0.433336
      4          7           0        0.804087   -1.194961   -0.032533
      5          7           0        2.028897   -1.091275    0.216831
      6          6           0        1.200088    1.776586   -0.125277
      7          7           0        0.181789    2.297720   -0.156410
      8          1           0       -1.427712    1.043846    0.506192
      9          1           0       -1.898591   -0.238401   -1.339863
     10          1           0       -2.349706   -1.517687   -0.221380
     11          1           0        2.274016   -1.764842    0.938512
     12          1           0        2.106963    1.197304   -0.077188
 ---------------------------------------------------------------------

 SCF Done:  E(RHF) =  -354.983278567     A.U. after    2 cycles

 The electronic state is 1-A.
 Alpha  occ. eigenvalues --  -20.56611 -15.65233 -15.53895 -15.52350 -11.34589
 Alpha  occ. eigenvalues --  -11.31063 -11.30367  -1.47679  -1.39226  -1.26246
 Alpha  occ. eigenvalues --   -1.19084  -1.00643  -0.82100  -0.81088  -0.75663
 Alpha  occ. eigenvalues --   -0.70895  -0.68766  -0.66790  -0.64001  -0.62709
 Alpha  occ. eigenvalues --   -0.55553  -0.54056  -0.53261  -0.48790  -0.45832
 Alpha  occ. eigenvalues --   -0.37920
 Alpha virt. eigenvalues --    0.02997   0.04551   0.04953   0.05382   0.06442
 Alpha virt. eigenvalues --    0.07575   0.08871   0.09789   0.10393   0.10900
 Alpha virt. eigenvalues --    0.11711   0.12522   0.13275   0.14318   0.14522

 Mulliken charges:
               1
     1  O   -1.138667
     2  C    0.840121
     3  C   -0.855233
     4  N   -0.311655
     5  N    0.461556
     6  C   -0.958837
     7  N    0.759425
     8  H    0.462953
     9  H    0.275632
    10  H    0.090454
    11  H    0.187148
    12  H    0.187103
 Sum of Mulliken charges =  -0.00000

 Dipole moment (field-independent basis, Debye):
    X=             -0.1035    Y=             -1.9204    Z=             -0.7303  Tot=              2.0572

 Test job not archived.
 1\1\GINC-SE340\SP\RHF\Aug-CC-pVDZ\C3H5N3O1\OHZDE\09-Apr-2025\0\\#t hf
 aug-cc-pvdz iop(5/13=1,5/36=2,99/5=2) pseudo=read geom=check guess=(re
 ad,tcheck) scf=(maxcycle=1)\\title\\0,1\O,0,-1.75051458,0.04904048,-1.
 12437167\C,0,-1.67912485,0.33631539,0.24150783\C,0,-0.35579661,0.81041
 29,0.706722\N,0,0.76472065,1.03697236,0.47304427\N,0,2.00965237,1.1090
 924,0.33874637\C,0,1.39643067,-1.59534345,-0.81821998\N,0,0.42537159,-
 2.10205576,-1.1495356\H,0,-1.22543906,-0.74102868,-1.304985\H,0,-1.943
 64876,-0.52484099,0.86555497\H,0,-2.41002886,1.11856591,0.44987798\H,0

 Normal termination of Gaussian 16 at Wed Apr  9 18:19:05 2025.
