 Gaussian 16, Revision C.01,

 ----------------------------------------------------------------------
 #t hf aug-cc-pvdz symm=none int=(grid=ultrafine) guess=(read,tcheck) s
 table=(opt,rrhf)
 ----------------------------------------------------------------------
 -----
 title
 -----
 Symbolic Z-matrix:
 Charge =  0 Multiplicity = 1

 SCF Done:  E(RHF) =  -284.788894733     A.U. after   13 cycles
 Normal termination of Gaussian 16 at Wed Apr  9 03:07:21 2025.
 Gaussian 16:  ES64L-G16RevC.01  3-Jul-2019

 ----------------------------------------------------------------------
 #t hf aug-cc-pvdz iop(5/13=1,5/36=2,99/5=2) pseudo=read geom=check gue
 ss=(read,tcheck) scf=(maxcycle=1)
 ----------------------------------------------------------------------
 -----
 title
 -----
 Structure from the checkpoint file:  "Grambow2020_b97d3_006560_reverse_mol2.chk"
 Charge =  0 Multiplicity = 1

                         Standard orientation:
 ---------------------------------------------------------------------
 Center     Atomic      Atomic             Coordinates (Angstroms)
 Number     Number       Type             X           Y           Z
 ---------------------------------------------------------------------
      1          8           0       -1.086917   -0.872051    0.656629
      2          6           0       -1.342053    0.350148   -0.072673
      3          6           0       -0.124824    1.263740    0.146886
      4          7           0        0.727247    0.209505   -0.508758
      5          6           0        1.884504   -0.298707    0.223343
      6          6           0       -0.430766   -0.651227   -0.626147
      7          1           0        1.638731   -0.634872    1.246863
      8          1           0       -2.370672    0.604586   -0.320272
      9          1           0        0.106278    1.458235    1.204208
     10          1           0       -0.123625    2.198663   -0.429459
     11          1           0        2.650050    0.486953    0.281625
     12          1           0        2.308584   -1.146483   -0.333364
     13          1           0       -0.525904   -1.440930   -1.369783
 ---------------------------------------------------------------------

 SCF Done:  E(RHF) =  -285.083010090     A.U. after    2 cycles

 The electronic state is 1-A.
 Alpha  occ. eigenvalues --  -20.55848 -15.50378 -11.32176 -11.29952 -11.27591
 Alpha  occ. eigenvalues --  -11.25717  -1.49137  -1.23251  -1.01735  -0.92763
 Alpha  occ. eigenvalues --   -0.87154  -0.77456  -0.73363  -0.67043  -0.65327
 Alpha  occ. eigenvalues --   -0.60679  -0.58200  -0.55573  -0.52155  -0.51626
 Alpha  occ. eigenvalues --   -0.46534  -0.42409  -0.40395
 Alpha virt. eigenvalues --    0.03635   0.04188   0.04445   0.05192   0.05689
 Alpha virt. eigenvalues --    0.06125   0.07110   0.09785   0.10431   0.11606
 Alpha virt. eigenvalues --    0.13188   0.14465   0.14782   0.15767   0.15831

 Mulliken charges:
               1
     1  O   -1.331482
     2  C    1.104579
     3  C   -0.209120
     4  N    0.506390
     5  C   -0.344752
     6  C   -0.031910
     7  H    0.191668
     8  H   -0.070301
     9  H    0.081471
    10  H    0.025385
    11  H    0.108211
    12  H    0.096843
    13  H   -0.126983
 Sum of Mulliken charges =  -0.00000

 Dipole moment (field-independent basis, Debye):
    X=              0.0606    Y=              1.0509    Z=             -0.5287  Tot=              1.1780

 Test job not archived.
 1\1\GINC-SE120\SP\RHF\Aug-CC-pVDZ\C4H7N1O1\OHZDE\09-Apr-2025\0\\#t hf
 aug-cc-pvdz iop(5/13=1,5/36=2,99/5=2) pseudo=read geom=check guess=(re
 ad,tcheck) scf=(maxcycle=1)\\title\\0,1\O,0,-1.47910147,-1.00401724,-0
 .01731271\C,0,-1.51551738,0.38754955,-0.40841454\C,0,-0.38513833,1.096
 17662,0.35617216\N,0,0.59334126,0.18763509,-0.33984084\C,0,1.51005143,
 -0.60009441,0.48029254\C,0,-0.50594283,-0.50321378,-0.98010415\H,0,0.9
 991733,-1.1776117,1.27179831\H,0,-2.43911923,0.78949495,-0.82011973\H,
 0,-0.43687691,0.9760008,1.44798124\H,0,-0.21869277,2.14827852,0.088526

 Normal termination of Gaussian 16 at Wed Apr  9 03:07:25 2025.
