 Gaussian 16, Revision C.01,

 ----------------------------------------------------------------------
 #t hf aug-cc-pvdz symm=none int=(grid=ultrafine) guess=(read,tcheck) s
 table=(opt,rrhf)
 ----------------------------------------------------------------------
 -----
 title
 -----
 Symbolic Z-matrix:
 Charge =  0 Multiplicity = 1

 SCF Done:  E(RHF) =  -338.665265949     A.U. after   15 cycles
 Normal termination of Gaussian 16 at Wed Apr  9 19:01:47 2025.
 Gaussian 16:  ES64L-G16RevC.01  3-Jul-2019

 ----------------------------------------------------------------------
 #t hf aug-cc-pvdz iop(5/13=1,5/36=2,99/5=2) pseudo=read geom=check gue
 ss=(read,tcheck) scf=(maxcycle=1)
 ----------------------------------------------------------------------
 -----
 title
 -----
 Structure from the checkpoint file:  "Grambow2020_wb97xd3_008474_reverse_mol2.chk"
 Charge =  0 Multiplicity = 1

                         Standard orientation:
 ---------------------------------------------------------------------
 Center     Atomic      Atomic             Coordinates (Angstroms)
 Number     Number       Type             X           Y           Z
 ---------------------------------------------------------------------
      1          7           0        0.405592    1.904371   -0.359178
      2          6           0       -0.003766    0.747899    0.401061
      3          6           0        0.573080   -0.609359    0.052310
      4          8           0        1.900793   -0.713145    0.109018
      5          6           0       -0.322584   -1.588692   -0.267853
      6          6           0       -1.515651   -0.845493   -0.142998
      7          7           0       -1.404112    0.440572    0.209611
      8          1           0        0.447132    1.674218   -1.344866
      9          1           0        1.333458    2.188721   -0.075764
     10          1           0        2.098497   -1.631387   -0.120566
     11          1           0        0.182380    0.943081    1.462932
     12          1           0       -2.522002   -1.224186   -0.307849
     13          1           0       -2.142647    1.113973    0.305824
 ---------------------------------------------------------------------

 SCF Done:  E(RHF) =  -339.010356109     A.U. after    2 cycles

 The electronic state is 1-A.
 Alpha  occ. eigenvalues --  -20.58937 -15.55059 -15.51478 -11.32563 -11.32309
 Alpha  occ. eigenvalues --  -11.31409 -11.15833  -1.51295  -1.31597  -1.19971
 Alpha  occ. eigenvalues --   -1.05174  -0.98472  -0.83703  -0.82302  -0.78251
 Alpha  occ. eigenvalues --   -0.73443  -0.68490  -0.65878  -0.64910  -0.60625
 Alpha  occ. eigenvalues --   -0.57190  -0.53174  -0.52285  -0.47523  -0.33242
 Alpha  occ. eigenvalues --   -0.32137
 Alpha virt. eigenvalues --    0.02641   0.03942   0.04783   0.05326   0.05371
 Alpha virt. eigenvalues --    0.06211   0.06544   0.09299   0.10884   0.11870
 Alpha virt. eigenvalues --    0.12619   0.13363   0.13828   0.15181   0.15622

 Mulliken charges:
               1
     1  N    0.641852
     2  C   -2.180079
     3  C    2.139083
     4  O   -1.580452
     5  C   -0.790865
     6  C   -0.098775
     7  N    1.033262
     8  H    0.174309
     9  H    0.220764
    10  H    0.364054
    11  H    0.121234
    12  H   -0.085972
    13  H    0.041586
 Sum of Mulliken charges =  -0.00000

 Dipole moment (field-independent basis, Debye):
    X=             -0.8571    Y=              3.2669    Z=              0.6860  Tot=              3.4465

 Test job not archived.
 1\1\GINC-SE115\SP\RHF\Aug-CC-pVDZ\C4H6N2O1\OHZDE\09-Apr-2025\0\\#t hf
 aug-cc-pvdz iop(5/13=1,5/36=2,99/5=2) pseudo=read geom=check guess=(re
 ad,tcheck) scf=(maxcycle=1)\\title\\0,1\N,0,1.68931126,0.68861472,0.06
 069507\C,0,0.38268414,0.28051689,0.51802024\C,0,-0.22365707,-0.9996262
 1,-0.02060156\O,0,0.48427444,-2.1114412,0.1781655\C,0,-1.43598171,-0.8
 8748007,-0.63826147\C,0,-1.61731149,0.50663645,-0.51618572\N,0,-0.6512
 2241,1.20030552,0.09719165\H,0,1.76894411,0.53992109,-0.93821698\H,0,2
 .39939556,0.12473246,0.50783113\H,0,-0.04350165,-2.82589895,-0.2038910

 Normal termination of Gaussian 16 at Wed Apr  9 19:01:51 2025.
