 Gaussian 16, Revision C.01,

 ----------------------------------------------------------------------
 #t hf aug-cc-pvdz symm=none int=(grid=ultrafine) guess=(read,tcheck) s
 table=(opt,rrhf)
 ----------------------------------------------------------------------
 -----
 title
 -----
 Symbolic Z-matrix:
 Charge =  0 Multiplicity = 1

 SCF Done:  E(RHF) =  -306.579093846     A.U. after   16 cycles
 Normal termination of Gaussian 16 at Wed Apr  9 03:27:53 2025.
 Gaussian 16:  ES64L-G16RevC.01  3-Jul-2019

 ----------------------------------------------------------------------
 #t hf aug-cc-pvdz iop(5/13=1,5/36=2,99/5=2) pseudo=read geom=check gue
 ss=(read,tcheck) scf=(maxcycle=1)
 ----------------------------------------------------------------------
 -----
 title
 -----
 Structure from the checkpoint file:  "Grambow2020_wb97xd3_006668_reverse_mol1.chk"
 Charge =  0 Multiplicity = 1

                         Standard orientation:
 ---------------------------------------------------------------------
 Center     Atomic      Atomic             Coordinates (Angstroms)
 Number     Number       Type             X           Y           Z
 ---------------------------------------------------------------------
      1          6           0       -2.463143   -0.003535   -0.265188
      2          6           0       -1.000749    0.254516   -0.421026
      3          6           0       -0.096050    0.085490    0.800626
      4          8           0        0.562640   -1.169933    0.609776
      5          6           0        1.140794   -0.812486   -0.577199
      6          6           0        1.607910    0.514832   -0.545727
      7          6           0        0.906503    1.122649    0.465057
      8          1           0       -2.954401    0.766150    0.344735
      9          1           0       -2.640617   -0.964722    0.225373
     10          1           0       -2.961675   -0.004106   -1.235717
     11          1           0       -0.722341    1.015915   -1.135614
     12          1           0       -0.591134    0.118704    1.769869
     13          1           0        1.520325   -1.615938   -1.195118
     14          1           0        2.311013    0.947112   -1.241605
     15          1           0        0.966122    2.127548    0.850618
 ---------------------------------------------------------------------

 SCF Done:  E(RHF) =  -306.896000915     A.U. after    2 cycles

 The electronic state is 1-A.
 Alpha  occ. eigenvalues --  -20.55687 -11.32586 -11.30145 -11.25533 -11.25345
 Alpha  occ. eigenvalues --  -11.23910 -11.22890  -1.50438  -1.11951  -1.03870
 Alpha  occ. eigenvalues --   -0.97122  -0.85593  -0.78638  -0.76891  -0.73984
 Alpha  occ. eigenvalues --   -0.65327  -0.60843  -0.59332  -0.58421  -0.56485
 Alpha  occ. eigenvalues --   -0.55638  -0.53612  -0.50822  -0.45572  -0.38104
 Alpha  occ. eigenvalues --   -0.26365
 Alpha virt. eigenvalues --    0.03465   0.03578   0.03974   0.04340   0.05448
 Alpha virt. eigenvalues --    0.05512   0.06423   0.06888   0.07766   0.10211
 Alpha virt. eigenvalues --    0.11643   0.12476   0.13320   0.13814   0.13973

 Mulliken charges:
               1
     1  C   -0.625070
     2  C   -0.123845
     3  C    0.670553
     4  O   -1.404390
     5  C    0.612694
     6  C    0.484922
     7  C    0.362334
     8  H    0.255518
     9  H    0.210746
    10  H    0.179211
    11  H   -0.139898
    12  H   -0.028822
    13  H   -0.137989
    14  H   -0.138740
    15  H   -0.177226
 Sum of Mulliken charges =  -0.00000

 Dipole moment (field-independent basis, Debye):
    X=             -0.1744    Y=              1.4078    Z=             -0.5213  Tot=              1.5113

 Test job not archived.
 1\1\GINC-SE021\SP\RHF\Aug-CC-pVDZ\C6H8O1\OHZDE\09-Apr-2025\0\\#t hf au
 g-cc-pvdz iop(5/13=1,5/36=2,99/5=2) pseudo=read geom=check guess=(read
 ,tcheck) scf=(maxcycle=1)\\title\\0,1\C,0,2.17822547,0.04741004,-0.123
 30119\C,0,0.70475958,-0.07673553,-0.33056793\C,0,-0.20516819,-0.101331
 42,0.89862196\O,0,-0.77918248,1.2071512,0.96763831\C,0,-1.36148323,1.1
 3810125,-0.26811997\C,0,-1.91309451,-0.13409823,-0.50935289\C,0,-1.267
 05497,-0.98005589,0.35672164\H,0,2.61011092,-0.8610849,0.31700262\H,0,
 2.40966497,0.87455039,0.55367869\H,0,2.69002783,0.21314334,-1.07253825

 Normal termination of Gaussian 16 at Wed Apr  9 03:27:58 2025.
