 Gaussian 16, Revision C.01,

 ----------------------------------------------------------------------
 #t hf aug-cc-pvdz symm=none int=(grid=ultrafine) guess=(read,tcheck) s
 table=(opt,rrhf)
 ----------------------------------------------------------------------
 -----
 title
 -----
 Symbolic Z-matrix:
 Charge =  0 Multiplicity = 1

 SCF Done:  E(RHF) =  -305.867887807     A.U. after   14 cycles
 Normal termination of Gaussian 16 at Wed Apr  9 16:02:50 2025.
 Gaussian 16:  ES64L-G16RevC.01  3-Jul-2019

 ----------------------------------------------------------------------
 #t hf aug-cc-pvdz iop(5/13=1,5/36=2,99/5=2) pseudo=read geom=check gue
 ss=(read,tcheck) scf=(maxcycle=1)
 ----------------------------------------------------------------------
 -----
 title
 -----
 Structure from the checkpoint file:  "Grambow2020_b97d3_007099_reverse_mol2.chk"
 Charge =  0 Multiplicity = 1

                         Standard orientation:
 ---------------------------------------------------------------------
 Center     Atomic      Atomic             Coordinates (Angstroms)
 Number     Number       Type             X           Y           Z
 ---------------------------------------------------------------------
      1          6           0        1.044561    1.402031   -0.209568
      2          6           0        1.150809   -0.097342    0.020858
      3          6           0        2.529790   -0.710055   -0.175636
      4          8           0        0.188034   -0.775837    0.357201
      5          6           0       -2.423722    0.385699   -0.477594
      6          8           0       -3.098641   -0.498687   -0.200754
      7          1           0        1.431038    1.921892    0.681864
      8          1           0        1.657982    1.726504   -1.062069
      9          1           0       -0.001708    1.687603   -0.356775
     10          1           0       -1.226161    0.961084    2.932811
     11          1           0        2.550169   -1.736649    0.205199
     12          1           0        3.304114   -0.105541    0.319591
     13          1           0        2.772401   -0.718682   -1.250128
     14          1           0       -1.011607    0.577989    2.329579
 ---------------------------------------------------------------------

 SCF Done:  E(RHF) =  -306.175396230     A.U. after    2 cycles

 The electronic state is 1-A.
 Alpha  occ. eigenvalues --  -20.63544 -20.53992 -11.36307 -11.35057 -11.25299
 Alpha  occ. eigenvalues --  -11.25122  -1.57325  -1.46551  -1.05105  -0.97103
 Alpha  occ. eigenvalues --   -0.78841  -0.75405  -0.65373  -0.64682  -0.62939
 Alpha  occ. eigenvalues --   -0.60957  -0.60828  -0.58309  -0.56995  -0.56807
 Alpha  occ. eigenvalues --   -0.54985  -0.53541  -0.48872  -0.41570
 Alpha virt. eigenvalues --    0.03056   0.04137   0.04169   0.05436   0.06579
 Alpha virt. eigenvalues --    0.07191   0.07930   0.08251   0.10245   0.11274
 Alpha virt. eigenvalues --    0.11824   0.11993   0.13019   0.13721   0.14505

 Mulliken charges:
               1
     1  C   -0.376350
     2  C    1.043337
     3  C   -0.624516
     4  O   -1.302293
     5  C    0.568075
     6  O   -0.583154
     7  H    0.298695
     8  H    0.189131
     9  H    0.144084
    10  H    0.059547
    11  H    0.133607
    12  H    0.239956
    13  H    0.268788
    14  H   -0.058907
 Sum of Mulliken charges =  -0.00000

 Dipole moment (field-independent basis, Debye):
    X=              2.9297    Y=              1.7901    Z=             -0.9418  Tot=              3.5602

 Test job not archived.
 1\1\GINC-SE162\SP\RHF\Aug-CC-pVDZ\C4H8O2\OHZDE\09-Apr-2025\0\\#t hf au
 g-cc-pvdz iop(5/13=1,5/36=2,99/5=2) pseudo=read geom=check guess=(read
 ,tcheck) scf=(maxcycle=1)\\title\\0,1\C,0,-0.33206436,1.22108829,-0.31
 532808\C,0,-0.57548155,-0.15874164,0.27570465\C,0,-1.97717939,-0.42371
 3,0.80546916\O,0,0.29897359,-1.01561049,0.31470633\C,0,3.05524749,0.11
 119368,0.33889614\O,0,3.63249326,-0.85761922,0.54501408\H,0,-0.749767,
 1.24438782,-1.33476553\H,0,-0.84411378,2.00550291,0.25984498\H,0,0.742
 16214,1.42314525,-0.37111691\H,0,1.62461922,-1.03055089,-2.83061598\H,

 Normal termination of Gaussian 16 at Wed Apr  9 16:02:54 2025.
