 Gaussian 16, Revision C.01,

 ----------------------------------------------------------------------
 #t hf aug-cc-pvdz symm=none int=(grid=ultrafine) guess=(read,tcheck) s
 table=(opt,rrhf)
 ----------------------------------------------------------------------
 -----
 title
 -----
 Symbolic Z-matrix:
 Charge =  0 Multiplicity = 1

 SCF Done:  E(RHF) =  -152.428366197     A.U. after   15 cycles
 Normal termination of Gaussian 16 at Wed Apr  9 03:09:05 2025.
 Gaussian 16:  ES64L-G16RevC.01  3-Jul-2019

 ----------------------------------------------------------------------
 #t hf aug-cc-pvdz iop(5/13=1,5/36=2,99/5=2) pseudo=read geom=check gue
 ss=(read,tcheck) scf=(maxcycle=1)
 ----------------------------------------------------------------------
 -----
 title
 -----
 Structure from the checkpoint file:  "Grambow2020_b97d3_006639_reverse_mol1.chk"
 Charge =  0 Multiplicity = 1

                         Standard orientation:
 ---------------------------------------------------------------------
 Center     Atomic      Atomic             Coordinates (Angstroms)
 Number     Number       Type             X           Y           Z
 ---------------------------------------------------------------------
      1          6           0        0.371566    0.091332    0.000007
      2          6           0        1.599576   -0.019473   -0.000304
      3          6           0       -1.155603   -0.805397   -0.000070
      4          6           0       -1.022221    0.503874    0.000290
      5          1           0        2.664232   -0.134077    0.001187
      6          1           0       -1.424143    1.512069   -0.000725
 ---------------------------------------------------------------------

 SCF Done:  E(RHF) =  -152.578220935     A.U. after    2 cycles

 The electronic state is 1-A.
 Alpha  occ. eigenvalues --  -11.31419 -11.29697 -11.28654 -11.28490  -1.16941
 Alpha  occ. eigenvalues --   -1.01815  -0.77097  -0.75919  -0.66184  -0.51880
 Alpha  occ. eigenvalues --   -0.48721  -0.42106  -0.36684
 Alpha virt. eigenvalues --    0.03022   0.03431   0.04035   0.08377   0.09246
 Alpha virt. eigenvalues --    0.09393   0.10011   0.10925   0.12171   0.13597
 Alpha virt. eigenvalues --    0.14591   0.15674   0.16517   0.17013   0.17613

 Mulliken charges:
               1
     1  C    0.359822
     2  C   -0.066098
     3  C   -0.292313
     4  C    0.322755
     5  H   -0.279239
     6  H   -0.044927
 Sum of Mulliken charges =  -0.00000

 Dipole moment (field-independent basis, Debye):
    X=              1.2310    Y=              2.3992    Z=              0.0012  Tot=              2.6966

 Test job not archived.
 1\1\GINC-SE092\SP\RHF\Aug-CC-pVDZ\C4H2\OHZDE\09-Apr-2025\0\\#t hf aug-
 cc-pvdz iop(5/13=1,5/36=2,99/5=2) pseudo=read geom=check guess=(read,t
 check) scf=(maxcycle=1)\\title\\0,1\C,0,0.23076534,0.0084987,-0.099682
 44\C,0,1.37315917,-0.01725031,0.36352279\C,0,-0.74652972,0.48679452,-1
 .49699969\C,0,-1.18879063,-0.08580774,-0.39767527\H,0,2.3717912,-0.033
 16974,0.7496687\H,0,-1.97948835,-0.49525144,0.22293091\\Version=ES64L-
 G16RevC.01\State=1-A\HF=-152.5782209\RMSD=2.395e-02\Dipole=0.0272562,-
 0.436333,0.966654\Quadrupole=5.2807408,-2.5295976,-2.7511432,0.9564625

 Normal termination of Gaussian 16 at Wed Apr  9 03:09:07 2025.
