 Gaussian 16, Revision C.01,

 ----------------------------------------------------------------------
 #t hf aug-cc-pvdz symm=none int=(grid=ultrafine) guess=(read,tcheck) s
 table=(opt,rrhf)
 ----------------------------------------------------------------------
 -----
 title
 -----
 Symbolic Z-matrix:
 Charge =  0 Multiplicity = 1

 SCF Done:  E(RHF) =  -344.694172954     A.U. after   16 cycles

 1\1\GINC-SE403\Stability\RHF\Aug-CC-pVDZ\C5H10O2\OHZDE\09-Apr-2025\0\\
 #t hf aug-cc-pvdz symm=none int=(grid=ultrafine) guess=(read,tcheck) s
 table=(opt,rrhf)\\title\\0,1\C,0,1.72772856,-0.35048826,-1.06500862\C,
 0,0.67999527,0.48781766,0.91171465\O,0,0.06376389,1.66653839,0.4825086
 6\C,0,-1.13368984,1.26991532,-0.16632596\C,0,-1.56183861,-0.02039869,0
 .53343892\C,0,-0.21398423,-0.59748295,0.91939803\O,0,0.38487782,-1.454
 45728,-0.39529049\H,0,1.45578321,0.66489117,-1.32520553\H,0,1.74348557
 ,-1.00765165,-1.93160889\H,0,2.63173461,-0.42879427,-0.47880853\H,0,1.

 Normal termination of Gaussian 16 at Wed Apr  9 03:39:41 2025.
 Gaussian 16:  ES64L-G16RevC.01  3-Jul-2019

 ----------------------------------------------------------------------
 #t hf aug-cc-pvdz iop(5/13=1,5/36=2,99/5=2) pseudo=read geom=check gue
 ss=(read,tcheck) scf=(maxcycle=1)
 ----------------------------------------------------------------------
 -----
 title
 -----
 Structure from the checkpoint file:  "Grambow2020_wb97xd3_007404_forward_mol1.chk"
 Charge =  0 Multiplicity = 1

                         Standard orientation:
 ---------------------------------------------------------------------
 Center     Atomic      Atomic             Coordinates (Angstroms)
 Number     Number       Type             X           Y           Z
 ---------------------------------------------------------------------
      1          6           0       -1.926088   -0.800981   -0.425359
      2          6           0        0.024256   -0.597900    0.939506
      3          8           0        1.016429   -1.238943    0.192514
      4          6           0        1.426620   -0.308164   -0.796216
      5          6           0        1.223869    1.068104   -0.161654
      6          6           0        0.038372    0.794333    0.742972
      7          8           0       -1.363838    0.956267   -0.167539
      8          1           0       -1.221393   -1.489841   -0.874279
      9          1           0       -2.628873   -0.399009   -1.151732
     10          1           0       -2.424425   -1.188374    0.451326
     11          1           0       -0.227378   -1.108936    1.856669
     12          1           0        0.792375   -0.406504   -1.687262
     13          1           0        2.458250   -0.528420   -1.068784
     14          1           0        2.082022    1.346221    0.457136
     15          1           0        1.063251    1.853318   -0.899072
     16          1           0       -0.178687    1.477280    1.555671
     17          1           0       -1.658047    1.773320   -0.634970
 ---------------------------------------------------------------------

 SCF Done:  E(RHF) =  -345.052949670     A.U. after    2 cycles

 The electronic state is 1-A.
 Alpha  occ. eigenvalues --  -20.55771 -20.52815 -11.31104 -11.27997 -11.27343
 Alpha  occ. eigenvalues --  -11.23350 -11.22536  -1.45539  -1.40847  -1.06256
 Alpha  occ. eigenvalues --   -0.97848  -0.94125  -0.82070  -0.76675  -0.69922
 Alpha  occ. eigenvalues --   -0.68060  -0.65501  -0.60616  -0.59894  -0.57121
 Alpha  occ. eigenvalues --   -0.56116  -0.53523  -0.52310  -0.48520  -0.47266
 Alpha  occ. eigenvalues --   -0.46223  -0.44764  -0.23389
 Alpha virt. eigenvalues --    0.03314   0.03688   0.03918   0.04417   0.05918
 Alpha virt. eigenvalues --    0.06116   0.06487   0.06865   0.07903   0.09149
 Alpha virt. eigenvalues --    0.11960   0.12807   0.13300   0.13590   0.14163

 Mulliken charges:
               1
     1  C   -0.058565
     2  C    0.996647
     3  O   -1.538918
     4  C    0.426541
     5  C   -0.333045
     6  C    0.657734
     7  O   -1.016166
     8  H    0.256026
     9  H   -0.033260
    10  H    0.158850
    11  H   -0.185747
    12  H    0.166288
    13  H    0.006425
    14  H    0.133475
    15  H    0.151943
    16  H   -0.104065
    17  H    0.315838
 Sum of Mulliken charges =   0.00000

 Dipole moment (field-independent basis, Debye):
    X=             -1.2658    Y=              1.9860    Z=             -1.2535  Tot=              2.6678

 Test job not archived.
 1\1\GINC-SE403\SP\RHF\Aug-CC-pVDZ\C5H10O2\OHZDE\09-Apr-2025\0\\#t hf a
 ug-cc-pvdz iop(5/13=1,5/36=2,99/5=2) pseudo=read geom=check guess=(rea
 d,tcheck) scf=(maxcycle=1)\\title\\0,1\C,0,1.72772856,-0.35048826,-1.0
 6500862\C,0,0.67999527,0.48781766,0.91171465\O,0,0.06376389,1.66653839
 ,0.48250866\C,0,-1.13368984,1.26991532,-0.16632596\C,0,-1.56183861,-0.
 02039869,0.53343892\C,0,-0.21398423,-0.59748295,0.91939803\O,0,0.38487
 782,-1.45445728,-0.39529049\H,0,1.45578321,0.66489117,-1.32520553\H,0,
 1.74348557,-1.00765165,-1.93160889\H,0,2.63173461,-0.42879427,-0.47880

 Normal termination of Gaussian 16 at Wed Apr  9 03:39:47 2025.
