 Gaussian 16, Revision C.01,

 ----------------------------------------------------------------------
 #t hf aug-cc-pvdz symm=none int=(grid=ultrafine) guess=(read,tcheck) s
 table=(opt,rrhf)
 ----------------------------------------------------------------------
 -----
 title
 -----
 Symbolic Z-matrix:
 Charge =  0 Multiplicity = 1

 SCF Done:  E(RHF) =  -305.318231824     A.U. after   16 cycles
 Normal termination of Gaussian 16 at Wed Apr  9 18:55:44 2025.
 Gaussian 16:  ES64L-G16RevC.01  3-Jul-2019

 ----------------------------------------------------------------------
 #t hf aug-cc-pvdz iop(5/13=1,5/36=2,99/5=2) pseudo=read geom=check gue
 ss=(read,tcheck) scf=(maxcycle=1)
 ----------------------------------------------------------------------
 -----
 title
 -----
 Structure from the checkpoint file:  "Grambow2020_wb97xd3_008346_reverse_mol1.chk"
 Charge =  0 Multiplicity = 1

                         Standard orientation:
 ---------------------------------------------------------------------
 Center     Atomic      Atomic             Coordinates (Angstroms)
 Number     Number       Type             X           Y           Z
 ---------------------------------------------------------------------
      1          8           0       -0.387031   -0.410196    1.267640
      2          6           0        0.475220   -0.817556    0.257074
      3          6           0       -0.497047   -0.890937   -0.952030
      4          6           0       -1.405977    0.125658   -0.405011
      5          6           0       -2.008614    1.144901   -0.023876
      6          6           0        1.595979    0.108160    0.001090
      7          6           0        2.494464    0.872323   -0.209463
      8          1           0       -1.277843    0.781586    0.930380
      9          1           0        0.891837   -1.813409    0.450360
     10          1           0       -0.986974   -1.863842   -0.982045
     11          1           0       -0.120096   -0.617657   -1.939291
     12          1           0       -2.632691    1.989761   -0.229404
     13          1           0        3.297855    1.549836   -0.377817
 ---------------------------------------------------------------------

 SCF Done:  E(RHF) =  -305.632826989     A.U. after    2 cycles

 The electronic state is 1-A.
 Alpha  occ. eigenvalues --  -20.46071 -11.36964 -11.30655 -11.28373 -11.28306
 Alpha  occ. eigenvalues --  -11.23336 -11.22802  -1.37337  -1.13708  -1.06649
 Alpha  occ. eigenvalues --   -1.01840  -0.88800  -0.76756  -0.72341  -0.70084
 Alpha  occ. eigenvalues --   -0.68014  -0.66306  -0.60078  -0.56519  -0.51692
 Alpha  occ. eigenvalues --   -0.46540  -0.40069  -0.39734  -0.37709  -0.36254
 Alpha virt. eigenvalues --    0.02637   0.03417   0.03803   0.04888   0.05665
 Alpha virt. eigenvalues --    0.06924   0.08017   0.08660   0.09557   0.10798
 Alpha virt. eigenvalues --    0.11911   0.12365   0.12806   0.13486   0.13993

 Mulliken charges:
               1
     1  O   -1.610902
     2  C    0.754925
     3  C   -0.609714
     4  C    0.545355
     5  C   -0.172905
     6  C    0.323412
     7  C    0.336484
     8  H    0.678115
     9  H    0.090152
    10  H    0.193794
    11  H    0.147504
    12  H   -0.243686
    13  H   -0.432532
 Sum of Mulliken charges =  -0.00000

 Dipole moment (field-independent basis, Debye):
    X=             -2.0198    Y=              1.2119    Z=             -3.7583  Tot=              4.4354

 Test job not archived.
 1\1\GINC-SE041\SP\RHF\Aug-CC-pVDZ\C6H6O1\OHZDE\09-Apr-2025\0\\#t hf au
 g-cc-pvdz iop(5/13=1,5/36=2,99/5=2) pseudo=read geom=check guess=(read
 ,tcheck) scf=(maxcycle=1)\\title\\0,1\O,0,-0.54462727,-0.04591618,1.43
 674798\C,0,0.33966199,-0.77456487,0.65076725\C,0,-0.50961202,-0.988991
 25,-0.63195547\C,0,-1.30132942,0.23167215,-0.42698372\C,0,-1.77523662,
 1.3787762,-0.34418517\C,0,1.60843191,-0.08042319,0.3558621\C,0,2.62946
 751,0.49617091,0.10973483\H,0,-1.20537339,1.14554553,0.75011321\H,0,0.
 57812448,-1.74772809,1.09657021\H,0,-1.13732003,-1.87316972,-0.5238540

 Normal termination of Gaussian 16 at Wed Apr  9 18:55:48 2025.
