 Gaussian 16, Revision C.01,

 ----------------------------------------------------------------------
 #t hf aug-cc-pvdz symm=none int=(grid=ultrafine) guess=(read,tcheck) s
 table=(opt,rrhf)
 ----------------------------------------------------------------------
 -----
 title
 -----
 Symbolic Z-matrix:
 Charge =  0 Multiplicity = 1

 SCF Done:  E(RHF) =  -322.434526344     A.U. after   18 cycles
 Normal termination of Gaussian 16 at Wed Apr  9 03:52:43 2025.
 Gaussian 16:  ES64L-G16RevC.01  3-Jul-2019

 ----------------------------------------------------------------------
 #t hf aug-cc-pvdz iop(5/13=1,5/36=2,99/5=2) pseudo=read geom=check gue
 ss=(read,tcheck) scf=(maxcycle=1)
 ----------------------------------------------------------------------
 -----
 title
 -----
 Structure from the checkpoint file:  "Grambow2020_wb97xd3_008254_forward_mol1.chk"
 Charge =  0 Multiplicity = 1

                         Standard orientation:
 ---------------------------------------------------------------------
 Center     Atomic      Atomic             Coordinates (Angstroms)
 Number     Number       Type             X           Y           Z
 ---------------------------------------------------------------------
      1          6           0       -1.875839    0.786130    0.339769
      2          6           0       -0.634239    0.060754   -0.021820
      3          7           0       -0.635866   -1.134685   -0.891443
      4          6           0       -0.076698   -1.305219    0.363621
      5          6           0        1.312482   -0.757863    0.180970
      6          6           0        0.771308    0.591133   -0.167223
      7          8           0        1.258550    1.689024   -0.196951
      8          1           0       -1.723202    1.340585    1.266334
      9          1           0       -2.701254    0.087720    0.467118
     10          1           0       -2.134022    1.503064   -0.442099
     11          1           0       -0.017809   -1.162617   -1.703816
     12          1           0        0.485050   -1.426356    1.890541
     13          1           0        2.294638   -1.213774    0.212025
     14          1           0        1.197178   -0.947635    1.953699
 ---------------------------------------------------------------------

 SCF Done:  E(RHF) =  -322.766767078     A.U. after    2 cycles

 The electronic state is 1-A.
 Alpha  occ. eigenvalues --  -20.54493 -15.55520 -11.36546 -11.35786 -11.31791
 Alpha  occ. eigenvalues --  -11.28900 -11.25029  -1.48503  -1.35700  -1.08439
 Alpha  occ. eigenvalues --   -1.03431  -0.90017  -0.87958  -0.75859  -0.73266
 Alpha  occ. eigenvalues --   -0.68415  -0.66352  -0.62095  -0.58711  -0.58251
 Alpha  occ. eigenvalues --   -0.56178  -0.53574  -0.48949  -0.44543  -0.42173
 Alpha  occ. eigenvalues --   -0.33714
 Alpha virt. eigenvalues --   -0.01314   0.03058   0.03872   0.04599   0.05514
 Alpha virt. eigenvalues --    0.05825   0.06326   0.07518   0.08439   0.10013
 Alpha virt. eigenvalues --    0.11875   0.12533   0.13164   0.13553   0.14217

 Mulliken charges:
               1
     1  C   -0.648040
     2  C   -0.926615
     3  N    0.823011
     4  C   -0.653367
     5  C    0.023914
     6  C    1.519273
     7  O   -1.384323
     8  H    0.252966
     9  H    0.210228
    10  H    0.281717
    11  H    0.217204
    12  H    0.311647
    13  H   -0.027702
    14  H    0.000087
 Sum of Mulliken charges =  -0.00000

 Dipole moment (field-independent basis, Debye):
    X=              0.6851    Y=             -1.2661    Z=             -0.4204  Tot=              1.4997

 Test job not archived.
 1\1\GINC-SE222\SP\RHF\Aug-CC-pVDZ\C5H7N1O1\OHZDE\09-Apr-2025\0\\#t hf
 aug-cc-pvdz iop(5/13=1,5/36=2,99/5=2) pseudo=read geom=check guess=(re
 ad,tcheck) scf=(maxcycle=1)\\title\\0,1\C,0,-1.9325174,0.01108884,0.09
 801109\C,0,-0.48009826,-0.27804359,0.02473975\N,0,0.17693436,-1.277394
 87,0.89360515\C,0,0.68703236,0.00784521,0.96355341\C,0,1.59770731,0.06
 489481,-0.23235598\C,0,0.45169743,-0.18429955,-1.1588882\O,0,0.2999352
 2,-0.02252028,-2.33975531\H,0,-2.13082426,1.00883066,-0.29496098\H,0,-
 2.28098584,-0.04873276,1.12771737\H,0,-2.48989807,-0.70566215,-0.50826

 Normal termination of Gaussian 16 at Wed Apr  9 03:52:48 2025.
