 Gaussian 16, Revision C.01,

 ----------------------------------------------------------------------
 #t hf aug-cc-pvdz symm=none int=(grid=ultrafine) guess=(read,tcheck) s
 table=(opt,rrhf)
 ----------------------------------------------------------------------
 -----
 title
 -----
 Symbolic Z-matrix:
 Charge =  0 Multiplicity = 1

 SCF Done:  E(RHF) =  -247.609557992     A.U. after   16 cycles
 Normal termination of Gaussian 16 at Wed Apr  9 16:53:05 2025.
 Gaussian 16:  ES64L-G16RevC.01  3-Jul-2019

 ----------------------------------------------------------------------
 #t hf aug-cc-pvdz iop(5/13=1,5/36=2,99/5=2) pseudo=read geom=check gue
 ss=(read,tcheck) scf=(maxcycle=1)
 ----------------------------------------------------------------------
 -----
 title
 -----
 Structure from the checkpoint file:  "Grambow2020_wb97xd3_006165_forward_mol1.chk"
 Charge =  0 Multiplicity = 1

                         Standard orientation:
 ---------------------------------------------------------------------
 Center     Atomic      Atomic             Coordinates (Angstroms)
 Number     Number       Type             X           Y           Z
 ---------------------------------------------------------------------
      1          6           0       -2.115057   -0.597597   -0.217760
      2          6           0       -1.151904    0.492376    0.167492
      3          6           0        0.055716    0.220507    0.987048
      4          6           0        0.232752    0.662182   -0.494367
      5          6           0        1.353050   -0.172094   -0.601093
      6          7           0        2.313428   -0.482117    0.030687
      7          1           0       -2.621688   -0.365133   -1.156061
      8          1           0       -2.873764   -0.715233    0.558090
      9          1           0       -1.597192   -1.551162   -0.334631
     10          1           0       -1.598808    1.482103    0.221924
     11          1           0        0.085016   -0.867178    1.053764
     12          1           0        1.653987    0.069444    1.084775
     13          1           0        0.511110    1.689737   -0.690590
 ---------------------------------------------------------------------

 SCF Done:  E(RHF) =  -247.869295341     A.U. after    2 cycles

 The electronic state is 1-A.
 Alpha  occ. eigenvalues --  -15.53170 -11.33929 -11.29128 -11.29094 -11.25230
 Alpha  occ. eigenvalues --  -11.24658  -1.28937  -1.17691  -1.00989  -0.90294
 Alpha  occ. eigenvalues --   -0.83163  -0.70851  -0.67679  -0.64419  -0.62024
 Alpha  occ. eigenvalues --   -0.59369  -0.58064  -0.54828  -0.54099  -0.45703
 Alpha  occ. eigenvalues --   -0.41278  -0.34489
 Alpha virt. eigenvalues --    0.02873   0.03228   0.03730   0.04516   0.06040
 Alpha virt. eigenvalues --    0.06738   0.07022   0.08083   0.09029   0.10391
 Alpha virt. eigenvalues --    0.10753   0.11571   0.13656   0.14599   0.14769

 Mulliken charges:
               1
     1  C   -0.585401
     2  C    0.196034
     3  C   -0.585389
     4  C    0.718906
     5  C   -1.846499
     6  N    0.843585
     7  H    0.193319
     8  H    0.206387
     9  H    0.120448
    10  H   -0.092543
    11  H    0.173872
    12  H    0.694234
    13  H   -0.036952
 Sum of Mulliken charges =  -0.00000

 Dipole moment (field-independent basis, Debye):
    X=             -3.4479    Y=              0.8555    Z=             -1.3249  Tot=              3.7915

 Test job not archived.
 1\1\GINC-SE162\SP\RHF\Aug-CC-pVDZ\C5H7N1\OHZDE\09-Apr-2025\0\\#t hf au
 g-cc-pvdz iop(5/13=1,5/36=2,99/5=2) pseudo=read geom=check guess=(read
 ,tcheck) scf=(maxcycle=1)\\title\\0,1\C,0,1.71793643,0.5740948,-0.1009
 0861\C,0,0.66843899,-0.4877724,-0.28830056\C,0,-0.44197969,-0.6746528,
 0.67915893\C,0,-0.7688777,-0.17450592,-0.75750397\C,0,-1.79411467,0.62
 589496,-0.23719569\N,0,-2.6681371,0.56537308,0.56903548\H,0,2.12958251
 ,0.89757691,-1.05852498\H,0,2.53675587,0.18497703,0.50699015\H,0,1.302
 51514,1.4466656,0.40621523\H,0,1.00517811,-1.35031574,-0.85827587\H,0,

 Normal termination of Gaussian 16 at Wed Apr  9 16:53:09 2025.
