 Gaussian 16, Revision C.01,

 ----------------------------------------------------------------------
 #t hf aug-cc-pvdz symm=none int=(grid=ultrafine) guess=(read,tcheck) s
 table=(opt,rrhf)
 ----------------------------------------------------------------------
 -----
 title
 -----
 Symbolic Z-matrix:
 Charge =  0 Multiplicity = 1

 SCF Done:  E(RHF) =  -339.352065596     A.U. after   16 cycles
 Normal termination of Gaussian 16 at Wed Apr  9 15:50:35 2025.
 Gaussian 16:  ES64L-G16RevC.01  3-Jul-2019

 ----------------------------------------------------------------------
 #t hf aug-cc-pvdz iop(5/13=1,5/36=2,99/5=2) pseudo=read geom=check gue
 ss=(read,tcheck) scf=(maxcycle=1)
 ----------------------------------------------------------------------
 -----
 title
 -----
 Structure from the checkpoint file:  "Grambow2020_b97d3_006811_forward_mol2.chk"
 Charge =  0 Multiplicity = 1

                         Standard orientation:
 ---------------------------------------------------------------------
 Center     Atomic      Atomic             Coordinates (Angstroms)
 Number     Number       Type             X           Y           Z
 ---------------------------------------------------------------------
      1          8           0        1.504205   -1.215829    0.216707
      2          6           0        1.327689   -0.077746   -0.164978
      3          6           0       -0.000558    0.679963    0.000944
      4          8           0       -0.004145    1.902465   -0.004915
      5          6           0       -1.324191   -0.083488    0.175107
      6          8           0       -1.503283   -1.215061   -0.224339
      7          1           0        2.132126    0.565740   -0.594043
      8          1           0       -2.123992    0.549275    0.627981
 ---------------------------------------------------------------------

 SCF Done:  E(RHF) =  -339.676524052     A.U. after    2 cycles

 The electronic state is 1-A.
 Alpha  occ. eigenvalues --  -20.62059 -20.60297 -20.60269 -11.40084 -11.39035
 Alpha  occ. eigenvalues --  -11.39022  -1.53833  -1.51782  -1.51465  -1.01620
 Alpha  occ. eigenvalues --   -0.93198  -0.79749  -0.73331  -0.71908  -0.69632
 Alpha  occ. eigenvalues --   -0.67128  -0.61616  -0.56186  -0.54629  -0.53204
 Alpha  occ. eigenvalues --   -0.50097  -0.42745
 Alpha virt. eigenvalues --    0.00947   0.03457   0.04073   0.06806   0.08347
 Alpha virt. eigenvalues --    0.08818   0.09905   0.10430   0.12462   0.13051
 Alpha virt. eigenvalues --    0.14049   0.14098   0.14947   0.15631   0.19342

 Mulliken charges:
               1
     1  O   -1.035017
     2  C    0.935108
     3  C    1.005509
     4  O   -1.227545
     5  C    0.937112
     6  O   -1.032009
     7  H    0.208450
     8  H    0.208392
 Sum of Mulliken charges =   0.00000

 Dipole moment (field-independent basis, Debye):
    X=              0.0140    Y=              1.9509    Z=              0.0489  Tot=              1.9515

 Test job not archived.
 1\1\GINC-SE026\SP\RHF\Aug-CC-pVDZ\C3H2O3\OHZDE\09-Apr-2025\0\\#t hf au
 g-cc-pvdz iop(5/13=1,5/36=2,99/5=2) pseudo=read geom=check guess=(read
 ,tcheck) scf=(maxcycle=1)\\title\\0,1\O,0,-1.42931222,-0.44831827,1.37
 632698\C,0,-0.98155986,0.51007126,0.78212039\C,0,0.04133158,0.40148403
 ,-0.36146851\O,0,0.13399338,1.30673941,-1.17785306\C,0,0.94824108,-0.8
 3393046,-0.48976261\O,0,1.24830644,-1.5456692,0.44590705\H,0,-1.329067
 28,1.55839017,0.94197704\H,0,1.36806687,-0.94876694,-1.51724728\\Versi
 on=ES64L-G16RevC.01\State=1-A\HF=-339.6765241\RMSD=1.109e-02\Dipole=0.

 Normal termination of Gaussian 16 at Wed Apr  9 15:50:38 2025.
