 Gaussian 16, Revision C.01,

 ----------------------------------------------------------------------
 #t hf aug-cc-pvdz symm=none int=(grid=ultrafine) guess=(read,tcheck) s
 table=(opt,rrhf)
 ----------------------------------------------------------------------
 -----
 title
 -----
 Symbolic Z-matrix:
 Charge =  0 Multiplicity = 1

 SCF Done:  E(RHF) =  -343.470646609     A.U. after   16 cycles
 Normal termination of Gaussian 16 at Wed Apr  9 03:28:51 2025.
 Gaussian 16:  ES64L-G16RevC.01  3-Jul-2019

 ----------------------------------------------------------------------
 #t hf aug-cc-pvdz iop(5/13=1,5/36=2,99/5=2) pseudo=read geom=check gue
 ss=(read,tcheck) scf=(maxcycle=1)
 ----------------------------------------------------------------------
 -----
 title
 -----
 Structure from the checkpoint file:  "Grambow2020_wb97xd3_006712_reverse_mol1.chk"
 Charge =  0 Multiplicity = 1

                         Standard orientation:
 ---------------------------------------------------------------------
 Center     Atomic      Atomic             Coordinates (Angstroms)
 Number     Number       Type             X           Y           Z
 ---------------------------------------------------------------------
      1          8           0       -2.582980   -0.268667    0.084525
      2          6           0       -1.608461    0.671168   -0.273723
      3          6           0       -0.217591    0.230310    0.061948
      4          8           0        0.236783   -0.967855   -0.318405
      5          6           0        1.418969   -0.629345    0.479196
      6          6           0        2.252805    0.108649   -0.453426
      7          6           0        1.072422    0.858796    0.257885
      8          1           0       -2.270909   -1.143973   -0.158852
      9          1           0       -1.633689    0.884296   -1.352999
     10          1           0       -1.823635    1.599097    0.256430
     11          1           0       -0.309084   -0.267167    1.643680
     12          1           0        0.576391   -0.675846    1.683070
     13          1           0        2.248922   -0.096802   -1.519310
     14          1           0        3.186303    0.493994   -0.058974
     15          1           0        1.286418    1.661105    0.946719
 ---------------------------------------------------------------------

 SCF Done:  E(RHF) =  -343.823618007     A.U. after    2 cycles

 The electronic state is 1-A.
 Alpha  occ. eigenvalues --  -20.59658 -20.56390 -11.37199 -11.31585 -11.30467
 Alpha  occ. eigenvalues --  -11.28415 -11.25786  -1.55962  -1.47057  -1.15606
 Alpha  occ. eigenvalues --   -1.03582  -0.92909  -0.83537  -0.75833  -0.74664
 Alpha  occ. eigenvalues --   -0.71431  -0.69751  -0.66422  -0.62263  -0.57151
 Alpha  occ. eigenvalues --   -0.55606  -0.53697  -0.50627  -0.48213  -0.45489
 Alpha  occ. eigenvalues --   -0.37915  -0.36856
 Alpha virt. eigenvalues --    0.03215   0.03534   0.03935   0.05141   0.05998
 Alpha virt. eigenvalues --    0.06403   0.06968   0.08172   0.09336   0.09994
 Alpha virt. eigenvalues --    0.11376   0.12260   0.12978   0.13707   0.14160

 Mulliken charges:
               1
     1  O   -1.188947
     2  C    0.587568
     3  C    0.483283
     4  O   -1.402031
     5  C    0.295761
     6  C    0.107717
     7  C    0.258285
     8  H    0.341680
     9  H    0.222879
    10  H    0.138696
    11  H    0.047100
    12  H    0.410179
    13  H   -0.125085
    14  H    0.016707
    15  H   -0.193791
 Sum of Mulliken charges =  -0.00000

 Dipole moment (field-independent basis, Debye):
    X=              1.5272    Y=              1.8537    Z=             -1.7435  Tot=              2.9678

 Test job not archived.
 1\1\GINC-SE090\SP\RHF\Aug-CC-pVDZ\C5H8O2\OHZDE\09-Apr-2025\0\\#t hf au
 g-cc-pvdz iop(5/13=1,5/36=2,99/5=2) pseudo=read geom=check guess=(read
 ,tcheck) scf=(maxcycle=1)\\title\\0,1\O,0,2.46186609,0.45071766,1.1211
 2668\C,0,1.83739089,-0.01485123,-0.0427434\C,0,0.34352074,-0.02228461,
 0.05649614\O,0,-0.32682749,1.06464819,0.45137998\C,0,-1.50495478,0.193
 46435,0.41429726\C,0,-1.94613461,0.28445147,-0.96656589\C,0,-0.7576088
 3,-0.67863211,-0.61747715\H,0,1.98498375,1.22153272,1.43926203\H,0,2.1
 052563,0.59959229,-0.91544311\H,0,2.18514671,-1.03115908,-0.22874928\H

 Normal termination of Gaussian 16 at Wed Apr  9 03:28:56 2025.
