 Gaussian 16, Revision C.01,

 ----------------------------------------------------------------------
 #t hf aug-cc-pvdz symm=none int=(grid=ultrafine) guess=(read,tcheck) s
 table=(opt,rrhf)
 ----------------------------------------------------------------------
 -----
 title
 -----
 Symbolic Z-matrix:
 Charge =  0 Multiplicity = 1

 SCF Done:  E(RHF) =  -262.464032753     A.U. after   18 cycles
 Normal termination of Gaussian 16 at Wed Apr  9 15:55:40 2025.
 Gaussian 16:  ES64L-G16RevC.01  3-Jul-2019

 ----------------------------------------------------------------------
 #t hf aug-cc-pvdz iop(5/13=1,5/36=2,99/5=2) pseudo=read geom=check gue
 ss=(read,tcheck) scf=(maxcycle=1)
 ----------------------------------------------------------------------
 -----
 title
 -----
 Structure from the checkpoint file:  "Grambow2020_b97d3_006896_forward_mol1.chk"
 Charge =  0 Multiplicity = 1

                         Standard orientation:
 ---------------------------------------------------------------------
 Center     Atomic      Atomic             Coordinates (Angstroms)
 Number     Number       Type             X           Y           Z
 ---------------------------------------------------------------------
      1          6           0        0.923307   -0.699917   -0.543063
      2          6           0       -1.181143   -1.090231   -0.058964
      3          7           0       -1.348601    0.141615    0.148725
      4          7           0       -0.726726    1.203156   -0.008552
      5          6           0        0.729740    0.777756   -0.192686
      6          6           0        1.424413   -0.224795    0.599408
      7          1           0        1.154627   -1.396624   -1.342175
      8          1           0       -1.362984   -1.827732    0.725692
      9          1           0        1.266670    1.619048   -0.634479
     10          1           0        2.091072   -0.384964    1.441576
 ---------------------------------------------------------------------

 SCF Done:  E(RHF) =  -262.727506887     A.U. after    2 cycles

 The electronic state is 1-A.
 Alpha  occ. eigenvalues --  -15.59941 -15.54997 -11.30327 -11.29423 -11.29363
 Alpha  occ. eigenvalues --  -11.28828  -1.38791  -1.19349  -1.11624  -0.89147
 Alpha  occ. eigenvalues --   -0.80692  -0.76139  -0.72231  -0.71293  -0.63818
 Alpha  occ. eigenvalues --   -0.62851  -0.53435  -0.47266  -0.44459  -0.42661
 Alpha  occ. eigenvalues --   -0.35296
 Alpha virt. eigenvalues --    0.02998   0.03599   0.03757   0.04452   0.05093
 Alpha virt. eigenvalues --    0.07729   0.09057   0.09673   0.10335   0.11330
 Alpha virt. eigenvalues --    0.12563   0.13819   0.14856   0.15291   0.15692

 Mulliken charges:
               1
     1  C    0.156805
     2  C   -0.364040
     3  N    0.105763
     4  N   -0.107954
     5  C    0.089764
     6  C    0.508241
     7  H   -0.226619
     8  H    0.053081
     9  H   -0.087105
    10  H   -0.127937
 Sum of Mulliken charges =  -0.00000

 Dipole moment (field-independent basis, Debye):
    X=              3.5185    Y=             -2.7183    Z=              0.9656  Tot=              4.5499

 Test job not archived.
 1\1\GINC-SE226\SP\RHF\Aug-CC-pVDZ\C4H4N2\OHZDE\09-Apr-2025\0\\#t hf au
 g-cc-pvdz iop(5/13=1,5/36=2,99/5=2) pseudo=read geom=check guess=(read
 ,tcheck) scf=(maxcycle=1)\\title\\0,1\C,0,0.05233257,0.77706428,-0.597
 99988\C,0,1.59253812,-0.68199745,-0.03736254\N,0,0.68711721,-1.5217992
 5,0.21476682\N,0,-0.53824773,-1.6402147,0.063797\C,0,-1.03799048,-0.21
 909982,-0.19476121\C,0,-0.6251791,0.96848896,0.53620545\H,0,0.48488838
 ,1.32749606,-1.42710163\H,0,2.29870807,-0.36106802,0.7313937\H,0,-2.03
 480692,-0.2936722,-0.63298934\H,0,-0.88179511,1.64730515,1.34409963\\V

 Normal termination of Gaussian 16 at Wed Apr  9 15:55:43 2025.
