 Gaussian 16, Revision C.01,

 ----------------------------------------------------------------------
 #t hf aug-cc-pvdz symm=none int=(grid=ultrafine) guess=(read,tcheck) s
 table=(opt,rrhf)
 ----------------------------------------------------------------------
 -----
 title
 -----
 Symbolic Z-matrix:
 Charge =  0 Multiplicity = 1

 SCF Done:  E(RHF) =  -317.538409819     A.U. after   17 cycles
 Normal termination of Gaussian 16 at Wed Apr  9 18:41:19 2025.
 Gaussian 16:  ES64L-G16RevC.01  3-Jul-2019

 ----------------------------------------------------------------------
 #t hf aug-cc-pvdz iop(5/13=1,5/36=2,99/5=2) pseudo=read geom=check gue
 ss=(read,tcheck) scf=(maxcycle=1)
 ----------------------------------------------------------------------
 -----
 title
 -----
 Structure from the checkpoint file:  "Grambow2020_wb97xd3_007981_forward_mol1.chk"
 Charge =  0 Multiplicity = 1

                         Standard orientation:
 ---------------------------------------------------------------------
 Center     Atomic      Atomic             Coordinates (Angstroms)
 Number     Number       Type             X           Y           Z
 ---------------------------------------------------------------------
      1          7           0       -0.001884   -0.791149    1.060158
      2          6           0       -0.000364   -1.134166   -0.314514
      3          7           0       -1.232281   -0.396998   -0.739081
      4          6           0       -1.180448    0.771149   -0.231229
      5          6           0        0.000636    0.991145    0.646453
      6          6           0        1.182055    0.769639   -0.230026
      7          7           0        1.233196   -0.398759   -0.737247
      8          1           0        0.841221   -1.046882    1.565559
      9          1           0       -0.848491   -1.043709    1.561521
     10          1           0       -1.930287    1.531204   -0.428854
     11          1           0        0.000520    1.752476    1.418885
     12          1           0        1.932535    1.528653   -0.428023
 ---------------------------------------------------------------------

 SCF Done:  E(RHF) =  -317.857646502     A.U. after    2 cycles

 The electronic state is 1-A.
 Alpha  occ. eigenvalues --  -15.62748 -15.49884 -15.49853 -11.33036 -11.29451
 Alpha  occ. eigenvalues --  -11.29413 -11.24702  -1.35689  -1.21039  -1.20171
 Alpha  occ. eigenvalues --   -1.04159  -0.90716  -0.84833  -0.81150  -0.75727
 Alpha  occ. eigenvalues --   -0.73374  -0.68000  -0.65224  -0.63039  -0.58546
 Alpha  occ. eigenvalues --   -0.51112  -0.47239  -0.44298  -0.43764  -0.28778
 Alpha virt. eigenvalues --    0.01709   0.02401   0.03638   0.03743   0.04297
 Alpha virt. eigenvalues --    0.04996   0.09142   0.09286   0.09885   0.11122
 Alpha virt. eigenvalues --    0.11859   0.12414   0.12795   0.14210   0.14667

 Mulliken charges:
               1
     1  N    0.188486
     2  C   -1.822546
     3  N    0.944582
     4  C   -0.496062
     5  C    0.427283
     6  C   -0.494602
     7  N    0.944664
     8  H    0.329171
     9  H    0.330848
    10  H   -0.075834
    11  H   -0.199833
    12  H   -0.076156
 Sum of Mulliken charges =  -0.00000

 Dipole moment (field-independent basis, Debye):
    X=             -0.0041    Y=              5.6073    Z=              6.4002  Tot=              8.5091

 Test job not archived.
 1\1\GINC-SE454\SP\RHF\Aug-CC-pVDZ\C4H5N3\OHZDE\09-Apr-2025\0\\#t hf au
 g-cc-pvdz iop(5/13=1,5/36=2,99/5=2) pseudo=read geom=check guess=(read
 ,tcheck) scf=(maxcycle=1)\\title\\0,1\N,0,1.23911914,-0.06874029,0.358
 07492\C,0,0.97437873,-0.27226259,-1.01883354\N,0,0.0083565,-1.41018013
 ,-0.90377114\C,0,-0.82896267,-1.11790081,0.01199985\C,0,-0.54287882,0.
 17200549,0.6960901\C,0,-0.59135514,1.20002938,-0.37808394\N,0,0.256730
 13,1.00881537,-1.31040933\H,0,1.76542198,0.7731217,0.57238658\H,0,1.59
 226163,-0.88472592,0.8493525\H,0,-1.6726829,-1.75433647,0.2611651\H,0,

 Normal termination of Gaussian 16 at Wed Apr  9 18:41:24 2025.
