 Gaussian 16, Revision C.01,

 ----------------------------------------------------------------------
 #t hf aug-cc-pvdz symm=none int=(grid=ultrafine) guess=(read,tcheck) s
 table=(opt,rrhf)
 ----------------------------------------------------------------------
 -----
 title
 -----
 Symbolic Z-matrix:
 Charge =  0 Multiplicity = 1

 SCF Done:  E(RHF) =  -263.687423832     A.U. after   16 cycles
 Normal termination of Gaussian 16 at Wed Apr  9 15:51:42 2025.
 Gaussian 16:  ES64L-G16RevC.01  3-Jul-2019

 ----------------------------------------------------------------------
 #t hf aug-cc-pvdz iop(5/13=1,5/36=2,99/5=2) pseudo=read geom=check gue
 ss=(read,tcheck) scf=(maxcycle=1)
 ----------------------------------------------------------------------
 -----
 title
 -----
 Structure from the checkpoint file:  "Grambow2020_b97d3_006863_forward_mol1.chk"
 Charge =  0 Multiplicity = 1

                         Standard orientation:
 ---------------------------------------------------------------------
 Center     Atomic      Atomic             Coordinates (Angstroms)
 Number     Number       Type             X           Y           Z
 ---------------------------------------------------------------------
      1          6           0       -1.724570    0.101320    0.569637
      2          6           0       -0.381559    0.865080   -0.728274
      3          6           0        0.836393    1.062391   -0.012281
      4          7           0        1.360618   -0.147094    0.325872
      5          7           0        0.624932   -1.206310    0.008114
      6          6           0       -0.478801   -0.584527   -0.586784
      7          1           0       -1.684478   -0.758851    1.248136
      8          1           0       -1.590006    1.020376    1.138233
      9          1           0       -2.652223    0.130308   -0.000016
     10          1           0        1.380764    1.973615    0.224267
     11          1           0        2.263389   -0.322016    0.771333
     12          1           0       -1.125070   -1.235187   -1.173647
 ---------------------------------------------------------------------

 SCF Done:  E(RHF) =  -263.956337299     A.U. after    2 cycles

 The electronic state is 1-A.
 Alpha  occ. eigenvalues --  -15.63579 -15.52981 -11.28940 -11.28267 -11.28095
 Alpha  occ. eigenvalues --  -11.21929  -1.38964  -1.11898  -1.08024  -0.95407
 Alpha  occ. eigenvalues --   -0.84290  -0.82414  -0.75732  -0.66229  -0.64853
 Alpha  occ. eigenvalues --   -0.59890  -0.57629  -0.55846  -0.52253  -0.43605
 Alpha  occ. eigenvalues --   -0.36297  -0.34449
 Alpha virt. eigenvalues --    0.02639   0.03169   0.04485   0.05118   0.05695
 Alpha virt. eigenvalues --    0.05957   0.06755   0.09186   0.10423   0.11944
 Alpha virt. eigenvalues --    0.12555   0.13504   0.15031   0.15502   0.15708

 Mulliken charges:
               1
     1  C   -0.323725
     2  C   -0.226559
     3  C    0.064520
     4  N    0.609004
     5  N    0.013382
     6  C   -0.756378
     7  H    0.243204
     8  H    0.206498
     9  H    0.190677
    10  H   -0.074880
    11  H    0.064097
    12  H   -0.009840
 Sum of Mulliken charges =   0.00000

 Dipole moment (field-independent basis, Debye):
    X=              0.8136    Y=              0.5674    Z=              2.5751  Tot=              2.7596

 Test job not archived.
 1\1\GINC-SE141\SP\RHF\Aug-CC-pVDZ\C4H6N2\OHZDE\09-Apr-2025\0\\#t hf au
 g-cc-pvdz iop(5/13=1,5/36=2,99/5=2) pseudo=read geom=check guess=(read
 ,tcheck) scf=(maxcycle=1)\\title\\0,1\C,0,-1.50004033,0.20306234,-0.07
 907582\C,0,-0.0291345,-0.84817748,0.81697797\C,0,0.96972566,-1.1057926
 9,-0.16836323\N,0,1.57059135,0.06451212,-0.51672963\N,0,1.07160118,1.1
 6070127,0.04319917\C,0,0.04525688,0.60966331,0.81890383\H,0,-1.4878367
 8,1.12171979,-0.67722382\H,0,-1.61678604,-0.65776917,-0.73589526\H,0,-
 2.28020416,0.21963443,0.68050011\H,0,1.32119062,-2.0425961,-0.59438788

 Normal termination of Gaussian 16 at Wed Apr  9 15:51:47 2025.
