 Gaussian 16, Revision C.01,

 ----------------------------------------------------------------------
 #t hf aug-cc-pvdz symm=none int=(grid=ultrafine) guess=(read,tcheck) s
 table=(opt,rrhf)
 ----------------------------------------------------------------------
 -----
 title
 -----
 Symbolic Z-matrix:
 Charge =  0 Multiplicity = 1

 SCF Done:  E(RHF) =  -286.839805648     A.U. after   15 cycles
 Normal termination of Gaussian 16 at Wed Apr  9 18:29:30 2025.
 Gaussian 16:  ES64L-G16RevC.01  3-Jul-2019

 ----------------------------------------------------------------------
 #t hf aug-cc-pvdz iop(5/13=1,5/36=2,99/5=2) pseudo=read geom=check gue
 ss=(read,tcheck) scf=(maxcycle=1)
 ----------------------------------------------------------------------
 -----
 title
 -----
 Structure from the checkpoint file:  "Grambow2020_wb97xd3_007632_reverse_mol2.chk"
 Charge =  0 Multiplicity = 1

                         Standard orientation:
 ---------------------------------------------------------------------
 Center     Atomic      Atomic             Coordinates (Angstroms)
 Number     Number       Type             X           Y           Z
 ---------------------------------------------------------------------
      1          6           0       -2.083247   -0.472924   -0.422937
      2          6           0       -0.699251   -0.159619    0.072592
      3          6           0       -0.446694    1.071409    0.904470
      4          6           0        0.164042    0.977681   -0.455932
      5          6           0        1.571394    0.448154   -0.503544
      6          7           0        1.407962   -0.873076    0.135485
      7          6           0        0.207372   -1.286428    0.449292
      8          1           0       -2.046269   -1.098333   -1.316955
      9          1           0       -2.630124    0.439688   -0.669334
     10          1           0       -2.642472   -1.016559    0.340221
     11          1           0       -1.284125    1.746733    1.028925
     12          1           0        0.197007    0.985184    1.773454
     13          1           0       -0.181809    1.631653   -1.244722
     14          1           0        2.288591    1.052354    0.058050
     15          1           0        2.219758   -1.432332    0.343896
     16          1           0        1.942008    0.333503   -1.525572
 ---------------------------------------------------------------------

 SCF Done:  E(RHF) =  -287.142754804     A.U. after    2 cycles

 The electronic state is 1-A.
 Alpha  occ. eigenvalues --  -15.53592 -11.27760 -11.24105 -11.24052 -11.23928
 Alpha  occ. eigenvalues --  -11.23548 -11.22255  -1.28316  -1.14552  -1.00950
 Alpha  occ. eigenvalues --   -0.95291  -0.88637  -0.80234  -0.75693  -0.70208
 Alpha  occ. eigenvalues --   -0.66668  -0.62993  -0.60790  -0.57070  -0.55422
 Alpha  occ. eigenvalues --   -0.53594  -0.51208  -0.49476  -0.42834  -0.40677
 Alpha  occ. eigenvalues --   -0.33958
 Alpha virt. eigenvalues --    0.03231   0.03665   0.03870   0.04595   0.05566
 Alpha virt. eigenvalues --    0.05806   0.06157   0.07239   0.07673   0.11045
 Alpha virt. eigenvalues --    0.11601   0.11793   0.12518   0.13227   0.14069

 Mulliken charges:
               1
     1  C   -0.349276
     2  C   -0.205357
     3  C    0.487179
     4  C    0.467068
     5  C   -0.425336
     6  N    0.754632
     7  C   -1.000854
     8  H    0.210522
     9  H    0.133889
    10  H    0.223094
    11  H   -0.138109
    12  H   -0.124730
    13  H   -0.211113
    14  H    0.045315
    15  H    0.066231
    16  H    0.066845
 Sum of Mulliken charges =  -0.00000

 Dipole moment (field-independent basis, Debye):
    X=              1.4182    Y=              2.5122    Z=             -1.2181  Tot=              3.1315

 Test job not archived.
 1\1\GINC-SE454\SP\RHF\Aug-CC-pVDZ\C6H9N1\OHZDE\09-Apr-2025\0\\#t hf au
 g-cc-pvdz iop(5/13=1,5/36=2,99/5=2) pseudo=read geom=check guess=(read
 ,tcheck) scf=(maxcycle=1)\\title\\0,1\C,0,1.79704504,-0.72723855,0.739
 30971\C,0,0.56670907,-0.32141088,-0.02274664\C,0,0.56008026,0.94137831
 ,-0.84527663\C,0,-0.32714064,0.85223357,0.35362553\C,0,-1.73898883,0.4
 056746,0.08796027\N,0,-1.51482748,-0.90767957,-0.54888258\C,0,-0.29863
 04,-1.38371868,-0.61961772\H,0,1.53993398,-1.3699939,1.58342511\H,0,2.
 32728656,0.14555171,1.12625594\H,0,2.47474277,-1.28502155,0.09101451\H

 Normal termination of Gaussian 16 at Wed Apr  9 18:29:35 2025.
