 Gaussian 16, Revision C.01,

 ----------------------------------------------------------------------
 #t hf aug-cc-pvdz symm=none int=(grid=ultrafine) guess=(read,tcheck) s
 table=(opt,rrhf)
 ----------------------------------------------------------------------
 -----
 title
 -----
 Symbolic Z-matrix:
 Charge =  0 Multiplicity = 1

 SCF Done:  E(RHF) =  -339.761213224     A.U. after   15 cycles
 Normal termination of Gaussian 16 at Wed Apr  9 17:15:37 2025.
 Gaussian 16:  ES64L-G16RevC.01  3-Jul-2019

 ----------------------------------------------------------------------
 #t hf aug-cc-pvdz iop(5/13=1,5/36=2,99/5=2) pseudo=read geom=check gue
 ss=(read,tcheck) scf=(maxcycle=1)
 ----------------------------------------------------------------------
 -----
 title
 -----
 Structure from the checkpoint file:  "Grambow2020_wb97xd3_006545_forward_mol1.chk"
 Charge =  0 Multiplicity = 1

                         Standard orientation:
 ---------------------------------------------------------------------
 Center     Atomic      Atomic             Coordinates (Angstroms)
 Number     Number       Type             X           Y           Z
 ---------------------------------------------------------------------
      1          6           0       -1.342238    2.030775   -0.289490
      2          7           0       -0.272587    1.069069    0.450310
      3          6           0        0.030185   -0.146959   -0.273577
      4          6           0        1.380740   -0.747503    0.137573
      5          8           0        2.441057    0.100557   -0.205762
      6          6           0       -1.046937   -1.133331   -0.095801
      7          7           0       -1.855992   -1.924916    0.087137
      8          1           0       -2.043889    1.370833   -0.802878
      9          1           0       -1.848270    2.535002    0.534012
     10          1           0        0.091833    1.987090   -0.032573
     11          1           0       -0.384867    0.955383    1.450414
     12          1           0        0.073609    0.130844   -1.332045
     13          1           0        1.527946   -1.682783   -0.402741
     14          1           0        1.366895   -0.981388    1.209673
     15          1           0        2.457838    0.853602    0.387867
 ---------------------------------------------------------------------

 SCF Done:  E(RHF) =  -340.111226589     A.U. after    2 cycles

 The electronic state is 1-A.
 Alpha  occ. eigenvalues --  -20.58772 -15.58620 -15.53627 -11.34844 -11.33310
 Alpha  occ. eigenvalues --  -11.29829 -11.22860  -1.49596  -1.29943  -1.25434
 Alpha  occ. eigenvalues --   -1.07998  -0.93254  -0.90199  -0.81811  -0.74843
 Alpha  occ. eigenvalues --   -0.74239  -0.71291  -0.64868  -0.63410  -0.61948
 Alpha  occ. eigenvalues --   -0.56576  -0.53728  -0.53434  -0.52983  -0.52125
 Alpha  occ. eigenvalues --   -0.47898  -0.32676
 Alpha virt. eigenvalues --    0.02069   0.03921   0.04205   0.04274   0.05531
 Alpha virt. eigenvalues --    0.06010   0.07353   0.08034   0.09756   0.10381
 Alpha virt. eigenvalues --    0.11798   0.12633   0.13274   0.13475   0.13518

 Mulliken charges:
               1
     1  C   -0.535859
     2  N    0.029533
     3  C   -0.878865
     4  C    1.291026
     5  O   -1.165566
     6  C   -1.615685
     7  N    1.061755
     8  H    0.028651
     9  H   -0.054512
    10  H    0.774874
    11  H    0.325372
    12  H    0.164723
    13  H    0.109828
    14  H    0.176113
    15  H    0.288612
 Sum of Mulliken charges =  -0.00000

 Dipole moment (field-independent basis, Debye):
    X=              3.3235    Y=              0.8314    Z=              2.4761  Tot=              4.2271

 Test job not archived.
 1\1\GINC-SE113\SP\RHF\Aug-CC-pVDZ\C4H8N2O1\OHZDE\09-Apr-2025\0\\#t hf
 aug-cc-pvdz iop(5/13=1,5/36=2,99/5=2) pseudo=read geom=check guess=(re
 ad,tcheck) scf=(maxcycle=1)\\title\\0,1\C,0,-1.98976823,0.83053166,0.6
 3614005\N,0,-0.51379952,0.18951165,0.80029542\C,0,0.13368962,-0.134669
 91,-0.45272911\C,0,1.65955186,-0.21518447,-0.31504723\O,0,2.20777757,1
 .0307255,0.01436598\C,0,-0.40075619,-1.39245919,-0.99776139\N,0,-0.773
 26041,-2.40091898,-1.39637448\H,0,-2.43569742,0.35307495,-0.23826606\H
 ,0,-2.51250487,0.50804092,1.53681595\H,0,-0.64198634,1.26667449,0.9792

 Normal termination of Gaussian 16 at Wed Apr  9 17:15:42 2025.
