 Gaussian 16, Revision C.01,

 ----------------------------------------------------------------------
 #t hf aug-cc-pvdz symm=none int=(grid=ultrafine) guess=(read,tcheck) s
 table=(opt,rrhf)
 ----------------------------------------------------------------------
 -----
 title
 -----
 Symbolic Z-matrix:
 Charge =  0 Multiplicity = 1

 SCF Done:  E(RHF) =  -266.661151683     A.U. after   15 cycles
 Normal termination of Gaussian 16 at Wed Apr  9 15:42:36 2025.
 Gaussian 16:  ES64L-G16RevC.01  3-Jul-2019

 ----------------------------------------------------------------------
 #t hf aug-cc-pvdz iop(5/13=1,5/36=2,99/5=2) pseudo=read geom=check gue
 ss=(read,tcheck) scf=(maxcycle=1)
 ----------------------------------------------------------------------
 -----
 title
 -----
 Structure from the checkpoint file:  "Grambow2020_b97d3_006693_reverse_mol2.chk"
 Charge =  0 Multiplicity = 1

                         Standard orientation:
 ---------------------------------------------------------------------
 Center     Atomic      Atomic             Coordinates (Angstroms)
 Number     Number       Type             X           Y           Z
 ---------------------------------------------------------------------
      1          6           0       -0.501642    1.102940    0.143823
      2          6           0       -1.252748   -0.206960    0.048935
      3          8           0       -0.119062   -1.179234    0.077168
      4          6           0        0.922940   -0.503503   -0.412984
      5          8           0        0.758088    0.779342   -0.420646
      6          1           0        0.986613    0.494272    2.269266
      7          1           0       -0.902949    1.989357   -0.346420
      8          1           0       -1.893936   -0.441433    0.905991
      9          1           0       -1.813888   -0.406937   -0.894269
     10          1           0        1.589365    0.158872    2.564269
     11          1           0        1.911284   -0.949864   -0.429665
 ---------------------------------------------------------------------

 SCF Done:  E(RHF) =  -266.930559077     A.U. after    2 cycles

 The electronic state is 1-A.
 Alpha  occ. eigenvalues --  -20.66247 -20.62951 -11.43680 -11.31228 -11.22822
 Alpha  occ. eigenvalues --   -1.62036  -1.50355  -1.04392  -0.89891  -0.85580
 Alpha  occ. eigenvalues --   -0.78771  -0.71566  -0.65099  -0.62349  -0.58967
 Alpha  occ. eigenvalues --   -0.57972  -0.56696  -0.52835  -0.51846  -0.26011
 Alpha virt. eigenvalues --    0.02984   0.04222   0.04971   0.05464   0.06583
 Alpha virt. eigenvalues --    0.07361   0.08885   0.09908   0.10473   0.12714
 Alpha virt. eigenvalues --    0.14168   0.14593   0.14822   0.15351   0.16207

 Mulliken charges:
               1
     1  C    0.355940
     2  C    0.152737
     3  O   -1.110721
     4  C    1.437454
     5  O   -1.006760
     6  H    0.029679
     7  H   -0.107149
     8  H    0.088223
     9  H    0.077169
    10  H   -0.030904
    11  H    0.114331
 Sum of Mulliken charges =  -0.00000

 Dipole moment (field-independent basis, Debye):
    X=              0.7635    Y=             -2.1340    Z=             -1.9859  Tot=              3.0135

 Test job not archived.
 1\1\GINC-SE162\SP\RHF\Aug-CC-pVDZ\C3H6O2\OHZDE\09-Apr-2025\0\\#t hf au
 g-cc-pvdz iop(5/13=1,5/36=2,99/5=2) pseudo=read geom=check guess=(read
 ,tcheck) scf=(maxcycle=1)\\title\\0,1\C,0,0.60410688,0.84171511,0.4685
 5616\C,0,1.14338448,-0.51938049,0.08698082\O,0,-0.12043162,-1.22449464
 ,-0.2830741\C,0,-1.0739516,-0.60805211,0.41937045\O,0,-0.71867872,0.54
 54877,0.8841844\H,0,-0.84138659,1.26885997,-1.72939304\H,0,1.10701687,
 1.42164206,1.24178897\H,0,1.78749772,-0.53544904,-0.79930604\H,0,1.616
 11925,-1.12641067,0.89477977\H,0,-1.47084875,1.16016398,-2.12282961\H,

 Normal termination of Gaussian 16 at Wed Apr  9 15:42:39 2025.
