 Gaussian 16, Revision C.01,

 ----------------------------------------------------------------------
 #t hf aug-cc-pvdz symm=none int=(grid=ultrafine) guess=(read,tcheck) s
 table=(opt,rrhf)
 ----------------------------------------------------------------------
 -----
 title
 -----
 Symbolic Z-matrix:
 Charge =  0 Multiplicity = 1

 SCF Done:  E(RHF) =  -321.484993032     A.U. after   15 cycles
 Normal termination of Gaussian 16 at Wed Apr  9 18:22:04 2025.
 Gaussian 16:  ES64L-G16RevC.01  3-Jul-2019

 ----------------------------------------------------------------------
 #t hf aug-cc-pvdz iop(5/13=1,5/36=2,99/5=2) pseudo=read geom=check gue
 ss=(read,tcheck) scf=(maxcycle=1)
 ----------------------------------------------------------------------
 -----
 title
 -----
 Structure from the checkpoint file:  "Grambow2020_wb97xd3_007496_forward_mol2.chk"
 Charge =  0 Multiplicity = 1

                         Standard orientation:
 ---------------------------------------------------------------------
 Center     Atomic      Atomic             Coordinates (Angstroms)
 Number     Number       Type             X           Y           Z
 ---------------------------------------------------------------------
      1          8           0        0.167472    1.574162    0.154321
      2          6           0        0.396845    0.403106   -0.034563
      3          6           0        1.752287   -0.126983   -0.005676
      4          6           0        2.856962   -0.588979    0.015171
      5          6           0       -0.682558   -0.590117   -0.298955
      6          6           0       -1.800338   -0.608240    0.687873
      7          7           0       -1.995845   -0.072351   -0.638969
      8          1           0        3.846253   -0.983992    0.036879
      9          1           0       -0.381347   -1.509007   -0.787083
     10          1           0       -1.728680    0.081654    1.521561
     11          1           0       -2.292224   -1.551279    0.892245
     12          1           0       -1.952053    0.943062   -0.608482
 ---------------------------------------------------------------------

 SCF Done:  E(RHF) =  -321.813997418     A.U. after    2 cycles

 The electronic state is 1-A.
 Alpha  occ. eigenvalues --  -20.56201 -15.51892 -11.38020 -11.28812 -11.28677
 Alpha  occ. eigenvalues --  -11.28193 -11.26957  -1.50090  -1.29530  -1.08189
 Alpha  occ. eigenvalues --   -0.98418  -0.90980  -0.84657  -0.77986  -0.74360
 Alpha  occ. eigenvalues --   -0.70403  -0.66561  -0.60255  -0.58155  -0.54626
 Alpha  occ. eigenvalues --   -0.52145  -0.45842  -0.44124  -0.43786  -0.43330
 Alpha virt. eigenvalues --    0.02904   0.03871   0.04930   0.05522   0.05982
 Alpha virt. eigenvalues --    0.06341   0.08459   0.09348   0.10575   0.10884
 Alpha virt. eigenvalues --    0.11572   0.12208   0.13068   0.13826   0.15387

 Mulliken charges:
               1
     1  O   -1.406124
     2  C    1.032053
     3  C    0.530647
     4  C    0.133056
     5  C   -0.644924
     6  C    0.253160
     7  N    0.496674
     8  H   -0.338592
     9  H   -0.177086
    10  H   -0.073987
    11  H   -0.057486
    12  H    0.252609
 Sum of Mulliken charges =  -0.00000

 Dipole moment (field-independent basis, Debye):
    X=              1.6187    Y=             -2.3661    Z=              1.0770  Tot=              3.0624

 Test job not archived.
 1\1\GINC-SE112\SP\RHF\Aug-CC-pVDZ\C5H5N1O1\OHZDE\09-Apr-2025\0\\#t hf
 aug-cc-pvdz iop(5/13=1,5/36=2,99/5=2) pseudo=read geom=check guess=(re
 ad,tcheck) scf=(maxcycle=1)\\title\\0,1\O,0,0.24945617,0.0628296,1.838
 62\C,0,0.53751645,0.12564504,0.66698201\C,0,1.89316788,-0.1193519,0.19
 662403\C,0,2.99929014,-0.31877691,-0.21678458\C,0,-0.46688784,0.445135
 88,-0.3868701\C,0,-1.70317858,-0.38856129,-0.37571821\N,0,-1.73964535,
 0.99127679,0.04928682\H,0,3.98890163,-0.49886408,-0.56812436\H,0,-0.07
 621545,0.8148896,-1.32708963\H,0,-1.76257696,-1.16614452,0.3779134\H,0

 Normal termination of Gaussian 16 at Wed Apr  9 18:22:08 2025.
