 Gaussian 16, Revision C.01,

 ----------------------------------------------------------------------
 #t hf aug-cc-pvdz symm=none int=(grid=ultrafine) guess=(read,tcheck) s
 table=(opt,rrhf)
 ----------------------------------------------------------------------
 -----
 title
 -----
 Symbolic Z-matrix:
 Charge =  0 Multiplicity = 1

 SCF Done:  E(RHF) =  -322.507035966     A.U. after   18 cycles
 Normal termination of Gaussian 16 at Wed Apr  9 18:08:45 2025.
 Gaussian 16:  ES64L-G16RevC.01  3-Jul-2019

 ----------------------------------------------------------------------
 #t hf aug-cc-pvdz iop(5/13=1,5/36=2,99/5=2) pseudo=read geom=check gue
 ss=(read,tcheck) scf=(maxcycle=1)
 ----------------------------------------------------------------------
 -----
 title
 -----
 Structure from the checkpoint file:  "Grambow2020_wb97xd3_007131_forward_mol1.chk"
 Charge =  0 Multiplicity = 1

                         Standard orientation:
 ---------------------------------------------------------------------
 Center     Atomic      Atomic             Coordinates (Angstroms)
 Number     Number       Type             X           Y           Z
 ---------------------------------------------------------------------
      1          7           0        1.268013   -1.489112    0.072851
      2          6           0        0.277831   -0.844952   -0.275762
      3          8           0       -1.055993   -1.089598   -0.110670
      4          6           0       -1.589598    0.146337    0.439196
      5          6           0       -0.793979    1.218400   -0.227079
      6          6           0        1.486723    1.003756    0.467338
      7          6           0        0.445749    0.670066   -0.611777
      8          1           0        1.952833   -0.265006    0.266274
      9          1           0       -1.461585    0.101970    1.528632
     10          1           0       -2.654456    0.222716    0.217671
     11          1           0       -1.238611    2.132710   -0.600255
     12          1           0        1.120255    0.921743    1.491667
     13          1           0        2.065881    1.915142    0.314014
     14          1           0        0.827178    0.949650   -1.594098
 ---------------------------------------------------------------------

 SCF Done:  E(RHF) =  -322.833342612     A.U. after    2 cycles

 The electronic state is 1-A.
 Alpha  occ. eigenvalues --  -20.58161 -15.44533 -11.36183 -11.34153 -11.30001
 Alpha  occ. eigenvalues --  -11.27355 -11.25804  -1.51076  -1.19209  -1.14259
 Alpha  occ. eigenvalues --   -1.00736  -0.92179  -0.82921  -0.78199  -0.71193
 Alpha  occ. eigenvalues --   -0.70577  -0.65838  -0.62302  -0.59325  -0.57520
 Alpha  occ. eigenvalues --   -0.55804  -0.53997  -0.49816  -0.43706  -0.39131
 Alpha  occ. eigenvalues --   -0.32058
 Alpha virt. eigenvalues --   -0.02132   0.01649   0.03076   0.03784   0.04383
 Alpha virt. eigenvalues --    0.05368   0.06693   0.08377   0.09496   0.10274
 Alpha virt. eigenvalues --    0.11700   0.12621   0.13242   0.13943   0.14031

 Mulliken charges:
               1
     1  N    0.821502
     2  C   -0.427921
     3  O   -1.404136
     4  C    0.244371
     5  C    0.534565
     6  C   -0.484383
     7  C   -0.429395
     8  H    0.762734
     9  H    0.234086
    10  H    0.063072
    11  H   -0.073190
    12  H    0.086331
    13  H    0.051233
    14  H    0.021130
 Sum of Mulliken charges =  -0.00000

 Dipole moment (field-independent basis, Debye):
    X=             -4.4760    Y=              7.2119    Z=             -0.4311  Tot=              8.4990

 Test job not archived.
 1\1\GINC-SE219\SP\RHF\Aug-CC-pVDZ\C5H7N1O1\OHZDE\09-Apr-2025\0\\#t hf
 aug-cc-pvdz iop(5/13=1,5/36=2,99/5=2) pseudo=read geom=check guess=(re
 ad,tcheck) scf=(maxcycle=1)\\title\\0,1\N,0,1.65495299,-1.52283262,-0.
 59175861\C,0,1.15536549,-0.48757482,-0.14950842\O,0,1.62514957,0.79487
 774,-0.12098768\C,0,0.53783104,1.59518791,-0.66123199\C,0,-0.69683325,
 0.91870466,-0.16703906\C,0,-0.80288785,-1.26235929,-1.14764981\C,0,-0.
 3879797,-0.43418482,0.07768293\H,0,0.35429667,-1.95946655,-0.94171668\
 H,0,0.64382963,1.5962267,-1.75393066\H,0,0.61863576,2.62206272,-0.3037

 Normal termination of Gaussian 16 at Wed Apr  9 18:08:50 2025.
