 Gaussian 16, Revision C.01,

 ----------------------------------------------------------------------
 #t hf aug-cc-pvdz symm=none int=(grid=ultrafine) guess=(read,tcheck) s
 table=(opt,rrhf)
 ----------------------------------------------------------------------
 -----
 title
 -----
 Symbolic Z-matrix:
 Charge =  0 Multiplicity = 1

 SCF Done:  E(RHF) =  -354.777103789     A.U. after   14 cycles
 Normal termination of Gaussian 16 at Wed Apr  9 03:40:10 2025.
 Gaussian 16:  ES64L-G16RevC.01  3-Jul-2019

 ----------------------------------------------------------------------
 #t hf aug-cc-pvdz iop(5/13=1,5/36=2,99/5=2) pseudo=read geom=check gue
 ss=(read,tcheck) scf=(maxcycle=1)
 ----------------------------------------------------------------------
 -----
 title
 -----
 Structure from the checkpoint file:  "Grambow2020_wb97xd3_007470_reverse_mol2.chk"
 Charge =  0 Multiplicity = 1

                         Standard orientation:
 ---------------------------------------------------------------------
 Center     Atomic      Atomic             Coordinates (Angstroms)
 Number     Number       Type             X           Y           Z
 ---------------------------------------------------------------------
      1          7           0       -2.369194   -0.577065   -0.082240
      2          6           0       -1.079340   -0.062210   -0.013003
      3          6           0       -0.654046    1.231336   -0.002236
      4          7           0        0.743780    1.143876    0.005401
      5          6           0        1.040419   -0.160077    0.000169
      6          8           0        2.316814   -0.564729    0.010414
      7          7           0       -0.009635   -0.929873   -0.009124
      8          1           0       -2.402957   -1.530678    0.241676
      9          1           0       -3.064434   -0.008290    0.371512
     10          1           0       -1.171609    2.173399   -0.018767
     11          1           0        1.404862    1.897124    0.017485
     12          1           0        2.302778   -1.526594   -0.003057
 ---------------------------------------------------------------------

 SCF Done:  E(RHF) =  -355.138814600     A.U. after    2 cycles

 The electronic state is 1-A.
 Alpha  occ. eigenvalues --  -20.60077 -15.54806 -15.49859 -15.47411 -11.36523
 Alpha  occ. eigenvalues --  -11.28761 -11.24009  -1.53023  -1.33814  -1.21549
 Alpha  occ. eigenvalues --   -1.16256  -0.99654  -0.86630  -0.84598  -0.79097
 Alpha  occ. eigenvalues --   -0.73022  -0.69084  -0.66965  -0.64257  -0.63225
 Alpha  occ. eigenvalues --   -0.59178  -0.55929  -0.51420  -0.49274  -0.42774
 Alpha  occ. eigenvalues --   -0.30151
 Alpha virt. eigenvalues --    0.03200   0.04206   0.04712   0.05222   0.06947
 Alpha virt. eigenvalues --    0.10189   0.10531   0.11098   0.11876   0.12685
 Alpha virt. eigenvalues --    0.13294   0.14255   0.14601   0.15983   0.17367

 Mulliken charges:
               1
     1  N    0.721105
     2  C   -1.970346
     3  C    0.626750
     4  N    0.500969
     5  C    0.403864
     6  O   -1.425810
     7  N    0.760224
     8  H    0.059932
     9  H    0.169193
    10  H   -0.174596
    11  H    0.013765
    12  H    0.314949
 Sum of Mulliken charges =  -0.00000

 Dipole moment (field-independent basis, Debye):
    X=              0.5424    Y=              1.4688    Z=              1.1599  Tot=              1.9485

 Test job not archived.
 1\1\GINC-SE331\SP\RHF\Aug-CC-pVDZ\C3H5N3O1\OHZDE\09-Apr-2025\0\\#t hf
 aug-cc-pvdz iop(5/13=1,5/36=2,99/5=2) pseudo=read geom=check guess=(re
 ad,tcheck) scf=(maxcycle=1)\\title\\0,1\N,0,2.21883444,0.16224385,0.03
 357364\C,0,0.82834201,0.16580868,0.02303709\C,0,-0.0433126,1.21109177,
 0.06608807\N,0,-1.30977033,0.61409413,0.10219554\C,0,-1.10506554,-0.70
 71895,0.07726982\O,0,-2.142081,-1.55409075,0.0970089\N,0,0.15401551,-1
 .03518332,0.02806671\H,0,2.58757325,-0.70619314,-0.32038767\H,0,2.6360
 7146,0.95474208,-0.42535341\H,0,0.0913177,2.27725564,0.09431443\H,0,-2

 Normal termination of Gaussian 16 at Wed Apr  9 03:40:15 2025.
