 Gaussian 16, Revision C.01,

 ----------------------------------------------------------------------
 #t hf aug-cc-pvdz symm=none int=(grid=ultrafine) guess=(read,tcheck) s
 table=(opt,rrhf)
 ----------------------------------------------------------------------
 -----
 title
 -----
 Symbolic Z-matrix:
 Charge =  0 Multiplicity = 1

 SCF Done:  E(RHF) =  -323.669593934     A.U. after   17 cycles
 Normal termination of Gaussian 16 at Wed Apr  9 17:48:47 2025.
 Gaussian 16:  ES64L-G16RevC.01  3-Jul-2019

 ----------------------------------------------------------------------
 #t hf aug-cc-pvdz iop(5/13=1,5/36=2,99/5=2) pseudo=read geom=check gue
 ss=(read,tcheck) scf=(maxcycle=1)
 ----------------------------------------------------------------------
 -----
 title
 -----
 Structure from the checkpoint file:  "Grambow2020_wb97xd3_006831_forward_mol1.chk"
 Charge =  0 Multiplicity = 1

                         Standard orientation:
 ---------------------------------------------------------------------
 Center     Atomic      Atomic             Coordinates (Angstroms)
 Number     Number       Type             X           Y           Z
 ---------------------------------------------------------------------
      1          6           0        1.907631   -1.289306   -0.251788
      2          6           0        1.115611   -0.209405    0.452563
      3          6           0        1.348642    1.280435    0.044066
      4          6           0       -0.133997    1.381605   -0.210386
      5          6           0       -0.336562    0.013412    0.040806
      6          7           0       -1.399636   -0.851694    0.149852
      7          8           0       -2.543331   -0.073210   -0.008861
      8          1           0        2.955871   -1.262911    0.052029
      9          1           0        1.870905   -1.156275   -1.336969
     10          1           0        1.512643   -2.280215   -0.020559
     11          1           0        1.171387   -0.328518    1.535995
     12          1           0        1.717062    1.901407    0.866257
     13          1           0        2.009963    1.424955   -0.816074
     14          1           0       -0.465003   -0.277114   -1.073210
     15          1           0       -0.804181    2.187569   -0.464964
     16          1           0       -3.232498   -0.721807   -0.172145
 ---------------------------------------------------------------------

 SCF Done:  E(RHF) =  -324.007962632     A.U. after    2 cycles

 The electronic state is 1-A.
 Alpha  occ. eigenvalues --  -20.57682 -15.54199 -11.28458 -11.26119 -11.25468
 Alpha  occ. eigenvalues --  -11.24780 -11.23379  -1.49340  -1.20662  -1.09554
 Alpha  occ. eigenvalues --   -1.00099  -0.88328  -0.85021  -0.74602  -0.69751
 Alpha  occ. eigenvalues --   -0.69456  -0.65892  -0.62230  -0.59179  -0.56986
 Alpha  occ. eigenvalues --   -0.55423  -0.52031  -0.49558  -0.48187  -0.47986
 Alpha  occ. eigenvalues --   -0.45844  -0.27966
 Alpha virt. eigenvalues --    0.03477   0.03731   0.03989   0.04099   0.05198
 Alpha virt. eigenvalues --    0.05669   0.06574   0.06628   0.07375   0.08204
 Alpha virt. eigenvalues --    0.12012   0.12684   0.13339   0.13947   0.15149

 Mulliken charges:
               1
     1  C   -0.248576
     2  C   -0.416215
     3  C   -0.101991
     4  C    0.434293
     5  C   -1.647687
     6  N    1.390626
     7  O   -1.217457
     8  H    0.150941
     9  H    0.167479
    10  H    0.215050
    11  H    0.102696
    12  H    0.135796
    13  H    0.104998
    14  H    0.715361
    15  H   -0.118604
    16  H    0.333290
 Sum of Mulliken charges =  -0.00000

 Dipole moment (field-independent basis, Debye):
    X=              1.8529    Y=              1.2224    Z=             -1.1083  Tot=              2.4811

 Test job not archived.
 1\1\GINC-SE113\SP\RHF\Aug-CC-pVDZ\C5H9N1O1\OHZDE\09-Apr-2025\0\\#t hf
 aug-cc-pvdz iop(5/13=1,5/36=2,99/5=2) pseudo=read geom=check guess=(re
 ad,tcheck) scf=(maxcycle=1)\\title\\0,1\C,0,-1.62540471,-1.10787039,0.
 06000683\C,0,-0.59115979,-0.24220139,-0.62595656\C,0,-0.73468373,1.311
 07006,-0.53908589\C,0,0.66698295,1.35112432,0.01492333\C,0,0.76243808,
 -0.05088237,0.05166141\N,0,1.72212646,-0.99565294,0.32884765\O,0,2.889
 17706,-0.28616976,0.60068114\H,0,-2.58025138,-1.06392369,-0.46738678\H
 ,0,-1.79566163,-0.77359096,1.08759352\H,0,-1.30473636,-2.15065425,0.09

 Normal termination of Gaussian 16 at Wed Apr  9 17:48:53 2025.
