 Gaussian 16, Revision C.01,

 ----------------------------------------------------------------------
 #t hf aug-cc-pvdz symm=none int=(grid=ultrafine) guess=(read,tcheck) s
 table=(opt,rrhf)
 ----------------------------------------------------------------------
 -----
 title
 -----
 Symbolic Z-matrix:
 Charge =  0 Multiplicity = 1

 SCF Done:  E(RHF) =  -343.759814524     A.U. after   14 cycles
 Normal termination of Gaussian 16 at Wed Apr  9 18:10:41 2025.
 Gaussian 16:  ES64L-G16RevC.01  3-Jul-2019

 ----------------------------------------------------------------------
 #t hf aug-cc-pvdz iop(5/13=1,5/36=2,99/5=2) pseudo=read geom=check gue
 ss=(read,tcheck) scf=(maxcycle=1)
 ----------------------------------------------------------------------
 -----
 title
 -----
 Structure from the checkpoint file:  "Grambow2020_wb97xd3_007157_reverse_mol2.chk"
 Charge =  0 Multiplicity = 1

                         Standard orientation:
 ---------------------------------------------------------------------
 Center     Atomic      Atomic             Coordinates (Angstroms)
 Number     Number       Type             X           Y           Z
 ---------------------------------------------------------------------
      1          8           0        0.259698   -0.678727    1.305901
      2          6           0        0.727419   -0.766296    0.030858
      3          6           0        0.223934   -1.590543   -0.883490
      4          6           0       -2.318780    0.902640   -0.616216
      5          8           0       -2.741079    0.275769    0.216085
      6          6           0        1.853904    0.192427   -0.198355
      7          6           0        1.421933    1.650824   -0.054344
      8          1           0       -0.480700   -1.280003    1.418643
      9          1           0        0.634586   -1.616517   -1.881897
     10          1           0       -0.600462   -2.258253   -0.659332
     11          1           0        0.647209    1.898495   -0.782707
     12          1           0        2.265103    0.013460   -1.192453
     13          1           0        2.643085   -0.030581    0.525964
     14          1           0        1.024106    1.842405    0.942623
     15          1           0        2.267663    2.320351   -0.217455
 ---------------------------------------------------------------------

 SCF Done:  E(RHF) =  -344.105773416     A.U. after    2 cycles

 The electronic state is 1-A.
 Alpha  occ. eigenvalues --  -20.65048 -20.57604 -11.36897 -11.30515 -11.23843
 Alpha  occ. eigenvalues --  -11.22565 -11.21567  -1.60528  -1.49390  -1.07831
 Alpha  occ. eigenvalues --   -0.99650  -0.87606  -0.80762  -0.78966  -0.68901
 Alpha  occ. eigenvalues --   -0.65696  -0.63806  -0.63485  -0.60850  -0.59758
 Alpha  occ. eigenvalues --   -0.56464  -0.55330  -0.54139  -0.51937  -0.50442
 Alpha  occ. eigenvalues --   -0.49429  -0.34679
 Alpha virt. eigenvalues --    0.03946   0.03957   0.04420   0.04948   0.06312
 Alpha virt. eigenvalues --    0.06531   0.07405   0.08290   0.08623   0.10040
 Alpha virt. eigenvalues --    0.11734   0.12534   0.13724   0.14048   0.14717

 Mulliken charges:
               1
     1  O   -1.693994
     2  C    2.060689
     3  C   -0.392000
     4  C    0.481122
     5  O   -0.490483
     6  C   -0.485186
     7  C   -0.387444
     8  H    0.418995
     9  H   -0.133547
    10  H   -0.220215
    11  H    0.167830
    12  H    0.142563
    13  H    0.229030
    14  H    0.199923
    15  H    0.102716
 Sum of Mulliken charges =  -0.00000

 Dipole moment (field-independent basis, Debye):
    X=             -0.2236    Y=             -0.2907    Z=             -0.2571  Tot=              0.4479

 Test job not archived.
 1\1\GINC-SE135\SP\RHF\Aug-CC-pVDZ\C5H8O2\OHZDE\09-Apr-2025\0\\#t hf au
 g-cc-pvdz iop(5/13=1,5/36=2,99/5=2) pseudo=read geom=check guess=(read
 ,tcheck) scf=(maxcycle=1)\\title\\0,1\O,0,0.17425944,-0.65829242,-1.42
 298728\C,0,-0.10229894,-0.83470093,-0.10216835\C,0,0.641831,-1.5760814
 5,0.71363656\C,0,2.69627725,1.30012224,0.20423176\O,0,3.10056386,0.759
 40702,-0.69477249\C,0,-1.32762205,-0.07445867,0.29941741\C,0,-1.156870
 11,1.43625592,0.14826424\H,0,0.97997703,-1.12991433,-1.64842847\H,0,0.
 37501902,-1.67941028,1.75491465\H,0,1.52574939,-2.09837261,0.36490578\

 Normal termination of Gaussian 16 at Wed Apr  9 18:10:46 2025.
