 Gaussian 16, Revision C.01,

 ----------------------------------------------------------------------
 #t hf aug-cc-pvdz symm=none int=(grid=ultrafine) guess=(read,tcheck) s
 table=(opt,rrhf)
 ----------------------------------------------------------------------
 -----
 title
 -----
 Symbolic Z-matrix:
 Charge =  0 Multiplicity = 1

 SCF Done:  E(RHF) =  -342.564020909     A.U. after   13 cycles
 Normal termination of Gaussian 16 at Wed Apr  9 19:16:53 2025.
 Gaussian 16:  ES64L-G16RevC.01  3-Jul-2019

 ----------------------------------------------------------------------
 #t hf aug-cc-pvdz iop(5/13=1,5/36=2,99/5=2) pseudo=read geom=check gue
 ss=(read,tcheck) scf=(maxcycle=1)
 ----------------------------------------------------------------------
 -----
 title
 -----
 Structure from the checkpoint file:  "Grambow2020_wb97xd3_009061_reverse_mol2.chk"
 Charge =  0 Multiplicity = 1

                         Standard orientation:
 ---------------------------------------------------------------------
 Center     Atomic      Atomic             Coordinates (Angstroms)
 Number     Number       Type             X           Y           Z
 ---------------------------------------------------------------------
      1          8           0        2.283843    0.000088    0.256065
      2          6           0        1.114843    0.000096   -0.004189
      3          6           0        0.258715    1.249976   -0.209235
      4          6           0       -1.148994    0.732856   -0.306235
      5          6           0       -1.149021   -0.733138   -0.306443
      6          8           0       -1.548054   -0.000046    0.843894
      7          6           0        0.258989   -1.250186   -0.209289
      8          1           0        0.575263    1.750525   -1.128568
      9          1           0        0.406980    1.945626    0.617553
     10          1           0       -1.930021   -1.314668   -0.783316
     11          1           0       -1.928788    1.316107   -0.783176
     12          1           0        0.575722   -1.751029   -1.128367
     13          1           0        0.407342   -1.944528    0.618542
 ---------------------------------------------------------------------

 SCF Done:  E(RHF) =  -342.910671619     A.U. after    2 cycles

 The electronic state is 1-A.
 Alpha  occ. eigenvalues --  -20.57310 -20.54359 -11.34770 -11.30961 -11.30915
 Alpha  occ. eigenvalues --  -11.25750 -11.25733  -1.52013  -1.48335  -1.10995
 Alpha  occ. eigenvalues --   -1.01990  -0.91641  -0.82654  -0.77404  -0.73468
 Alpha  occ. eigenvalues --   -0.65631  -0.63891  -0.63741  -0.61393  -0.61117
 Alpha  occ. eigenvalues --   -0.55645  -0.53244  -0.50844  -0.45779  -0.44465
 Alpha  occ. eigenvalues --   -0.40959
 Alpha virt. eigenvalues --    0.02837   0.03666   0.04238   0.04851   0.05990
 Alpha virt. eigenvalues --    0.06216   0.08654   0.10489   0.11700   0.12390
 Alpha virt. eigenvalues --    0.12626   0.13794   0.13895   0.14661   0.14787

 Mulliken charges:
               1
     1  O   -1.385540
     2  C    1.255407
     3  C   -0.588952
     4  C    0.825576
     5  C    0.826076
     6  O   -1.371702
     7  C   -0.588282
     8  H    0.266210
     9  H    0.242124
    10  H    0.005082
    11  H    0.005099
    12  H    0.266027
    13  H    0.242875
 Sum of Mulliken charges =  -0.00000

 Dipole moment (field-independent basis, Debye):
    X=             -2.2564    Y=              0.0007    Z=             -2.5602  Tot=              3.4126

 Test job not archived.
 1\1\GINC-SE015\SP\RHF\Aug-CC-pVDZ\C5H6O2\OHZDE\09-Apr-2025\0\\#t hf au
 g-cc-pvdz iop(5/13=1,5/36=2,99/5=2) pseudo=read geom=check guess=(read
 ,tcheck) scf=(maxcycle=1)\\title\\0,1\O,0,0.65055397,-2.13110433,-1.06
 199263\C,0,0.36171512,-1.1074437,-0.51155086\C,0,-1.05090366,-0.532254
 24,-0.4073248\C,0,-0.85972721,0.83642673,0.18312478\C,0,0.54560956,1.0
 3592203,0.54969175\O,0,-0.0081144,1.66124276,-0.60021656\C,0,1.3459344
 8,-0.19223788,0.21746844\H,0,-1.65036058,-1.17765394,0.24077714\H,0,-1
 .52252178,-0.51612026,-1.39058832\H,0,0.84957546,1.70711261,1.34508723

 Normal termination of Gaussian 16 at Wed Apr  9 19:16:57 2025.
