 Gaussian 16, Revision C.01,

 ----------------------------------------------------------------------
 #t hf aug-cc-pvdz symm=none int=(grid=ultrafine) guess=(read,tcheck) s
 table=(opt,rrhf)
 ----------------------------------------------------------------------
 -----
 title
 -----
 Symbolic Z-matrix:
 Charge =  0 Multiplicity = 1

 SCF Done:  E(RHF) =  -322.537461622     A.U. after   20 cycles
 Normal termination of Gaussian 16 at Wed Apr  9 03:26:56 2025.
 Gaussian 16:  ES64L-G16RevC.01  3-Jul-2019

 ----------------------------------------------------------------------
 #t hf aug-cc-pvdz iop(5/13=1,5/36=2,99/5=2) pseudo=read geom=check gue
 ss=(read,tcheck) scf=(maxcycle=1)
 ----------------------------------------------------------------------
 -----
 title
 -----
 Structure from the checkpoint file:  "Grambow2020_wb97xd3_006624_reverse_mol1.chk"
 Charge =  0 Multiplicity = 1

                         Standard orientation:
 ---------------------------------------------------------------------
 Center     Atomic      Atomic             Coordinates (Angstroms)
 Number     Number       Type             X           Y           Z
 ---------------------------------------------------------------------
      1          8           0       -2.829937   -0.450583    0.041883
      2          6           0       -1.622390   -0.361301    0.117374
      3          6           0       -0.882729    0.861771   -0.097097
      4          6           0        0.529348    0.835032   -0.185854
      5          6           0        1.387749    0.101693    0.978200
      6          6           0        2.109910   -0.630951   -0.118918
      7          7           0        0.996979   -0.284730   -0.994692
      8          1           0       -1.010874   -1.237961    0.409911
      9          1           0       -1.458059    1.763743   -0.276813
     10          1           0        1.010076    1.795689   -0.400973
     11          1           0        0.747400   -0.530227    1.581302
     12          1           0        1.916167    0.828762    1.589201
     13          1           0        2.280651   -1.699799    0.015417
     14          1           0        3.043949   -0.159893   -0.452490
 ---------------------------------------------------------------------

 SCF Done:  E(RHF) =  -322.863905044     A.U. after    2 cycles

 The electronic state is 1-A.
 Alpha  occ. eigenvalues --  -20.53092 -15.54558 -11.33074 -11.30019 -11.29936
 Alpha  occ. eigenvalues --  -11.28137 -11.27787  -1.45956  -1.27546  -1.06533
 Alpha  occ. eigenvalues --   -0.98065  -0.92392  -0.83411  -0.75700  -0.72366
 Alpha  occ. eigenvalues --   -0.67397  -0.65526  -0.63148  -0.61224  -0.58955
 Alpha  occ. eigenvalues --   -0.56825  -0.52805  -0.50786  -0.45527  -0.41371
 Alpha  occ. eigenvalues --   -0.31552
 Alpha virt. eigenvalues --   -0.04970   0.02770   0.03550   0.03858   0.04422
 Alpha virt. eigenvalues --    0.05458   0.06249   0.07205   0.09010   0.10953
 Alpha virt. eigenvalues --    0.12250   0.12912   0.12990   0.13280   0.14314

 Mulliken charges:
               1
     1  O   -1.188552
     2  C    0.946940
     3  C    0.320632
     4  C   -0.428021
     5  C    0.232902
     6  C   -0.072627
     7  N    0.391093
     8  H    0.066463
     9  H   -0.185237
    10  H   -0.099853
    11  H   -0.007267
    12  H    0.036004
    13  H    0.010302
    14  H   -0.022779
 Sum of Mulliken charges =   0.00000

 Dipole moment (field-independent basis, Debye):
    X=              4.0027    Y=              2.1374    Z=              2.6985  Tot=              5.2795

 Test job not archived.
 1\1\GINC-SE083\SP\RHF\Aug-CC-pVDZ\C5H7N1O1\OHZDE\09-Apr-2025\0\\#t hf
 aug-cc-pvdz iop(5/13=1,5/36=2,99/5=2) pseudo=read geom=check guess=(re
 ad,tcheck) scf=(maxcycle=1)\\title\\0,1\O,0,2.63737313,1.90388932,0.66
 46755\C,0,1.66806164,1.18821312,0.52296273\C,0,1.11434201,0.81395541,-
 0.75857135\C,0,-0.12936455,0.14259814,-0.82947484\C,0,-0.36775825,-1.1
 9074297,0.06216929\C,0,-1.6496522,-0.55859435,0.53023689\N,0,-1.105780
 05,0.71949719,0.08734806\H,0,1.17052599,0.7345011,1.40311402\H,0,1.642
 8555,1.15066151,-1.6440992\H,0,-0.50342183,-0.05910664,-1.83924457\H,0

 Normal termination of Gaussian 16 at Wed Apr  9 03:27:01 2025.
