 Gaussian 16, Revision C.01,

 ----------------------------------------------------------------------
 #t hf aug-cc-pvdz symm=none int=(grid=ultrafine) guess=(read,tcheck) s
 table=(opt,rrhf)
 ----------------------------------------------------------------------
 -----
 title
 -----
 Symbolic Z-matrix:
 Charge =  0 Multiplicity = 1

 SCF Done:  E(RHF) =  -266.662001327     A.U. after   17 cycles
 Normal termination of Gaussian 16 at Wed Apr  9 03:05:14 2025.
 Gaussian 16:  ES64L-G16RevC.01  3-Jul-2019

 ----------------------------------------------------------------------
 #t hf aug-cc-pvdz iop(5/13=1,5/36=2,99/5=2) pseudo=read geom=check gue
 ss=(read,tcheck) scf=(maxcycle=1)
 ----------------------------------------------------------------------
 -----
 title
 -----
 Structure from the checkpoint file:  "Grambow2020_b97d3_006478_forward_mol1.chk"
 Charge =  0 Multiplicity = 1

                         Standard orientation:
 ---------------------------------------------------------------------
 Center     Atomic      Atomic             Coordinates (Angstroms)
 Number     Number       Type             X           Y           Z
 ---------------------------------------------------------------------
      1          8           0        1.562042    0.878793    0.030711
      2          6           0        1.249663   -0.537442   -0.021146
      3          6           0       -0.162526   -0.836426    0.337154
      4          6           0       -1.706060    0.616260    0.179012
      5          8           0       -1.106329   -0.350040   -0.564445
      6          1           0        1.066546    1.295826   -0.699672
      7          1           0        1.467067   -0.937992   -1.028184
      8          1           0        1.928625   -1.009764    0.697618
      9          1           0       -0.517333   -0.946792    1.363283
     10          1           0       -1.083471    1.311129    0.734073
     11          1           0       -2.793606    0.603222    0.232630
 ---------------------------------------------------------------------

 SCF Done:  E(RHF) =  -266.931778986     A.U. after    2 cycles

 The electronic state is 1-A.
 Alpha  occ. eigenvalues --  -20.63534 -20.55628 -11.33100 -11.30400 -11.29988
 Alpha  occ. eigenvalues --   -1.54413  -1.44120  -1.01380  -0.91562  -0.83828
 Alpha  occ. eigenvalues --   -0.72224  -0.69081  -0.67487  -0.65104  -0.60812
 Alpha  occ. eigenvalues --   -0.56788  -0.52631  -0.50098  -0.44916  -0.27532
 Alpha virt. eigenvalues --    0.02186   0.03761   0.04437   0.04910   0.05747
 Alpha virt. eigenvalues --    0.07004   0.07645   0.10285   0.11770   0.12857
 Alpha virt. eigenvalues --    0.14221   0.15205   0.15646   0.16325   0.16669

 Mulliken charges:
               1
     1  O   -1.053941
     2  C    0.508496
     3  C    0.532931
     4  C    0.315526
     5  O   -1.135003
     6  H    0.313171
     7  H    0.170017
     8  H    0.083213
     9  H    0.128719
    10  H    0.134723
    11  H    0.002147
 Sum of Mulliken charges =  -0.00000

 Dipole moment (field-independent basis, Debye):
    X=             -1.0664    Y=              0.2168    Z=             -0.0420  Tot=              1.0890

 Test job not archived.
 1\1\GINC-SE423\SP\RHF\Aug-CC-pVDZ\C3H6O2\OHZDE\09-Apr-2025\0\\#t hf au
 g-cc-pvdz iop(5/13=1,5/36=2,99/5=2) pseudo=read geom=check guess=(read
 ,tcheck) scf=(maxcycle=1)\\title\\0,1\O,0,-1.75829581,-0.37522847,-0.0
 190984\C,0,-1.04620157,0.87844599,-0.18406203\C,0,0.39774383,0.7780931
 7,0.15798696\C,0,1.44569796,-1.07089154,0.12884059\O,0,1.1419357,-0.03
 381322,-0.69477309\H,0,-1.41941955,-0.97603336,-0.70981513\H,0,-1.1545
 8511,1.24343333,-1.22178457\H,0,-1.54451499,1.58476123,0.48936434\H,0,
 0.78730923,0.8611537,1.17403363\H,0,0.65691836,-1.50622214,0.73453594\

 Normal termination of Gaussian 16 at Wed Apr  9 03:05:18 2025.
