 Gaussian 16, Revision C.01,

 ----------------------------------------------------------------------
 #t hf aug-cc-pvdz symm=none int=(grid=ultrafine) guess=(read,tcheck) s
 table=(opt,rrhf)
 ----------------------------------------------------------------------
 -----
 title
 -----
 Symbolic Z-matrix:
 Charge =  0 Multiplicity = 1

 SCF Done:  E(RHF) =  -304.667809688     A.U. after   12 cycles
 Normal termination of Gaussian 16 at Wed Apr  9 03:21:55 2025.
 Gaussian 16:  ES64L-G16RevC.01  3-Jul-2019

 ----------------------------------------------------------------------
 #t hf aug-cc-pvdz iop(5/13=1,5/36=2,99/5=2) pseudo=read geom=check gue
 ss=(read,tcheck) scf=(maxcycle=1)
 ----------------------------------------------------------------------
 -----
 title
 -----
 Structure from the checkpoint file:  "Grambow2020_wb97xd3_006103_forward_mol2.chk"
 Charge =  0 Multiplicity = 1

                         Standard orientation:
 ---------------------------------------------------------------------
 Center     Atomic      Atomic             Coordinates (Angstroms)
 Number     Number       Type             X           Y           Z
 ---------------------------------------------------------------------
      1          6           0       -0.664063    1.162000    0.108761
      2          8           0       -1.345385    0.000228   -0.332499
      3          6           0       -0.664687   -1.161765    0.108724
      4          6           0        0.752574   -0.727011    0.368890
      5          8           0        1.316959   -0.000591   -0.712417
      6          6           0        0.753283    0.727203    0.368083
      7          1           0       -0.748784    1.917555   -0.674649
      8          1           0       -1.101400    1.557333    1.035854
      9          1           0       -1.102753   -1.557127    1.035484
     10          1           0       -0.747892   -1.917414   -0.674800
     11          1           0        1.432330   -1.334729    0.955739
     12          1           0        1.433275    1.334718    0.954950
 ---------------------------------------------------------------------

 SCF Done:  E(RHF) =  -304.978841152     A.U. after    2 cycles

 The electronic state is 1-A.
 Alpha  occ. eigenvalues --  -20.56363 -20.54843 -11.29895 -11.29838 -11.29337
 Alpha  occ. eigenvalues --  -11.29245  -1.52067  -1.46052  -1.01851  -1.01124
 Alpha  occ. eigenvalues --   -0.83751  -0.82587  -0.75048  -0.67848  -0.64316
 Alpha  occ. eigenvalues --   -0.64000  -0.58577  -0.54715  -0.53443  -0.52722
 Alpha  occ. eigenvalues --   -0.46723  -0.42665  -0.41576
 Alpha virt. eigenvalues --    0.03232   0.03852   0.04415   0.04960   0.06096
 Alpha virt. eigenvalues --    0.06560   0.10243   0.11055   0.11656   0.12501
 Alpha virt. eigenvalues --    0.13949   0.14251   0.14898   0.15222   0.15376

 Mulliken charges:
               1
     1  C    0.648344
     2  O   -1.278651
     3  C    0.648211
     4  C    0.403845
     5  O   -1.405910
     6  C    0.405304
     7  H    0.118131
     8  H    0.147688
     9  H    0.147460
    10  H    0.118897
    11  H    0.023076
    12  H    0.023607
 Sum of Mulliken charges =  -0.00000

 Dipole moment (field-independent basis, Debye):
    X=              0.3626    Y=              0.0008    Z=              2.5570  Tot=              2.5826

 Test job not archived.
 1\1\GINC-SE184\SP\RHF\Aug-CC-pVDZ\C4H6O2\OHZDE\09-Apr-2025\0\\#t hf au
 g-cc-pvdz iop(5/13=1,5/36=2,99/5=2) pseudo=read geom=check guess=(read
 ,tcheck) scf=(maxcycle=1)\\title\\0,1\C,0,-1.28975074,-0.25513956,-0.0
 2252954\O,0,-0.84824234,1.0383037,-0.39762846\C,0,0.55700365,1.0401469
 7,-0.58075454\C,0,1.07071974,-0.13074102,0.21324965\O,0,0.57739763,-0.
 15725049,1.54417852\C,0,-0.08498114,-0.94097948,0.56340404\H,0,-2.1089
 4724,-0.13588041,0.68913496\H,0,-1.64972861,-0.82488849,-0.89020182\H,
 0,0.82504907,0.91161903,-1.63845418\H,0,0.93986844,2.00078355,-0.23085

 Normal termination of Gaussian 16 at Wed Apr  9 03:22:00 2025.
