 Gaussian 16, Revision C.01,

 ----------------------------------------------------------------------
 #t hf aug-cc-pvdz symm=none int=(grid=ultrafine) guess=(read,tcheck) s
 table=(opt,rrhf)
 ----------------------------------------------------------------------
 -----
 title
 -----
 Symbolic Z-matrix:
 Charge =  0 Multiplicity = 1

 SCF Done:  E(RHF) =  -323.650198551     A.U. after   18 cycles
 Normal termination of Gaussian 16 at Wed Apr  9 17:48:10 2025.
 Gaussian 16:  ES64L-G16RevC.01  3-Jul-2019

 ----------------------------------------------------------------------
 #t hf aug-cc-pvdz iop(5/13=1,5/36=2,99/5=2) pseudo=read geom=check gue
 ss=(read,tcheck) scf=(maxcycle=1)
 ----------------------------------------------------------------------
 -----
 title
 -----
 Structure from the checkpoint file:  "Grambow2020_wb97xd3_006829_forward_mol1.chk"
 Charge =  0 Multiplicity = 1

                         Standard orientation:
 ---------------------------------------------------------------------
 Center     Atomic      Atomic             Coordinates (Angstroms)
 Number     Number       Type             X           Y           Z
 ---------------------------------------------------------------------
      1          6           0        0.277088    1.426446   -0.497913
      2          6           0       -1.136729    0.310118    0.950825
      3          6           0       -2.080968   -0.245505   -0.068388
      4          6           0       -0.857994   -0.860741   -0.763825
      5          6           0        0.064429    0.010083    0.208191
      6          7           0        1.240450   -0.406900    0.761862
      7          8           0        2.219959   -0.394742   -0.241994
      8          1           0       -0.572802    1.717791   -1.111133
      9          1           0        1.167171    1.272588   -1.113932
     10          1           0        0.485922    2.186854    0.252075
     11          1           0       -1.273148    0.551248    1.999781
     12          1           0       -2.774736   -0.992212    0.328549
     13          1           0       -2.669072    0.490066   -0.627128
     14          1           0       -0.699833   -0.683796   -1.825704
     15          1           0       -0.736273   -1.914616   -0.531471
     16          1           0        3.034992   -0.464097    0.258539
 ---------------------------------------------------------------------

 SCF Done:  E(RHF) =  -323.986580791     A.U. after    2 cycles

 The electronic state is 1-A.
 Alpha  occ. eigenvalues --  -20.52349 -15.44971 -11.33392 -11.27475 -11.27156
 Alpha  occ. eigenvalues --  -11.26150 -11.25114  -1.43493  -1.20543  -1.06160
 Alpha  occ. eigenvalues --   -0.96142  -0.92286  -0.87198  -0.74876  -0.67485
 Alpha  occ. eigenvalues --   -0.66806  -0.65972  -0.60114  -0.58460  -0.57259
 Alpha  occ. eigenvalues --   -0.54370  -0.53165  -0.52059  -0.49845  -0.46371
 Alpha  occ. eigenvalues --   -0.39189  -0.26481
 Alpha virt. eigenvalues --   -0.00210   0.02747   0.03611   0.03929   0.04703
 Alpha virt. eigenvalues --    0.05665   0.06387   0.06546   0.07523   0.09196
 Alpha virt. eigenvalues --    0.10763   0.12256   0.13399   0.13855   0.14671

 Mulliken charges:
               1
     1  C   -0.197800
     2  C    0.851893
     3  C   -0.187947
     4  C    0.180056
     5  C   -2.114285
     6  N    1.409732
     7  O   -1.275123
     8  H    0.144052
     9  H    0.331076
    10  H    0.188433
    11  H   -0.070856
    12  H    0.087011
    13  H    0.132506
    14  H    0.064833
    15  H    0.143898
    16  H    0.312520
 Sum of Mulliken charges =  -0.00000

 Dipole moment (field-independent basis, Debye):
    X=             -5.1373    Y=              1.8701    Z=             -0.3659  Tot=              5.4794

 Test job not archived.
 1\1\GINC-SE114\SP\RHF\Aug-CC-pVDZ\C5H9N1O1\OHZDE\09-Apr-2025\0\\#t hf
 aug-cc-pvdz iop(5/13=1,5/36=2,99/5=2) pseudo=read geom=check guess=(re
 ad,tcheck) scf=(maxcycle=1)\\title\\0,1\C,0,-0.67314736,-1.08560542,0.
 70076019\C,0,-0.47425592,0.05579045,-1.2996321\C,0,-0.87430149,1.41045
 937,-0.80573671\C,0,0.2311123,1.27462413,0.25134473\C,0,0.37503617,-0.
 25875629,-0.17532251\N,0,1.55065398,-0.94806445,-0.25425204\O,0,1.9748
 9209,-1.23157555,1.05225372\H,0,-1.55747393,-0.50368338,0.950892\H,0,-
 0.10734761,-1.34053619,1.60091584\H,0,-0.95171181,-1.9998022,0.1802202

 Normal termination of Gaussian 16 at Wed Apr  9 17:48:16 2025.
