 Gaussian 16, Revision C.01,

 ----------------------------------------------------------------------
 #t hf aug-cc-pvdz symm=none int=(grid=ultrafine) guess=(read,tcheck) s
 table=(opt,rrhf)
 ----------------------------------------------------------------------
 -----
 title
 -----
 Symbolic Z-matrix:
 Charge =  0 Multiplicity = 1

 SCF Done:  E(RHF) =  -317.436836469     A.U. after   17 cycles
 Normal termination of Gaussian 16 at Wed Apr  9 19:14:45 2025.
 Gaussian 16:  ES64L-G16RevC.01  3-Jul-2019

 ----------------------------------------------------------------------
 #t hf aug-cc-pvdz iop(5/13=1,5/36=2,99/5=2) pseudo=read geom=check gue
 ss=(read,tcheck) scf=(maxcycle=1)
 ----------------------------------------------------------------------
 -----
 title
 -----
 Structure from the checkpoint file:  "Grambow2020_wb97xd3_008973_reverse_mol1.chk"
 Charge =  0 Multiplicity = 1

                         Standard orientation:
 ---------------------------------------------------------------------
 Center     Atomic      Atomic             Coordinates (Angstroms)
 Number     Number       Type             X           Y           Z
 ---------------------------------------------------------------------
      1          7           0        0.103939    1.651829   -0.373017
      2          6           0        0.051779    0.528850    0.492805
      3          6           0        1.470163   -0.012910    0.485917
      4          7           0        1.368376   -0.924958   -0.412528
      5          6           0       -0.142767   -1.025286   -0.183870
      6          7           0       -1.495785   -0.609444   -0.555793
      7          6           0       -1.346263    0.017356    0.613180
      8          1           0        0.650483    1.533782   -1.215734
      9          1           0       -0.805801    2.031718   -0.589591
     10          1           0        2.400915    0.389072    0.880770
     11          1           0       -0.198111   -1.913758    0.447569
     12          1           0       -2.080665    0.089138    1.418153
 ---------------------------------------------------------------------

 SCF Done:  E(RHF) =  -317.757500177     A.U. after    2 cycles

 The electronic state is 1-A.
 Alpha  occ. eigenvalues --  -15.53741 -15.51844 -15.51364 -11.34650 -11.33004
 Alpha  occ. eigenvalues --  -11.32030 -11.31957  -1.34833  -1.25727  -1.20060
 Alpha  occ. eigenvalues --   -0.95936  -0.90896  -0.86417  -0.77352  -0.74425
 Alpha  occ. eigenvalues --   -0.72120  -0.67770  -0.63505  -0.62438  -0.56639
 Alpha  occ. eigenvalues --   -0.55299  -0.48786  -0.45589  -0.40375  -0.33338
 Alpha virt. eigenvalues --    0.02910   0.03845   0.04022   0.04822   0.05434
 Alpha virt. eigenvalues --    0.06468   0.08376   0.08581   0.09968   0.10659
 Alpha virt. eigenvalues --    0.11459   0.12781   0.13363   0.14158   0.14629

 Mulliken charges:
               1
     1  N    0.355079
     2  C   -0.837287
     3  C   -0.177506
     4  N    0.548868
     5  C   -0.745661
     6  N    0.601127
     7  C   -0.049795
     8  H    0.274310
     9  H    0.223151
    10  H   -0.108696
    11  H    0.096073
    12  H   -0.179665
 Sum of Mulliken charges =  -0.00000

 Dipole moment (field-independent basis, Debye):
    X=              0.1160    Y=              1.8617    Z=              2.9327  Tot=              3.4756

 Test job not archived.
 1\1\GINC-SE028\SP\RHF\Aug-CC-pVDZ\C4H5N3\OHZDE\09-Apr-2025\0\\#t hf au
 g-cc-pvdz iop(5/13=1,5/36=2,99/5=2) pseudo=read geom=check guess=(read
 ,tcheck) scf=(maxcycle=1)\\title\\0,1\N,0,-1.54378574,0.16720164,-0.30
 130909\C,0,-0.34895073,-0.00740889,0.44389634\C,0,0.20569044,1.3981132
 2,0.59305192\N,0,1.03310574,1.4290194,-0.38869269\C,0,1.13665579,-0.09
 910913,-0.39015248\N,0,0.6744851,-1.38495152,-0.91447766\C,0,0.1557391
 7,-1.40718203,0.31521383\H,0,-1.49506549,0.83004732,-1.06359432\H,0,-1
 .95144636,-0.70240551,-0.61186236\H,0,-0.14930387,2.26123797,1.1523292

 Normal termination of Gaussian 16 at Wed Apr  9 19:14:49 2025.
