 Gaussian 16, Revision C.01,

 ----------------------------------------------------------------------
 #t hf aug-cc-pvdz symm=none int=(grid=ultrafine) guess=(read,tcheck) s
 table=(opt,rrhf)
 ----------------------------------------------------------------------
 -----
 title
 -----
 Symbolic Z-matrix:
 Charge =  0 Multiplicity = 1

 SCF Done:  E(RHF) =  -308.933652546     A.U. after   15 cycles

 1\1\GINC-SE114\Stability\RHF\Aug-CC-pVDZ\C6H12O1\OHZDE\09-Apr-2025\0\\
 #t hf aug-cc-pvdz symm=none int=(grid=ultrafine) guess=(read,tcheck) s
 table=(opt,rrhf)\\title\\0,1\C,0,1.68755832,-0.20310065,-1.30595982\C,
 0,1.14464612,-0.20621859,-0.00323637\O,0,1.07264692,1.68387619,0.14533
 816\C,0,-0.33297741,1.45553817,0.10434524\C,0,-0.35972293,-0.0727529,0
 .27404861\C,0,-0.65868211,-0.47360681,1.71487376\C,0,-1.26524776,-0.82
 810691,-0.68826428\H,0,1.55350545,1.09858798,-0.93261894\H,0,2.7148092
 2,-0.52010561,-1.4336031\H,0,1.02722486,-0.38670229,-2.14496029\H,0,1.

 Normal termination of Gaussian 16 at Wed Apr  9 17:22:01 2025.
 Gaussian 16:  ES64L-G16RevC.01  3-Jul-2019

 ----------------------------------------------------------------------
 #t hf aug-cc-pvdz iop(5/13=1,5/36=2,99/5=2) pseudo=read geom=check gue
 ss=(read,tcheck) scf=(maxcycle=1)
 ----------------------------------------------------------------------
 -----
 title
 -----
 Structure from the checkpoint file:  "Grambow2020_wb97xd3_006581_forward_mol1.chk"
 Charge =  0 Multiplicity = 1

                         Standard orientation:
 ---------------------------------------------------------------------
 Center     Atomic      Atomic             Coordinates (Angstroms)
 Number     Number       Type             X           Y           Z
 ---------------------------------------------------------------------
      1          6           0       -1.766441    1.038573    0.290604
      2          6           0       -0.692020    0.257585    0.767605
      3          8           0       -1.178405   -1.296521   -0.205996
      4          6           0        0.015638   -1.002969   -0.925500
      5          6           0        0.618693    0.077039   -0.011665
      6          6           0        1.692328   -0.498097    0.906248
      7          6           0        1.131485    1.325738   -0.714784
      8          1           0       -1.901185   -0.196543   -0.264445
      9          1           0       -2.557730    1.298213    0.982325
     10          1           0       -1.579095    1.750680   -0.504051
     11          1           0       -0.722486   -0.118952    1.785403
     12          1           0       -0.197108   -0.654118   -1.943522
     13          1           0        0.655863   -1.886315   -0.996365
     14          1           0        1.341282   -1.413232    1.387447
     15          1           0        1.968677    0.216760    1.686209
     16          1           0        2.593426   -0.737555    0.337633
     17          1           0        1.434846    2.091537    0.003025
     18          1           0        0.386685    1.761183   -1.381576
     19          1           0        2.005965    1.073294   -1.319158
 ---------------------------------------------------------------------

 SCF Done:  E(RHF) =  -309.266913722     A.U. after    2 cycles

 The electronic state is 1-A.
 Alpha  occ. eigenvalues --  -20.49546 -11.33303 -11.27139 -11.25678 -11.23633
 Alpha  occ. eigenvalues --  -11.23577 -11.20947  -1.39600  -1.11902  -1.03950
 Alpha  occ. eigenvalues --   -0.95264  -0.91176  -0.84844  -0.74468  -0.68163
 Alpha  occ. eigenvalues --   -0.66021  -0.64095  -0.60591  -0.58423  -0.57449
 Alpha  occ. eigenvalues --   -0.55577  -0.54805  -0.53712  -0.50072  -0.47980
 Alpha  occ. eigenvalues --   -0.45634  -0.39835  -0.33637
 Alpha virt. eigenvalues --    0.03184   0.03367   0.03706   0.04536   0.05760
 Alpha virt. eigenvalues --    0.05823   0.06335   0.06583   0.07919   0.09070
 Alpha virt. eigenvalues --    0.09535   0.09966   0.10232   0.13016   0.13947

 Mulliken charges:
               1
     1  C   -0.494970
     2  C    1.030382
     3  O   -1.471927
     4  C    1.010109
     5  C   -1.908821
     6  C    0.059785
     7  C   -0.140391
     8  H    0.939362
     9  H   -0.043513
    10  H   -0.011253
    11  H   -0.222064
    12  H    0.086827
    13  H    0.059647
    14  H    0.183343
    15  H    0.182565
    16  H    0.167248
    17  H    0.219085
    18  H    0.131881
    19  H    0.222704
 Sum of Mulliken charges =  -0.00000

 Dipole moment (field-independent basis, Debye):
    X=              2.1122    Y=              1.8134    Z=              0.6087  Tot=              2.8496

 Test job not archived.
 1\1\GINC-SE114\SP\RHF\Aug-CC-pVDZ\C6H12O1\OHZDE\09-Apr-2025\0\\#t hf a
 ug-cc-pvdz iop(5/13=1,5/36=2,99/5=2) pseudo=read geom=check guess=(rea
 d,tcheck) scf=(maxcycle=1)\\title\\0,1\C,0,1.68755832,-0.20310065,-1.3
 0595982\C,0,1.14464612,-0.20621859,-0.00323637\O,0,1.07264692,1.683876
 19,0.14533816\C,0,-0.33297741,1.45553817,0.10434524\C,0,-0.35972293,-0
 .0727529,0.27404861\C,0,-0.65868211,-0.47360681,1.71487376\C,0,-1.2652
 4776,-0.82810691,-0.68826428\H,0,1.55350545,1.09858798,-0.93261894\H,0
 ,2.71480922,-0.52010561,-1.4336031\H,0,1.02722486,-0.38670229,-2.14496

 Normal termination of Gaussian 16 at Wed Apr  9 17:22:09 2025.
