 Gaussian 16, Revision C.01,

 ----------------------------------------------------------------------
 #t hf aug-cc-pvdz symm=none int=(grid=ultrafine) guess=(read,tcheck) s
 table=(opt,rrhf)
 ----------------------------------------------------------------------
 -----
 title
 -----
 Symbolic Z-matrix:
 Charge =  0 Multiplicity = 1

 SCF Done:  E(RHF) =  -321.544876318     A.U. after   14 cycles
 Normal termination of Gaussian 16 at Wed Apr  9 19:19:50 2025.
 Gaussian 16:  ES64L-G16RevC.01  3-Jul-2019

 ----------------------------------------------------------------------
 #t hf aug-cc-pvdz iop(5/13=1,5/36=2,99/5=2) pseudo=read geom=check gue
 ss=(read,tcheck) scf=(maxcycle=1)
 ----------------------------------------------------------------------
 -----
 title
 -----
 Structure from the checkpoint file:  "Grambow2020_wb97xd3_009372_reverse_mol2.chk"
 Charge =  0 Multiplicity = 1

                         Standard orientation:
 ---------------------------------------------------------------------
 Center     Atomic      Atomic             Coordinates (Angstroms)
 Number     Number       Type             X           Y           Z
 ---------------------------------------------------------------------
      1          8           0        2.514940   -0.022084   -0.503994
      2          6           0        1.264701   -0.060074   -0.038601
      3          6           0        0.363319    1.117647    0.160992
      4          6           0       -0.658451    0.055481    0.694547
      5          6           0        0.405713   -0.985850    0.392768
      6          6           0       -1.899373   -0.048643   -0.066873
      7          7           0       -2.871413   -0.140212   -0.670125
      8          1           0        0.686385    1.844947    0.906273
      9          1           0        0.051291    1.629538   -0.748974
     10          1           0       -0.903599    0.183692    1.750548
     11          1           0        0.413142   -2.060020    0.504170
     12          1           0        2.877696   -0.911362   -0.546182
 ---------------------------------------------------------------------

 SCF Done:  E(RHF) =  -321.868491189     A.U. after    2 cycles

 The electronic state is 1-A.
 Alpha  occ. eigenvalues --  -20.60952 -15.50533 -11.33160 -11.29992 -11.27331
 Alpha  occ. eigenvalues --  -11.27242 -11.25187  -1.52914  -1.23454  -1.19280
 Alpha  occ. eigenvalues --   -0.96768  -0.93984  -0.81920  -0.72968  -0.72057
 Alpha  occ. eigenvalues --   -0.68847  -0.62418  -0.59718  -0.57199  -0.57081
 Alpha  occ. eigenvalues --   -0.55903  -0.53009  -0.48556  -0.47738  -0.36996
 Alpha virt. eigenvalues --    0.02478   0.03381   0.04055   0.05103   0.05890
 Alpha virt. eigenvalues --    0.08354   0.09677   0.10801   0.11437   0.11973
 Alpha virt. eigenvalues --    0.13017   0.13512   0.13644   0.14458   0.15161

 Mulliken charges:
               1
     1  O   -1.583732
     2  C    1.531061
     3  C   -0.221264
     4  C    0.262786
     5  C    0.135270
     6  C   -1.710349
     7  N    0.938030
     8  H    0.137752
     9  H    0.151366
    10  H    0.080006
    11  H   -0.121766
    12  H    0.400839
 Sum of Mulliken charges =   0.00000

 Dipole moment (field-independent basis, Debye):
    X=              4.6975    Y=             -0.5845    Z=              2.2616  Tot=              5.2462

 Test job not archived.
 1\1\GINC-SE035\SP\RHF\Aug-CC-pVDZ\C5H5N1O1\OHZDE\09-Apr-2025\0\\#t hf
 aug-cc-pvdz iop(5/13=1,5/36=2,99/5=2) pseudo=read geom=check guess=(re
 ad,tcheck) scf=(maxcycle=1)\\title\\0,1\O,0,-2.33100792,-0.67483189,0.
 03163594\C,0,-1.02751926,-0.40333686,-0.05968424\C,0,-0.42548016,0.933
 2514,-0.36041169\C,0,0.9411839,0.17129806,-0.26795069\C,0,0.12359462,-
 1.07061723,0.04362638\C,0,1.83980149,0.63479974,0.78473195\N,0,2.54384
 046,0.99005445,1.61856827\H,0,-0.64520576,1.3447676,-1.34588404\H,0,-0
 .57145675,1.69647855,0.40352994\H,0,1.48821737,0.14839963,-1.21235777\

 Normal termination of Gaussian 16 at Wed Apr  9 19:19:54 2025.
