 Gaussian 16, Revision C.01,

 ----------------------------------------------------------------------
 #t hf aug-cc-pvdz symm=none int=(grid=ultrafine) guess=(read,tcheck) s
 table=(opt,rrhf)
 ----------------------------------------------------------------------
 -----
 title
 -----
 Symbolic Z-matrix:
 Charge =  0 Multiplicity = 1

 SCF Done:  E(RHF) =  -380.660608574     A.U. after   14 cycles
 Normal termination of Gaussian 16 at Wed Apr  9 19:02:52 2025.
 Gaussian 16:  ES64L-G16RevC.01  3-Jul-2019

 ----------------------------------------------------------------------
 #t hf aug-cc-pvdz iop(5/13=1,5/36=2,99/5=2) pseudo=read geom=check gue
 ss=(read,tcheck) scf=(maxcycle=1)
 ----------------------------------------------------------------------
 -----
 title
 -----
 Structure from the checkpoint file:  "Grambow2020_wb97xd3_008487_reverse_mol1.chk"
 Charge =  0 Multiplicity = 1

                         Standard orientation:
 ---------------------------------------------------------------------
 Center     Atomic      Atomic             Coordinates (Angstroms)
 Number     Number       Type             X           Y           Z
 ---------------------------------------------------------------------
      1          6           0        2.696119   -0.220626   -0.063445
      2          8           0        1.590057    0.672493   -0.125257
      3          6           0        0.382559    0.129205    0.073695
      4          8           0        0.256713   -1.069958    0.358628
      5          6           0       -0.735302    0.999238   -0.135872
      6          6           0       -1.971933    0.461643    0.473806
      7          8           0       -2.202664   -0.694472   -0.511570
      8          1           0        2.603011   -1.008507   -0.811922
      9          1           0        3.576077    0.385733   -0.265154
     10          1           0        2.772225   -0.679733    0.922392
     11          1           0       -0.579711    2.061413   -0.254052
     12          1           0       -1.506533   -0.019520   -1.108672
     13          1           0       -1.909821   -0.011002    1.454852
     14          1           0       -2.842803    1.104765    0.393807
     15          1           0       -1.493943   -1.314408   -0.194764
 ---------------------------------------------------------------------

 SCF Done:  E(RHF) =  -381.049972632     A.U. after    2 cycles

 The electronic state is 1-A.
 Alpha  occ. eigenvalues --  -20.63222 -20.57517 -20.50992 -11.36991 -11.32569
 Alpha  occ. eigenvalues --  -11.28490 -11.20278  -1.54038  -1.52597  -1.42564
 Alpha  occ. eigenvalues --   -1.06011  -0.97311  -0.88500  -0.77637  -0.77408
 Alpha  occ. eigenvalues --   -0.70606  -0.68289  -0.66507  -0.65681  -0.61607
 Alpha  occ. eigenvalues --   -0.58842  -0.56780  -0.54819  -0.52601  -0.51120
 Alpha  occ. eigenvalues --   -0.44778  -0.43555  -0.32889
 Alpha virt. eigenvalues --    0.03523   0.04110   0.04536   0.04828   0.05978
 Alpha virt. eigenvalues --    0.06618   0.07104   0.07810   0.11116   0.11841
 Alpha virt. eigenvalues --    0.12499   0.13706   0.14160   0.15595   0.15933

 Mulliken charges:
               1
     1  C    0.186027
     2  O   -1.362831
     3  C    2.095912
     4  O   -1.341179
     5  C   -0.391790
     6  C    0.421668
     7  O   -1.157075
     8  H    0.155848
     9  H   -0.004511
    10  H    0.159541
    11  H   -0.212287
    12  H    0.914093
    13  H    0.055589
    14  H   -0.041351
    15  H    0.522346
 Sum of Mulliken charges =  -0.00000

 Dipole moment (field-independent basis, Debye):
    X=             -0.9279    Y=              0.3690    Z=              0.1757  Tot=              1.0139

 Test job not archived.
 1\1\GINC-SE229\SP\RHF\Aug-CC-pVDZ\C4H8O3\OHZDE\09-Apr-2025\0\\#t hf au
 g-cc-pvdz iop(5/13=1,5/36=2,99/5=2) pseudo=read geom=check guess=(read
 ,tcheck) scf=(maxcycle=1)\\title\\0,1\C,0,-2.65117606,-0.25604836,0.01
 290092\O,0,-1.53378809,0.57166507,0.31487581\C,0,-0.33359673,0.0909830
 1,-0.03337834\O,0,-0.22341885,-0.98310289,-0.64100956\C,0,0.79553827,0
 .85531126,0.40405223\C,0,2.02426251,0.49392927,-0.33730578\O,0,2.24193
 444,-0.89315328,0.28673449\H,0,-2.56683708,-1.22197129,0.51242511\H,0,
 -3.52305077,0.28060934,0.37966621\H,0,-2.73470131,-0.42209814,-1.06129

 Normal termination of Gaussian 16 at Wed Apr  9 19:02:57 2025.
