 Gaussian 16, Revision C.01,

 ----------------------------------------------------------------------
 #t hf aug-cc-pvdz symm=none int=(grid=ultrafine) guess=(read,tcheck) s
 table=(opt,rrhf)
 ----------------------------------------------------------------------
 -----
 title
 -----
 Symbolic Z-matrix:
 Charge =  0 Multiplicity = 1

 SCF Done:  E(RHF) =  -283.469297658     A.U. after   21 cycles
 Normal termination of Gaussian 16 at Wed Apr  9 17:02:03 2025.
 Gaussian 16:  ES64L-G16RevC.01  3-Jul-2019

 ----------------------------------------------------------------------
 #t hf aug-cc-pvdz iop(5/13=1,5/36=2,99/5=2) pseudo=read geom=check gue
 ss=(read,tcheck) scf=(maxcycle=1)
 ----------------------------------------------------------------------
 -----
 title
 -----
 Structure from the checkpoint file:  "Grambow2020_wb97xd3_006227_forward_mol1.chk"
 Charge =  0 Multiplicity = 1

                         Standard orientation:
 ---------------------------------------------------------------------
 Center     Atomic      Atomic             Coordinates (Angstroms)
 Number     Number       Type             X           Y           Z
 ---------------------------------------------------------------------
      1          8           0        1.527244    0.536865   -0.670848
      2          6           0        0.471639    0.082680   -0.081648
      3          6           0       -0.769072    1.017677    0.332164
      4          6           0       -1.640597   -0.130541   -0.057188
      5          6           0       -0.665008   -0.892345   -0.566446
      6          7           0        0.946529   -0.649793    0.993816
      7          1           0       -0.783486    1.848613   -0.368890
      8          1           0       -0.792200    1.369507    1.363961
      9          1           0       -2.699718   -0.301948    0.086243
     10          1           0       -0.616490   -1.880127   -1.006377
     11          1           0        1.666464   -1.247238    0.573847
 ---------------------------------------------------------------------

 SCF Done:  E(RHF) =  -283.752432151     A.U. after    2 cycles

 The electronic state is 1-A.
 Alpha  occ. eigenvalues --  -20.48184 -15.65386 -11.33922 -11.28909 -11.27617
 Alpha  occ. eigenvalues --  -11.26029  -1.41878  -1.23885  -1.15050  -0.93218
 Alpha  occ. eigenvalues --   -0.87353  -0.77749  -0.72266  -0.69141  -0.63457
 Alpha  occ. eigenvalues --   -0.60402  -0.58281  -0.54039  -0.51821  -0.41706
 Alpha  occ. eigenvalues --   -0.37267  -0.37080
 Alpha virt. eigenvalues --   -0.06103   0.02960   0.03563   0.04375   0.05514
 Alpha virt. eigenvalues --    0.05745   0.09111   0.10287   0.10920   0.11702
 Alpha virt. eigenvalues --    0.12717   0.13002   0.14135   0.15032   0.15448

 Mulliken charges:
               1
     1  O   -1.644206
     2  C    0.658443
     3  C   -0.423222
     4  C    0.487263
     5  C   -0.084261
     6  N    0.600166
     7  H    0.215351
     8  H    0.096353
     9  H   -0.055895
    10  H   -0.095805
    11  H    0.245813
 Sum of Mulliken charges =  -0.00000

 Dipole moment (field-independent basis, Debye):
    X=             -3.3554    Y=             -2.1151    Z=              1.0883  Tot=              4.1130

 Test job not archived.
 1\1\GINC-SE162\SP\RHF\Aug-CC-pVDZ\C4H5N1O1\OHZDE\09-Apr-2025\0\\#t hf
 aug-cc-pvdz iop(5/13=1,5/36=2,99/5=2) pseudo=read geom=check guess=(re
 ad,tcheck) scf=(maxcycle=1)\\title\\0,1\O,0,-0.34688931,1.83836618,-0.
 83698351\C,0,-0.09253749,0.77750444,-0.14588392\C,0,-1.0395016,-0.5216
 9912,-0.15826431\C,0,0.21958677,-1.32195177,-0.09622785\C,0,1.05941009
 ,-0.29053971,-0.24572354\N,0,0.14053691,1.23345647,1.14114539\H,0,-1.5
 3452971,-0.54013007,-1.12612097\H,0,-1.75900488,-0.60895681,0.65636723
 \H,0,0.38506478,-2.37795874,0.07452274\H,0,2.13565846,-0.1774485,-0.26

 Normal termination of Gaussian 16 at Wed Apr  9 17:02:07 2025.
