 Gaussian 16, Revision C.01,

 ----------------------------------------------------------------------
 #t hf aug-cc-pvdz symm=none int=(grid=ultrafine) guess=(read,tcheck) s
 table=(opt,rrhf)
 ----------------------------------------------------------------------
 -----
 title
 -----
 Symbolic Z-matrix:
 Charge =  0 Multiplicity = 1

 SCF Done:  E(RHF) =  -267.530658542     A.U. after   17 cycles
 Normal termination of Gaussian 16 at Wed Apr  9 03:20:55 2025.
 Gaussian 16:  ES64L-G16RevC.01  3-Jul-2019

 ----------------------------------------------------------------------
 #t hf aug-cc-pvdz iop(5/13=1,5/36=2,99/5=2) pseudo=read geom=check gue
 ss=(read,tcheck) scf=(maxcycle=1)
 ----------------------------------------------------------------------
 -----
 title
 -----
 Structure from the checkpoint file:  "Grambow2020_wb97xd3_006075_reverse_mol1.chk"
 Charge =  0 Multiplicity = 1

                         Standard orientation:
 ---------------------------------------------------------------------
 Center     Atomic      Atomic             Coordinates (Angstroms)
 Number     Number       Type             X           Y           Z
 ---------------------------------------------------------------------
      1          8           0       -1.338012   -0.406512    0.693480
      2          6           0       -0.680955   -0.631557   -0.401365
      3          6           0        0.784863   -1.028588   -0.261753
      4          6           0        1.412192    0.224239    0.369509
      5          6           0        0.530372    1.287749   -0.203098
      6          6           0       -0.754661    1.034423   -0.244059
      7          1           0       -1.230422   -0.962371   -1.290934
      8          1           0        1.218982   -1.230615   -1.242127
      9          1           0        0.871678   -1.930024    0.349226
     10          1           0        1.317229    0.213804    1.458815
     11          1           0        2.463936    0.343729    0.117386
     12          1           0       -1.688176    1.499974   -0.495602
 ---------------------------------------------------------------------

 SCF Done:  E(RHF) =  -267.804486647     A.U. after    2 cycles

 The electronic state is 1-A.
 Alpha  occ. eigenvalues --  -20.56480 -11.35697 -11.30412 -11.25974 -11.25961
 Alpha  occ. eigenvalues --  -11.25623  -1.48097  -1.14029  -1.01046  -0.93740
 Alpha  occ. eigenvalues --   -0.80667  -0.77208  -0.69622  -0.65759  -0.62137
 Alpha  occ. eigenvalues --   -0.59596  -0.57229  -0.55091  -0.52448  -0.44154
 Alpha  occ. eigenvalues --   -0.41922  -0.34423
 Alpha virt. eigenvalues --    0.03208   0.03692   0.04170   0.04697   0.06027
 Alpha virt. eigenvalues --    0.06312   0.06871   0.09058   0.10350   0.12239
 Alpha virt. eigenvalues --    0.13159   0.14053   0.14523   0.14751   0.15388

 Mulliken charges:
               1
     1  O   -1.359631
     2  C    1.026240
     3  C   -0.283042
     4  C   -0.247696
     5  C   -0.157191
     6  C    0.339456
     7  H    0.139821
     8  H    0.132570
     9  H    0.190485
    10  H    0.180536
    11  H    0.103975
    12  H   -0.065523
 Sum of Mulliken charges =   0.00000

 Dipole moment (field-independent basis, Debye):
    X=              0.5092    Y=             -1.8255    Z=             -1.0344  Tot=              2.1591

 Test job not archived.
 1\1\GINC-SE069\SP\RHF\Aug-CC-pVDZ\C5H6O1\OHZDE\09-Apr-2025\0\\#t hf au
 g-cc-pvdz iop(5/13=1,5/36=2,99/5=2) pseudo=read geom=check guess=(read
 ,tcheck) scf=(maxcycle=1)\\title\\0,1\O,0,-0.68736806,-1.59282516,0.13
 158972\C,0,-0.48884039,-0.56350756,0.89457594\C,0,-0.82150312,0.806210
 34,0.31237671\C,0,0.1786748,0.92847205,-0.84792688\C,0,1.31862584,0.12
 359723,-0.31012867\C,0,1.01795212,-0.99456376,0.30344725\H,0,-0.531103
 1,-0.69409574,1.98262223\H,0,-0.65341308,1.58644086,1.05628074\H,0,-1.
 86967146,0.83796939,0.00618317\H,0,-0.20557695,0.46054704,-1.75848271\

 Normal termination of Gaussian 16 at Wed Apr  9 03:20:59 2025.
