 Gaussian 16, Revision C.01,

 ----------------------------------------------------------------------
 #t hf aug-cc-pvdz symm=none int=(grid=ultrafine) guess=(read,tcheck) s
 table=(opt,rrhf)
 ----------------------------------------------------------------------
 -----
 title
 -----
 Symbolic Z-matrix:
 Charge =  0 Multiplicity = 1

 SCF Done:  E(RHF) =  -287.883811021     A.U. after   15 cycles

 1\1\GINC-SE174\Stability\RHF\Aug-CC-pVDZ\C6H11N1\OHZDE\09-Apr-2025\0\\
 #t hf aug-cc-pvdz symm=none int=(grid=ultrafine) guess=(read,tcheck) s
 table=(opt,rrhf)\\title\\0,1\C,0,-2.36924802,-0.14350316,-1.32715207\C
 ,0,-1.39602705,0.21632583,-0.35179723\C,0,0.05248046,-0.13601305,-0.56
 147396\C,0,0.96334155,0.00014572,0.66367354\C,0,2.41328163,-0.36495892
 ,0.34071654\C,0,0.88122668,1.36248108,1.20088748\N,0,0.80672307,2.4370
 7894,1.59646265\H,0,-2.20104063,-0.68450183,0.0574894\H,0,-3.2948529,0
 .40518775,-1.39530981\H,0,-2.17267284,-0.96080971,-2.0056585\H,0,-1.57

 Normal termination of Gaussian 16 at Wed Apr  9 17:46:12 2025.
 Gaussian 16:  ES64L-G16RevC.01  3-Jul-2019

 ----------------------------------------------------------------------
 #t hf aug-cc-pvdz iop(5/13=1,5/36=2,99/5=2) pseudo=read geom=check gue
 ss=(read,tcheck) scf=(maxcycle=1)
 ----------------------------------------------------------------------
 -----
 title
 -----
 Structure from the checkpoint file:  "Grambow2020_wb97xd3_006815_forward_mol1.chk"
 Charge =  0 Multiplicity = 1

                         Standard orientation:
 ---------------------------------------------------------------------
 Center     Atomic      Atomic             Coordinates (Angstroms)
 Number     Number       Type             X           Y           Z
 ---------------------------------------------------------------------
      1          6           0       -2.953455    0.008995   -0.193619
      2          6           0       -1.592593    0.307542    0.101133
      3          6           0       -0.506285   -0.666896   -0.268579
      4          6           0        0.867364   -0.416529    0.363558
      5          6           0        1.900828   -1.449857   -0.088232
      6          6           0        1.323863    0.941618    0.049955
      7          7           0        1.662723    2.005013   -0.216796
      8          1           0       -2.291824    0.090720    1.145698
      9          1           0       -3.671989    0.806333   -0.295661
     10          1           0       -3.261414   -1.018031   -0.325456
     11          1           0       -1.314417    1.355871    0.058514
     12          1           0       -1.307490    0.270781    1.685364
     13          1           0       -0.828416   -1.682322   -0.029878
     14          1           0       -0.429788   -0.608913   -1.359434
     15          1           0        0.758211   -0.462416    1.450828
     16          1           0        1.562960   -2.450845    0.183256
     17          1           0        2.042597   -1.414336   -1.169297
     18          1           0        2.864168   -1.271171    0.388339
 ---------------------------------------------------------------------

 SCF Done:  E(RHF) =  -288.191983678     A.U. after    2 cycles

 The electronic state is 1-A.
 Alpha  occ. eigenvalues --  -15.51479 -11.33638 -11.29944 -11.28094 -11.27755
 Alpha  occ. eigenvalues --  -11.26067 -11.21961  -1.24240  -1.15703  -1.09187
 Alpha  occ. eigenvalues --   -0.96888  -0.89798  -0.81473  -0.73653  -0.68964
 Alpha  occ. eigenvalues --   -0.66691  -0.63368  -0.61766  -0.59395  -0.57981
 Alpha  occ. eigenvalues --   -0.56671  -0.54964  -0.54132  -0.53073  -0.49287
 Alpha  occ. eigenvalues --   -0.49133  -0.28260
 Alpha virt. eigenvalues --    0.02734   0.03216   0.03456   0.04166   0.05358
 Alpha virt. eigenvalues --    0.05802   0.06273   0.07247   0.08533   0.08787
 Alpha virt. eigenvalues --    0.10013   0.10468   0.11639   0.12925   0.13032

 Mulliken charges:
               1
     1  C   -0.278630
     2  C   -0.219920
     3  C    0.115855
     4  C   -0.665391
     5  C    0.040498
     6  C   -1.586988
     7  N    1.055224
     8  H    0.508605
     9  H   -0.132624
    10  H   -0.130863
    11  H    0.054087
    12  H    0.000903
    13  H    0.161559
    14  H    0.270737
    15  H    0.216299
    16  H    0.172634
    17  H    0.253403
    18  H    0.164611
 Sum of Mulliken charges =  -0.00000

 Dipole moment (field-independent basis, Debye):
    X=             -0.6244    Y=             -4.3390    Z=              0.4163  Tot=              4.4034

 Test job not archived.
 1\1\GINC-SE174\SP\RHF\Aug-CC-pVDZ\C6H11N1\OHZDE\09-Apr-2025\0\\#t hf a
 ug-cc-pvdz iop(5/13=1,5/36=2,99/5=2) pseudo=read geom=check guess=(rea
 d,tcheck) scf=(maxcycle=1)\\title\\0,1\C,0,-2.36924802,-0.14350316,-1.
 32715207\C,0,-1.39602705,0.21632583,-0.35179723\C,0,0.05248046,-0.1360
 1305,-0.56147396\C,0,0.96334155,0.00014572,0.66367354\C,0,2.41328163,-
 0.36495892,0.34071654\C,0,0.88122668,1.36248108,1.20088748\N,0,0.80672
 307,2.43707894,1.59646265\H,0,-2.20104063,-0.68450183,0.0574894\H,0,-3
 .2948529,0.40518775,-1.39530981\H,0,-2.17267284,-0.96080971,-2.0056585

 Normal termination of Gaussian 16 at Wed Apr  9 17:46:19 2025.
