 Gaussian 16, Revision C.01,

 ----------------------------------------------------------------------
 #t hf aug-cc-pvdz symm=none int=(grid=ultrafine) guess=(read,tcheck) s
 table=(opt,rrhf)
 ----------------------------------------------------------------------
 -----
 title
 -----
 Symbolic Z-matrix:
 Charge =  0 Multiplicity = 1

 SCF Done:  E(RHF) =  -360.771060141     A.U. after   15 cycles
 Normal termination of Gaussian 16 at Wed Apr  9 17:31:49 2025.
 Gaussian 16:  ES64L-G16RevC.01  3-Jul-2019

 ----------------------------------------------------------------------
 #t hf aug-cc-pvdz iop(5/13=1,5/36=2,99/5=2) pseudo=read geom=check gue
 ss=(read,tcheck) scf=(maxcycle=1)
 ----------------------------------------------------------------------
 -----
 title
 -----
 Structure from the checkpoint file:  "Grambow2020_wb97xd3_006621_reverse_mol1.chk"
 Charge =  0 Multiplicity = 1

                         Standard orientation:
 ---------------------------------------------------------------------
 Center     Atomic      Atomic             Coordinates (Angstroms)
 Number     Number       Type             X           Y           Z
 ---------------------------------------------------------------------
      1          6           0       -2.387729   -0.457503   -0.321768
      2          6           0       -1.120316   -0.012074    0.373636
      3          8           0       -0.119803   -1.006088    0.278560
      4          6           0       -0.464458    1.225120   -0.254111
      5          7           0        0.944790    1.176601    0.114743
      6          6           0        1.388897   -0.155406    0.069556
      7          8           0        2.181555   -0.705251   -0.597363
      8          1           0       -3.142562    0.331417   -0.287275
      9          1           0       -2.797845   -1.345262    0.159053
     10          1           0       -2.178824   -0.698057   -1.365424
     11          1           0       -1.330382    0.195905    1.432079
     12          1           0        0.659742   -0.970806    1.269101
     13          1           0       -0.549257    1.178754   -1.342132
     14          1           0       -0.904284    2.160682    0.087023
     15          1           0        1.122450    1.582442    1.021852
     16          1           0        1.515054   -0.581386    1.569074
 ---------------------------------------------------------------------

 SCF Done:  E(RHF) =  -361.146690736     A.U. after    2 cycles

 The electronic state is 1-A.
 Alpha  occ. eigenvalues --  -20.56405 -20.55427 -15.54441 -11.45349 -11.30565
 Alpha  occ. eigenvalues --  -11.29096 -11.24079  -1.52909  -1.46016  -1.26340
 Alpha  occ. eigenvalues --   -1.06747  -0.96156  -0.84957  -0.83817  -0.79770
 Alpha  occ. eigenvalues --   -0.70739  -0.68567  -0.67613  -0.63218  -0.61068
 Alpha  occ. eigenvalues --   -0.58226  -0.56389  -0.55509  -0.52068  -0.49712
 Alpha  occ. eigenvalues --   -0.47533  -0.43828  -0.39011
 Alpha virt. eigenvalues --    0.02569   0.03578   0.03769   0.04781   0.05958
 Alpha virt. eigenvalues --    0.06247   0.06646   0.07672   0.09837   0.10013
 Alpha virt. eigenvalues --    0.11927   0.12338   0.13134   0.13976   0.14582

 Mulliken charges:
               1
     1  C   -0.289379
     2  C    0.612546
     3  O   -1.637127
     4  C   -0.586699
     5  N    0.437850
     6  C    0.807767
     7  O   -1.078329
     8  H    0.229141
     9  H    0.152810
    10  H    0.197366
    11  H    0.103571
    12  H    0.584142
    13  H    0.105437
    14  H    0.066064
    15  H    0.414546
    16  H   -0.119707
 Sum of Mulliken charges =  -0.00000

 Dipole moment (field-independent basis, Debye):
    X=             -3.5713    Y=              2.7271    Z=              1.9461  Tot=              4.8968

 Test job not archived.
 1\1\GINC-SE454\SP\RHF\Aug-CC-pVDZ\C4H9N1O2\OHZDE\09-Apr-2025\0\\#t hf
 aug-cc-pvdz iop(5/13=1,5/36=2,99/5=2) pseudo=read geom=check guess=(re
 ad,tcheck) scf=(maxcycle=1)\\title\\0,1\C,0,-1.97544123,-0.52756548,-0
 .45750227\C,0,-0.46656885,-0.43599425,-0.40052177\O,0,-0.02029536,0.81
 002161,-0.89692312\C,0,0.10977234,-0.48864961,1.02071827\N,0,1.4117952
 3,0.1637953,0.96206468\C,0,1.33626537,1.26969641,0.09904954\O,0,1.4557
 5084,2.42302435,0.27504093\H,0,-2.31952389,-1.47202895,-0.02977151\H,0
 ,-2.32492911,-0.47076074,-1.48810007\H,0,-2.42305129,0.29511803,0.1024

 Normal termination of Gaussian 16 at Wed Apr  9 17:31:54 2025.
