 Gaussian 16, Revision C.01,

 ----------------------------------------------------------------------
 #t hf aug-cc-pvdz symm=none int=(grid=ultrafine) guess=(read,tcheck) s
 table=(opt,rrhf)
 ----------------------------------------------------------------------
 -----
 title
 -----
 Symbolic Z-matrix:
 Charge =  0 Multiplicity = 1

 SCF Done:  E(RHF) =  -375.762789421     A.U. after   14 cycles
 Normal termination of Gaussian 16 at Wed Apr  9 03:46:59 2025.
 Gaussian 16:  ES64L-G16RevC.01  3-Jul-2019

 ----------------------------------------------------------------------
 #t hf aug-cc-pvdz iop(5/13=1,5/36=2,99/5=2) pseudo=read geom=check gue
 ss=(read,tcheck) scf=(maxcycle=1)
 ----------------------------------------------------------------------
 -----
 title
 -----
 Structure from the checkpoint file:  "Grambow2020_wb97xd3_007917_reverse_mol2.chk"
 Charge =  0 Multiplicity = 1

                         Standard orientation:
 ---------------------------------------------------------------------
 Center     Atomic      Atomic             Coordinates (Angstroms)
 Number     Number       Type             X           Y           Z
 ---------------------------------------------------------------------
      1          6           0        2.693061   -0.291448    0.065758
      2          8           0        1.396491   -0.655237   -0.335366
      3          6           0        0.381421    0.074662    0.303657
      4          7           0        0.283292    1.455216   -0.071732
      5          7           0       -0.826197   -0.626405   -0.022159
      6          6           0       -1.978790   -0.283604    0.004584
      7          8           0       -3.119974   -0.066906   -0.006397
      8          1           0        3.376928   -1.007808   -0.384996
      9          1           0        2.803853   -0.335708    1.157288
     10          1           0        2.967605    0.713352   -0.276864
     11          1           0        1.016152    2.013761    0.340622
     12          1           0        0.544891    0.036772    1.390065
     13          1           0        0.304617    1.557439   -1.078770
 ---------------------------------------------------------------------

 SCF Done:  E(RHF) =  -376.141185971     A.U. after    2 cycles

 The electronic state is 1-A.
 Alpha  occ. eigenvalues --  -20.59814 -20.56235 -15.51888 -15.51221 -11.41001
 Alpha  occ. eigenvalues --  -11.38469 -11.29790  -1.54819  -1.49807  -1.29100
 Alpha  occ. eigenvalues --   -1.19989  -1.00287  -0.91281  -0.79793  -0.74633
 Alpha  occ. eigenvalues --   -0.73050  -0.71786  -0.67684  -0.65626  -0.64340
 Alpha  occ. eigenvalues --   -0.61542  -0.59133  -0.53446  -0.48813  -0.48109
 Alpha  occ. eigenvalues --   -0.45311  -0.44279
 Alpha virt. eigenvalues --    0.02895   0.04101   0.04237   0.04923   0.06706
 Alpha virt. eigenvalues --    0.06888   0.08836   0.09828   0.10550   0.11920
 Alpha virt. eigenvalues --    0.12647   0.13214   0.13975   0.15838   0.16195

 Mulliken charges:
               1
     1  C    0.133296
     2  O   -1.443784
     3  C    0.118303
     4  N    0.070762
     5  N    0.889194
     6  C    0.320629
     7  O   -0.841194
     8  H   -0.033360
     9  H    0.203827
    10  H    0.130094
    11  H    0.180559
    12  H    0.012766
    13  H    0.258907
 Sum of Mulliken charges =  -0.00000

 Dipole moment (field-independent basis, Debye):
    X=              3.5787    Y=              1.8001    Z=              0.8281  Tot=              4.0906

 Test job not archived.
 1\1\GINC-SE106\SP\RHF\Aug-CC-pVDZ\C3H6N2O2\OHZDE\09-Apr-2025\0\\#t hf
 aug-cc-pvdz iop(5/13=1,5/36=2,99/5=2) pseudo=read geom=check guess=(re
 ad,tcheck) scf=(maxcycle=1)\\title\\0,1\C,0,-1.7842457,-0.09388917,-0.
 76256056\O,0,-1.1091148,0.05908464,0.46019573\C,0,0.24725451,-0.299755
 99,0.4057443\N,0,1.08892733,0.57950837,-0.35251281\N,0,0.66388801,-0.3
 4285739,1.77707617\C,0,1.75548048,-0.2984267,2.2802176\O,0,2.75286756,
 -0.26802042,2.87492181\H,0,-2.84033094,0.07860106,-0.56518802\H,0,-1.6
 6112171,-1.10762674,-1.16610479\H,0,-1.4493069,0.62935195,-1.51563803\

 Normal termination of Gaussian 16 at Wed Apr  9 03:47:03 2025.
