 Gaussian 16, Revision C.01,

 ----------------------------------------------------------------------
 #t hf aug-cc-pvdz symm=none int=(grid=ultrafine) guess=(read,tcheck) s
 table=(opt,rrhf)
 ----------------------------------------------------------------------
 -----
 title
 -----
 Symbolic Z-matrix:
 Charge =  0 Multiplicity = 1

 SCF Done:  E(RHF) =  -320.356700404     A.U. after   16 cycles
 Normal termination of Gaussian 16 at Wed Apr  9 18:30:06 2025.
 Gaussian 16:  ES64L-G16RevC.01  3-Jul-2019

 ----------------------------------------------------------------------
 #t hf aug-cc-pvdz iop(5/13=1,5/36=2,99/5=2) pseudo=read geom=check gue
 ss=(read,tcheck) scf=(maxcycle=1)
 ----------------------------------------------------------------------
 -----
 title
 -----
 Structure from the checkpoint file:  "Grambow2020_wb97xd3_007649_reverse_mol2.chk"
 Charge =  0 Multiplicity = 1

                         Standard orientation:
 ---------------------------------------------------------------------
 Center     Atomic      Atomic             Coordinates (Angstroms)
 Number     Number       Type             X           Y           Z
 ---------------------------------------------------------------------
      1          7           0        2.735636   -0.372013   -0.000157
      2          6           0        1.597155   -0.221655   -0.000526
      3          6           0        0.186189    0.032286    0.000059
      4          6           0       -0.267288    1.463367    0.001039
      5          8           0       -1.416567    1.794450   -0.000880
      6          6           0       -1.575238   -1.884310    0.000255
      7          6           0       -0.684233   -0.953343   -0.000351
      8          1           0        0.558951    2.198258    0.003285
      9          1           0       -1.956237   -2.283596    0.933194
     10          1           0       -1.959146   -2.284237   -0.931197
 ---------------------------------------------------------------------

 SCF Done:  E(RHF) =  -320.669797849     A.U. after    2 cycles

 The electronic state is 1-A.
 Alpha  occ. eigenvalues --  -20.57112 -15.53041 -11.37639 -11.33721 -11.31710
 Alpha  occ. eigenvalues --  -11.30360 -11.30060  -1.50877  -1.25504  -1.15630
 Alpha  occ. eigenvalues --   -1.06143  -0.89763  -0.82857  -0.74386  -0.70855
 Alpha  occ. eigenvalues --   -0.67339  -0.66879  -0.62159  -0.58902  -0.54366
 Alpha  occ. eigenvalues --   -0.52922  -0.46689  -0.44140  -0.42282
 Alpha virt. eigenvalues --    0.02578   0.03087   0.04112   0.04143   0.06620
 Alpha virt. eigenvalues --    0.07233   0.08639   0.08966   0.10598   0.11287
 Alpha virt. eigenvalues --    0.12330   0.12844   0.13330   0.14344   0.14784

 Mulliken charges:
               1
     1  N    1.031976
     2  C   -2.517494
     3  C    1.085805
     4  C    0.927298
     5  O   -1.144042
     6  C    0.014952
     7  C    0.506907
     8  H    0.094269
     9  H    0.000526
    10  H   -0.000198
 Sum of Mulliken charges =  -0.00000

 Dipole moment (field-independent basis, Debye):
    X=             -3.3533    Y=             -1.9172    Z=              0.0042  Tot=              3.8627

 Test job not archived.
 1\1\GINC-SE173\SP\RHF\Aug-CC-pVDZ\C5H3N1O1\OHZDE\09-Apr-2025\0\\#t hf
 aug-cc-pvdz iop(5/13=1,5/36=2,99/5=2) pseudo=read geom=check guess=(re
 ad,tcheck) scf=(maxcycle=1)\\title\\0,1\N,0,2.88340132,-0.84188205,-0.
 0240164\C,0,1.81487563,-0.42299202,0.01511486\C,0,0.50627706,0.1584061
 9,0.08481849\C,0,0.40006907,1.59378869,0.51146707\O,0,-0.63669323,2.18
 301623,0.60310509\C,0,-1.64775293,-1.18254872,-0.49652559\C,0,-0.56709
 06,-0.53974433,-0.21446106\H,0,1.37204193,2.07023607,0.73731501\H,0,-2
 .18277919,-1.72780438,0.27250486\H,0,-2.04052604,-1.18940368,-1.506778

 Normal termination of Gaussian 16 at Wed Apr  9 18:30:09 2025.
