 Gaussian 16, Revision C.01,

 ----------------------------------------------------------------------
 #t hf aug-cc-pvdz symm=none int=(grid=ultrafine) guess=(read,tcheck) s
 table=(opt,rrhf)
 ----------------------------------------------------------------------
 -----
 title
 -----
 Symbolic Z-matrix:
 Charge =  0 Multiplicity = 1

 SCF Done:  E(RHF) =  -233.037762515     A.U. after   12 cycles
 Normal termination of Gaussian 16 at Wed Apr  9 03:15:04 2025.
 Gaussian 16:  ES64L-G16RevC.01  3-Jul-2019

 ----------------------------------------------------------------------
 #t hf aug-cc-pvdz iop(5/13=1,5/36=2,99/5=2) pseudo=read geom=check gue
 ss=(read,tcheck) scf=(maxcycle=1)
 ----------------------------------------------------------------------
 -----
 title
 -----
 Structure from the checkpoint file:  "Grambow2020_b97d3_006948_forward_mol2.chk"
 Charge =  0 Multiplicity = 1

                         Standard orientation:
 ---------------------------------------------------------------------
 Center     Atomic      Atomic             Coordinates (Angstroms)
 Number     Number       Type             X           Y           Z
 ---------------------------------------------------------------------
      1          6           0       -2.120268   -0.001006   -0.193167
      2          6           0       -0.709613   -0.001138    0.398544
      3          6           0        0.152176    1.232567   -0.002100
      4          6           0        1.555337    0.672638   -0.066920
      5          6           0        1.557388   -0.670832   -0.067218
      6          6           0        0.155359   -1.232800   -0.002378
      7          1           0       -2.686675   -0.889173    0.122911
      8          1           0       -2.077189   -0.001009   -1.292948
      9          1           0       -2.684088    0.889228    0.122022
     10          1           0       -0.783648   -0.001073    1.497488
     11          1           0       -0.150981    1.627104   -0.989156
     12          1           0        0.047011    2.063748    0.711858
     13          1           0        2.442823    1.301504   -0.147486
     14          1           0        2.446719   -1.296749   -0.148079
     15          1           0       -0.146937   -1.627101   -0.989657
     16          1           0        0.050693   -2.063048    0.712474
 ---------------------------------------------------------------------

 SCF Done:  E(RHF) =  -233.293155726     A.U. after    2 cycles

 The electronic state is 1-A.
 Alpha  occ. eigenvalues --  -11.23364 -11.23095 -11.22987 -11.22952 -11.22936
 Alpha  occ. eigenvalues --  -11.22416  -1.13261  -1.00754  -0.95410  -0.89185
 Alpha  occ. eigenvalues --   -0.76742  -0.72937  -0.67650  -0.63281  -0.56892
 Alpha  occ. eigenvalues --   -0.55490  -0.55402  -0.53932  -0.49831  -0.48253
 Alpha  occ. eigenvalues --   -0.47012  -0.45740  -0.34551
 Alpha virt. eigenvalues --    0.03737   0.03921   0.03962   0.04198   0.05505
 Alpha virt. eigenvalues --    0.06210   0.06598   0.06918   0.08043   0.09036
 Alpha virt. eigenvalues --    0.12652   0.12747   0.13887   0.15064   0.15236

 Mulliken charges:
               1
     1  C   -0.255855
     2  C   -0.571321
     3  C   -0.481651
     4  C    0.310294
     5  C    0.308714
     6  C   -0.481473
     7  H    0.155844
     8  H    0.207497
     9  H    0.157222
    10  H    0.128661
    11  H    0.205261
    12  H    0.149461
    13  H   -0.094842
    14  H   -0.094542
    15  H    0.206087
    16  H    0.150642
 Sum of Mulliken charges =  -0.00000

 Dipole moment (field-independent basis, Debye):
    X=             -0.2324    Y=              0.0007    Z=              0.0160  Tot=              0.2330

 Test job not archived.
 1\1\GINC-SE460\SP\RHF\Aug-CC-pVDZ\C6H10\OHZDE\09-Apr-2025\0\\#t hf aug
 -cc-pvdz iop(5/13=1,5/36=2,99/5=2) pseudo=read geom=check guess=(read,
 tcheck) scf=(maxcycle=1)\\title\\0,1\C,0,1.93581356,-0.11636326,-0.126
 49117\C,0,0.49700712,-0.25364842,0.374568\C,0,-0.44015073,-1.04901391,
 -0.58165048\C,0,-1.78445805,-0.38485496,-0.38591225\C,0,-1.6729209,0.7
 8716556,0.26126954\C,0,-0.23490943,1.10154222,0.60621764\H,0,2.5550992
 ,0.44858645,0.58546376\H,0,1.95951696,0.41409109,-1.09056006\H,0,2.402
 25721,-1.10169957,-0.27242388\H,0,0.50413794,-0.78695199,1.33825605\H,

 Normal termination of Gaussian 16 at Wed Apr  9 03:15:09 2025.
