 Gaussian 16, Revision C.01,

 ----------------------------------------------------------------------
 #t hf aug-cc-pvdz symm=none int=(grid=ultrafine) guess=(read,tcheck) s
 table=(opt,rrhf)
 ----------------------------------------------------------------------
 -----
 title
 -----
 Symbolic Z-matrix:
 Charge =  0 Multiplicity = 1

 SCF Done:  E(RHF) =  -322.696257786     A.U. after   15 cycles
 Normal termination of Gaussian 16 at Wed Apr  9 03:27:18 2025.
 Gaussian 16:  ES64L-G16RevC.01  3-Jul-2019

 ----------------------------------------------------------------------
 #t hf aug-cc-pvdz iop(5/13=1,5/36=2,99/5=2) pseudo=read geom=check gue
 ss=(read,tcheck) scf=(maxcycle=1)
 ----------------------------------------------------------------------
 -----
 title
 -----
 Structure from the checkpoint file:  "Grambow2020_wb97xd3_006638_reverse_mol2.chk"
 Charge =  0 Multiplicity = 1

                         Standard orientation:
 ---------------------------------------------------------------------
 Center     Atomic      Atomic             Coordinates (Angstroms)
 Number     Number       Type             X           Y           Z
 ---------------------------------------------------------------------
      1          8           0       -2.730470   -0.905773   -0.001962
      2          6           0       -2.420796    0.251281    0.002124
      3          6           0       -1.011625    0.759865   -0.000956
      4          6           0        1.275730    0.480646   -0.001967
      5          6           0        2.303372   -0.328213    0.746272
      6          6           0        2.310763   -0.326182   -0.741805
      7          7           0       -0.035112   -0.038616   -0.004404
      8          1           0       -3.192215    1.049336    0.011531
      9          1           0       -0.890138    1.851388    0.001520
     10          1           0        1.386387    1.564145   -0.001076
     11          1           0        1.935448   -1.212165    1.247988
     12          1           0        3.071214    0.221599    1.273565
     13          1           0        1.951086   -1.209546   -1.250618
     14          1           0        3.083092    0.227355   -1.258393
 ---------------------------------------------------------------------

 SCF Done:  E(RHF) =  -323.027104724     A.U. after    2 cycles

 The electronic state is 1-A.
 Alpha  occ. eigenvalues --  -20.55301 -15.53425 -11.34657 -11.29310 -11.27759
 Alpha  occ. eigenvalues --  -11.24585 -11.24519  -1.48568  -1.27199  -1.14907
 Alpha  occ. eigenvalues --   -0.96812  -0.85077  -0.83926  -0.77960  -0.72120
 Alpha  occ. eigenvalues --   -0.71088  -0.65498  -0.64014  -0.59486  -0.57625
 Alpha  occ. eigenvalues --   -0.53481  -0.51619  -0.49499  -0.44787  -0.42404
 Alpha  occ. eigenvalues --   -0.39853
 Alpha virt. eigenvalues --    0.03133   0.03820   0.03924   0.04472   0.04530
 Alpha virt. eigenvalues --    0.05475   0.07101   0.07291   0.08707   0.10961
 Alpha virt. eigenvalues --    0.11574   0.12081   0.12964   0.14471   0.14780

 Mulliken charges:
               1
     1  O   -1.154919
     2  C    1.247882
     3  C   -0.608283
     4  C   -0.792773
     5  C    0.393867
     6  C    0.396682
     7  N    1.124677
     8  H    0.175563
     9  H   -0.277680
    10  H   -0.163707
    11  H   -0.073601
    12  H   -0.096769
    13  H   -0.075287
    14  H   -0.095653
 Sum of Mulliken charges =  -0.00000

 Dipole moment (field-independent basis, Debye):
    X=              1.7024    Y=              3.8423    Z=              0.0179  Tot=              4.2026

 Test job not archived.
 1\1\GINC-SE187\SP\RHF\Aug-CC-pVDZ\C5H7N1O1\OHZDE\09-Apr-2025\0\\#t hf
 aug-cc-pvdz iop(5/13=1,5/36=2,99/5=2) pseudo=read geom=check guess=(re
 ad,tcheck) scf=(maxcycle=1)\\title\\0,1\O,0,1.98154041,2.28054369,1.56
 679476\C,0,1.91403856,2.17393585,0.37567491\C,0,1.05253156,1.18422641,
 -0.34731302\C,0,-0.46783199,-0.54541297,-0.42978765\C,0,-0.66592546,-1
 .89131019,0.21788689\C,0,-1.78804899,-0.9141929,0.19523467\N,0,0.32435
 648,0.37370092,0.28827475\H,0,2.51321807,2.828065,-0.29153292\H,0,1.09
 883109,1.2113833,-1.44426575\H,0,-0.41658467,-0.51003692,-1.51714164\H

 Normal termination of Gaussian 16 at Wed Apr  9 03:27:22 2025.
