 Gaussian 16, Revision C.01,

 ----------------------------------------------------------------------
 #t hf aug-cc-pvdz symm=none int=(grid=ultrafine) guess=(read,tcheck) s
 table=(opt,rrhf)
 ----------------------------------------------------------------------
 -----
 title
 -----
 Symbolic Z-matrix:
 Charge =  0 Multiplicity = 1

 SCF Done:  E(RHF) =  -283.482288820     A.U. after   15 cycles
 Normal termination of Gaussian 16 at Wed Apr  9 15:44:39 2025.
 Gaussian 16:  ES64L-G16RevC.01  3-Jul-2019

 ----------------------------------------------------------------------
 #t hf aug-cc-pvdz iop(5/13=1,5/36=2,99/5=2) pseudo=read geom=check gue
 ss=(read,tcheck) scf=(maxcycle=1)
 ----------------------------------------------------------------------
 -----
 title
 -----
 Structure from the checkpoint file:  "Grambow2020_b97d3_006733_forward_mol1.chk"
 Charge =  0 Multiplicity = 1

                         Standard orientation:
 ---------------------------------------------------------------------
 Center     Atomic      Atomic             Coordinates (Angstroms)
 Number     Number       Type             X           Y           Z
 ---------------------------------------------------------------------
      1          6           0       -0.731286    1.127502    0.281510
      2          6           0        0.615923    0.799895   -0.373318
      3          8           0        1.741154   -0.037509   -0.035638
      4          6           0        0.592701   -0.697791    0.346186
      5          7           0       -0.661468   -1.231735   -0.226873
      6          6           0       -1.457222   -0.218086   -0.096874
      7          1           0       -0.714176    1.252327    1.375742
      8          1           0       -1.206139    2.017549   -0.161519
      9          1           0        0.478899    0.728080   -1.457433
     10          1           0        0.556754   -0.820913    1.435364
     11          1           0       -2.534999   -0.323946   -0.263963
 ---------------------------------------------------------------------

 SCF Done:  E(RHF) =  -283.764756733     A.U. after    2 cycles

 The electronic state is 1-A.
 Alpha  occ. eigenvalues --  -20.62145 -15.53582 -11.34684 -11.31675 -11.29458
 Alpha  occ. eigenvalues --  -11.28859  -1.53169  -1.26767  -1.03949  -0.93122
 Alpha  occ. eigenvalues --   -0.85805  -0.77224  -0.70624  -0.67723  -0.66561
 Alpha  occ. eigenvalues --   -0.65574  -0.58274  -0.56858  -0.49740  -0.47539
 Alpha  occ. eigenvalues --   -0.45255  -0.31934
 Alpha virt. eigenvalues --    0.03068   0.04022   0.04339   0.05115   0.06395
 Alpha virt. eigenvalues --    0.07354   0.08803   0.09711   0.10555   0.12100
 Alpha virt. eigenvalues --    0.12921   0.14175   0.14754   0.15129   0.15375

 Mulliken charges:
               1
     1  C   -0.193545
     2  C    0.565653
     3  O   -1.188737
     4  C    0.260594
     5  N    0.622556
     6  C   -0.522346
     7  H    0.175673
     8  H    0.122318
     9  H    0.094221
    10  H    0.068609
    11  H   -0.004995
 Sum of Mulliken charges =  -0.00000

 Dipole moment (field-independent basis, Debye):
    X=             -2.5166    Y=              2.0381    Z=              1.1213  Tot=              3.4269

 Test job not archived.
 1\1\GINC-SE057\SP\RHF\Aug-CC-pVDZ\C4H5N1O1\OHZDE\09-Apr-2025\0\\#t hf
 aug-cc-pvdz iop(5/13=1,5/36=2,99/5=2) pseudo=read geom=check guess=(re
 ad,tcheck) scf=(maxcycle=1)\\title\\0,1\C,0,-0.94990268,0.34710554,-0.
 05119669\C,0,-0.03867733,-0.24032123,-1.13549175\O,0,1.30536927,0.0168
 5918,-1.59245481\C,0,1.29127949,0.15429287,-0.22073332\N,0,0.99429887,
 -0.62293277,1.00162292\C,0,-0.26166523,-0.35935828,1.17681049\H,0,-0.9
 0661246,1.44104243,0.06982006\H,0,-2.00350728,0.05479812,-0.1869152\H,
 0,-0.18909684,-1.32408596,-1.1809316\H,0,1.51272607,1.18817303,0.07049

 Normal termination of Gaussian 16 at Wed Apr  9 15:44:43 2025.
