 Gaussian 16, Revision C.01,

 ----------------------------------------------------------------------
 #t hf aug-cc-pvdz symm=none int=(grid=ultrafine) guess=(read,tcheck) s
 table=(opt,rrhf)
 ----------------------------------------------------------------------
 -----
 title
 -----
 Symbolic Z-matrix:
 Charge =  0 Multiplicity = 1

 SCF Done:  E(RHF) =  -307.809340993     A.U. after   14 cycles

 1\1\GINC-SE105\Stability\RHF\Aug-CC-pVDZ\C6H10O1\OHZDE\09-Apr-2025\0\\
 #t hf aug-cc-pvdz symm=none int=(grid=ultrafine) guess=(read,tcheck) s
 table=(opt,rrhf)\\title\\0,1\O,0,1.84779998,-0.32549258,-0.69258722\C,
 0,1.10235594,0.00523095,0.3512079\C,0,-0.09987218,-0.83151519,0.631851
 41\C,0,-1.35461552,-0.345349,-0.11024928\C,0,-1.22306078,-0.28259717,-
 1.62624984\C,0,0.66405066,1.48415566,2.15513249\C,0,1.46972473,1.12073
 396,1.07799675\H,0,1.48687381,-1.10051025,-1.13492394\H,0,-0.47816754,
 0.45231218,-1.94003625\H,0,-0.28653002,-0.77139573,1.7026718\H,0,0.121

 Normal termination of Gaussian 16 at Wed Apr  9 18:59:59 2025.
 Gaussian 16:  ES64L-G16RevC.01  3-Jul-2019

 ----------------------------------------------------------------------
 #t hf aug-cc-pvdz iop(5/13=1,5/36=2,99/5=2) pseudo=read geom=check gue
 ss=(read,tcheck) scf=(maxcycle=1)
 ----------------------------------------------------------------------
 -----
 title
 -----
 Structure from the checkpoint file:  "Grambow2020_wb97xd3_008423_reverse_mol2.chk"
 Charge =  0 Multiplicity = 1

                         Standard orientation:
 ---------------------------------------------------------------------
 Center     Atomic      Atomic             Coordinates (Angstroms)
 Number     Number       Type             X           Y           Z
 ---------------------------------------------------------------------
      1          8           0       -0.282963    1.792016    0.041607
      2          6           0       -0.625082    0.523853    0.212756
      3          6           0        0.309700   -0.343401    0.986261
      4          6           0        1.380921   -1.004846    0.105109
      5          6           0        2.252035   -0.037844   -0.685820
      6          6           0       -2.139038   -1.253474   -0.214466
      7          6           0       -1.799755    0.089048   -0.369153
      8          1           0        0.559716    1.976369    0.468793
      9          1           0        1.671958    0.523811   -1.421668
     10          1           0       -0.290236   -1.126095    1.447323
     11          1           0        0.785137    0.260576    1.769106
     12          1           0        0.870575   -1.694118   -0.570343
     13          1           0        2.009062   -1.611540    0.761556
     14          1           0        2.757418    0.678880   -0.029894
     15          1           0        3.027817   -0.575995   -1.231699
     16          1           0       -3.047438   -1.456035   -0.806685
     17          1           0       -2.352989    0.848007   -0.927471
 ---------------------------------------------------------------------

 SCF Done:  E(RHF) =  -308.132195632     A.U. after    2 cycles

 The electronic state is 1-A.
 Alpha  occ. eigenvalues --  -20.62469 -11.36117 -11.25462 -11.24802 -11.24068
 Alpha  occ. eigenvalues --  -11.21910 -11.21246  -1.55253  -1.11486  -1.05449
 Alpha  occ. eigenvalues --   -0.97116  -0.89155  -0.84255  -0.75140  -0.71783
 Alpha  occ. eigenvalues --   -0.67081  -0.65030  -0.62043  -0.59573  -0.57295
 Alpha  occ. eigenvalues --   -0.55761  -0.53471  -0.51209  -0.50174  -0.49815
 Alpha  occ. eigenvalues --   -0.37340  -0.32780
 Alpha virt. eigenvalues --    0.02417   0.03522   0.03596   0.04580   0.05829
 Alpha virt. eigenvalues --    0.06133   0.06476   0.06627   0.07031   0.08090
 Alpha virt. eigenvalues --    0.08927   0.11582   0.13253   0.13327   0.13626

 Mulliken charges:
               1
     1  O   -1.643381
     2  C    1.560265
     3  C   -0.460338
     4  C   -0.387527
     5  C   -0.334120
     6  C   -0.594481
     7  C    0.597732
     8  H    0.434845
     9  H    0.187062
    10  H    0.297250
    11  H    0.077351
    12  H    0.170693
    13  H    0.141092
    14  H    0.147136
    15  H    0.054680
    16  H   -0.055752
    17  H   -0.192507
 Sum of Mulliken charges =   0.00000

 Dipole moment (field-independent basis, Debye):
    X=              3.4455    Y=              2.4566    Z=              0.7350  Tot=              4.2949

 Test job not archived.
 1\1\GINC-SE105\SP\RHF\Aug-CC-pVDZ\C6H10O1\OHZDE\09-Apr-2025\0\\#t hf a
 ug-cc-pvdz iop(5/13=1,5/36=2,99/5=2) pseudo=read geom=check guess=(rea
 d,tcheck) scf=(maxcycle=1)\\title\\0,1\O,0,1.84779998,-0.32549258,-0.6
 9258722\C,0,1.10235594,0.00523095,0.3512079\C,0,-0.09987218,-0.8315151
 9,0.63185141\C,0,-1.35461552,-0.345349,-0.11024928\C,0,-1.22306078,-0.
 28259717,-1.62624984\C,0,0.66405066,1.48415566,2.15513249\C,0,1.469724
 73,1.12073396,1.07799675\H,0,1.48687381,-1.10051025,-1.13492394\H,0,-0
 .47816754,0.45231218,-1.94003625\H,0,-0.28653002,-0.77139573,1.7026718

 Normal termination of Gaussian 16 at Wed Apr  9 19:00:05 2025.
