 Gaussian 16, Revision C.01,

 ----------------------------------------------------------------------
 #t hf aug-cc-pvdz symm=none int=(grid=ultrafine) guess=(read,tcheck) s
 table=(opt,rrhf)
 ----------------------------------------------------------------------
 -----
 title
 -----
 Symbolic Z-matrix:
 Charge =  0 Multiplicity = 1

 SCF Done:  E(RHF) =  -359.530785252     A.U. after   16 cycles
 Normal termination of Gaussian 16 at Wed Apr  9 03:46:33 2025.
 Gaussian 16:  ES64L-G16RevC.01  3-Jul-2019

 ----------------------------------------------------------------------
 #t hf aug-cc-pvdz iop(5/13=1,5/36=2,99/5=2) pseudo=read geom=check gue
 ss=(read,tcheck) scf=(maxcycle=1)
 ----------------------------------------------------------------------
 -----
 title
 -----
 Structure from the checkpoint file:  "Grambow2020_wb97xd3_007900_forward_mol1.chk"
 Charge =  0 Multiplicity = 1

                         Standard orientation:
 ---------------------------------------------------------------------
 Center     Atomic      Atomic             Coordinates (Angstroms)
 Number     Number       Type             X           Y           Z
 ---------------------------------------------------------------------
      1          6           0       -0.890747    1.568521    0.045949
      2          6           0       -0.360364    0.175107    0.167684
      3          7           0       -1.054930   -0.880474    0.057838
      4          8           0       -2.385702   -0.597543   -0.185453
      5          6           0        1.084559   -0.024491    0.493427
      6          6           0        1.870531   -1.147891   -0.043608
      7          8           0        2.006324    0.560460   -0.448811
      8          1           0       -1.624364    1.766875    0.829996
      9          1           0       -0.084172    2.297213    0.115516
     10          1           0       -1.402215    1.695719   -0.908874
     11          1           0       -2.780063   -1.468235   -0.268698
     12          1           0        1.345473    0.352878    1.482669
     13          1           0        2.744304   -1.330913    0.591035
     14          1           0        1.996698   -0.281032   -1.153110
 ---------------------------------------------------------------------

 SCF Done:  E(RHF) =  -359.894825561     A.U. after    2 cycles

 The electronic state is 1-A.
 Alpha  occ. eigenvalues --  -20.60952 -20.59031 -15.56498 -11.31902 -11.28788
 Alpha  occ. eigenvalues --  -11.28453 -11.24456  -1.51692  -1.50888  -1.20081
 Alpha  occ. eigenvalues --   -1.01035  -0.98876  -0.88133  -0.78771  -0.72695
 Alpha  occ. eigenvalues --   -0.70472  -0.67594  -0.64444  -0.61501  -0.59603
 Alpha  occ. eigenvalues --   -0.56477  -0.56153  -0.52196  -0.49679  -0.46514
 Alpha  occ. eigenvalues --   -0.41057  -0.38234
 Alpha virt. eigenvalues --    0.03574   0.04035   0.04588   0.04983   0.05950
 Alpha virt. eigenvalues --    0.06478   0.06951   0.08593   0.11907   0.11982
 Alpha virt. eigenvalues --    0.12630   0.13367   0.13401   0.14330   0.14964

 Mulliken charges:
               1
     1  C   -0.240269
     2  C   -1.445858
     3  N    1.658345
     4  O   -1.234804
     5  C    1.159599
     6  C   -0.338912
     7  O   -1.328889
     8  H    0.279895
     9  H    0.087811
    10  H    0.248622
    11  H    0.309279
    12  H    0.050141
    13  H    0.120141
    14  H    0.674899
 Sum of Mulliken charges =  -0.00000

 Dipole moment (field-independent basis, Debye):
    X=             -0.2561    Y=              1.2065    Z=              1.1523  Tot=              1.6879

 Test job not archived.
 1\1\GINC-SE080\SP\RHF\Aug-CC-pVDZ\C4H7N1O2\OHZDE\09-Apr-2025\0\\#t hf
 aug-cc-pvdz iop(5/13=1,5/36=2,99/5=2) pseudo=read geom=check guess=(re
 ad,tcheck) scf=(maxcycle=1)\\title\\0,1\C,0,-1.22970069,-1.12641206,-0
 .11838324\C,0,-0.38701805,0.10578601,-0.02194139\N,0,-0.76781594,1.211
 67682,0.46870984\O,0,-2.07688826,1.1557168,0.90847199\C,0,0.99812784,0
 .08224402,-0.58280573\C,0,2.11254665,0.8281431,0.02538077\O,0,1.868358
 15,-0.91545627,-0.01103392\H,0,-2.09551212,-0.94677839,-0.75898455\H,0
 ,-0.65308465,-1.95942307,-0.51838623\H,0,-1.61235043,-1.40006123,0.865

 Normal termination of Gaussian 16 at Wed Apr  9 03:46:38 2025.
