 Gaussian 16, Revision C.01,

 ----------------------------------------------------------------------
 #t hf aug-cc-pvdz symm=none int=(grid=ultrafine) guess=(read,tcheck) s
 table=(opt,rrhf)
 ----------------------------------------------------------------------
 -----
 title
 -----
 Symbolic Z-matrix:
 Charge =  0 Multiplicity = 1

 SCF Done:  E(RHF) =  -322.743925168     A.U. after   14 cycles
 Normal termination of Gaussian 16 at Wed Apr  9 03:33:46 2025.
 Gaussian 16:  ES64L-G16RevC.01  3-Jul-2019

 ----------------------------------------------------------------------
 #t hf aug-cc-pvdz iop(5/13=1,5/36=2,99/5=2) pseudo=read geom=check gue
 ss=(read,tcheck) scf=(maxcycle=1)
 ----------------------------------------------------------------------
 -----
 title
 -----
 Structure from the checkpoint file:  "Grambow2020_wb97xd3_007025_reverse_mol2.chk"
 Charge =  0 Multiplicity = 1

                         Standard orientation:
 ---------------------------------------------------------------------
 Center     Atomic      Atomic             Coordinates (Angstroms)
 Number     Number       Type             X           Y           Z
 ---------------------------------------------------------------------
      1          6           0        0.142432    1.963244   -0.318319
      2          6           0        0.053455    0.676142    0.476371
      3          6           0       -1.006600   -0.345948    0.081840
      4          6           0       -2.324930   -0.385919    0.015763
      5          7           0       -0.007585   -1.283480   -0.225474
      6          6           0        1.043006   -0.437684    0.079608
      7          8           0        2.228440   -0.568638    0.020088
      8          1           0       -0.689605    2.626147   -0.077904
      9          1           0        0.119680    1.762068   -1.390721
     10          1           0        1.073141    2.483372   -0.088107
     11          1           0        0.075458    0.859989    1.552465
     12          1           0       -2.905701    0.476644    0.309820
     13          1           0       -2.853620   -1.265577   -0.327224
     14          1           0       -0.037972   -2.228179   -0.572295
 ---------------------------------------------------------------------

 SCF Done:  E(RHF) =  -323.075514651     A.U. after    2 cycles

 The electronic state is 1-A.
 Alpha  occ. eigenvalues --  -20.53125 -15.54829 -11.36951 -11.30171 -11.26971
 Alpha  occ. eigenvalues --  -11.24612 -11.23046  -1.48204  -1.31132  -1.07413
 Alpha  occ. eigenvalues --   -1.02771  -0.94153  -0.82411  -0.79804  -0.70043
 Alpha  occ. eigenvalues --   -0.68306  -0.67051  -0.61848  -0.60827  -0.58175
 Alpha  occ. eigenvalues --   -0.55482  -0.53623  -0.50935  -0.49484  -0.42585
 Alpha  occ. eigenvalues --   -0.35808
 Alpha virt. eigenvalues --    0.03090   0.03702   0.04289   0.04545   0.05682
 Alpha virt. eigenvalues --    0.06262   0.07542   0.09741   0.10327   0.11095
 Alpha virt. eigenvalues --    0.11990   0.12684   0.13577   0.14264   0.14341

 Mulliken charges:
               1
     1  C   -0.088113
     2  C   -0.933670
     3  C   -0.504641
     4  C    0.522951
     5  N    0.859205
     6  C    1.004440
     7  O   -1.275284
     8  H    0.172630
     9  H    0.241905
    10  H    0.177628
    11  H    0.172039
    12  H   -0.104876
    13  H   -0.169622
    14  H   -0.074593
 Sum of Mulliken charges =  -0.00000

 Dipole moment (field-independent basis, Debye):
    X=             -2.8481    Y=              0.3929    Z=             -0.0150  Tot=              2.8751

 Test job not archived.
 1\1\GINC-SE132\SP\RHF\Aug-CC-pVDZ\C5H7N1O1\OHZDE\09-Apr-2025\0\\#t hf
 aug-cc-pvdz iop(5/13=1,5/36=2,99/5=2) pseudo=read geom=check guess=(re
 ad,tcheck) scf=(maxcycle=1)\\title\\0,1\C,0,-1.70109945,0.07029838,0.4
 0207212\C,0,-0.51836519,0.00897604,-0.54315836\C,0,0.8659107,0.3312215
 4,0.00818277\C,0,1.46089814,1.37190997,0.56218129\N,0,1.30126391,-0.97
 065385,-0.28682476\C,0,0.08305905,-1.38911693,-0.78986882\O,0,-0.29761
 475,-2.43813731,-1.21482611\H,0,-1.95643877,1.10412541,0.63771871\H,0,
 -1.48097985,-0.44843807,1.33668121\H,0,-2.57163442,-0.40270736,-0.0542

 Normal termination of Gaussian 16 at Wed Apr  9 03:33:51 2025.
