 Gaussian 16, Revision C.01,

 ----------------------------------------------------------------------
 #t hf aug-cc-pvdz symm=none int=(grid=ultrafine) guess=(read,tcheck) s
 table=(opt,rrhf)
 ----------------------------------------------------------------------
 -----
 title
 -----
 Symbolic Z-matrix:
 Charge =  0 Multiplicity = 1

 SCF Done:  E(RHF) =  -288.034372637     A.U. after   15 cycles

 1\1\GINC-SE362\Stability\RHF\Aug-CC-pVDZ\C6H11N1\OHZDE\09-Apr-2025\0\\
 #t hf aug-cc-pvdz symm=none int=(grid=ultrafine) guess=(read,tcheck) s
 table=(opt,rrhf)\\title\\0,1\C,0,-1.77437281,0.5107042,-0.4359483\C,0,
 -1.29626226,-0.88919314,-0.10916701\C,0,0.20588162,-0.97285082,-0.3342
 2137\C,0,0.92606662,0.03791585,0.55966384\C,0,2.41161404,0.14320574,0.
 22460184\C,0,0.32484822,1.42292156,0.63689026\N,0,-0.88963975,1.523907
 71,0.16735956\H,0,-1.30245959,2.4441111,0.21282595\H,0,-1.79565229,0.6
 6642133,-1.51949328\H,0,-2.78564494,0.68349427,-0.06156129\H,0,-1.5241

 Normal termination of Gaussian 16 at Wed Apr  9 17:45:02 2025.
 Gaussian 16:  ES64L-G16RevC.01  3-Jul-2019

 ----------------------------------------------------------------------
 #t hf aug-cc-pvdz iop(5/13=1,5/36=2,99/5=2) pseudo=read geom=check gue
 ss=(read,tcheck) scf=(maxcycle=1)
 ----------------------------------------------------------------------
 -----
 title
 -----
 Structure from the checkpoint file:  "Grambow2020_wb97xd3_006806_reverse_mol2.chk"
 Charge =  0 Multiplicity = 1

                         Standard orientation:
 ---------------------------------------------------------------------
 Center     Atomic      Atomic             Coordinates (Angstroms)
 Number     Number       Type             X           Y           Z
 ---------------------------------------------------------------------
      1          6           0       -1.838635   -0.126607    0.271432
      2          6           0       -1.218497    1.148819   -0.261302
      3          6           0        0.236114    1.222223    0.177792
      4          6           0        1.005974    0.013884   -0.357539
      5          6           0        2.414450   -0.072295    0.224676
      6          6           0        0.325051   -1.330568   -0.237285
      7          7           0       -0.949487   -1.280132    0.043156
      8          1           0       -1.415944   -2.171605    0.126558
      9          1           0       -2.030602   -0.040963    1.345948
     10          1           0       -2.793379   -0.338276   -0.214731
     11          1           0       -1.272637    1.152273   -1.354562
     12          1           0       -1.793656    2.007028    0.091752
     13          1           0        0.698939    2.151568   -0.164339
     14          1           0        0.288221    1.232682    1.273030
     15          1           0        1.112729    0.128058   -1.447455
     16          1           0        2.968450    0.854489    0.055200
     17          1           0        2.374533   -0.246551    1.302989
     18          1           0        2.963018   -0.900522   -0.223129
 ---------------------------------------------------------------------

 SCF Done:  E(RHF) =  -288.343275780     A.U. after    2 cycles

 The electronic state is 1-A.
 Alpha  occ. eigenvalues --  -15.53580 -11.27540 -11.23747 -11.23472 -11.22733
 Alpha  occ. eigenvalues --  -11.22452 -11.21290  -1.25922  -1.08772  -1.04492
 Alpha  occ. eigenvalues --   -0.94237  -0.86589  -0.84483  -0.75897  -0.70134
 Alpha  occ. eigenvalues --   -0.65418  -0.62346  -0.61006  -0.58418  -0.57682
 Alpha  occ. eigenvalues --   -0.52977  -0.51434  -0.49503  -0.47870  -0.46650
 Alpha  occ. eigenvalues --   -0.45048  -0.32393
 Alpha virt. eigenvalues --    0.03153   0.03571   0.03880   0.04403   0.05422
 Alpha virt. eigenvalues --    0.05749   0.05942   0.06694   0.07517   0.09034
 Alpha virt. eigenvalues --    0.09729   0.11698   0.12001   0.12984   0.13148

 Mulliken charges:
               1
     1  C   -0.434768
     2  C   -0.213536
     3  C    0.053159
     4  C   -0.777466
     5  C   -0.121633
     6  C   -1.033729
     7  N    0.835041
     8  H    0.206037
     9  H    0.095769
    10  H    0.074063
    11  H    0.125522
    12  H    0.157086
    13  H    0.119753
    14  H    0.161219
    15  H    0.221571
    16  H    0.187563
    17  H    0.190753
    18  H    0.153594
 Sum of Mulliken charges =   0.00000

 Dipole moment (field-independent basis, Debye):
    X=             -2.4309    Y=              2.0621    Z=              0.4496  Tot=              3.2193

 Test job not archived.
 1\1\GINC-SE362\SP\RHF\Aug-CC-pVDZ\C6H11N1\OHZDE\09-Apr-2025\0\\#t hf a
 ug-cc-pvdz iop(5/13=1,5/36=2,99/5=2) pseudo=read geom=check guess=(rea
 d,tcheck) scf=(maxcycle=1)\\title\\0,1\C,0,-1.77437281,0.5107042,-0.43
 59483\C,0,-1.29626226,-0.88919314,-0.10916701\C,0,0.20588162,-0.972850
 82,-0.33422137\C,0,0.92606662,0.03791585,0.55966384\C,0,2.41161404,0.1
 4320574,0.22460184\C,0,0.32484822,1.42292156,0.63689026\N,0,-0.8896397
 5,1.52390771,0.16735956\H,0,-1.30245959,2.4441111,0.21282595\H,0,-1.79
 565229,0.66642133,-1.51949328\H,0,-2.78564494,0.68349427,-0.06156129\H

 Normal termination of Gaussian 16 at Wed Apr  9 17:45:08 2025.
