 Gaussian 16, Revision C.01,

 ----------------------------------------------------------------------
 #t hf aug-cc-pvdz symm=none int=(grid=ultrafine) guess=(read,tcheck) s
 table=(opt,rrhf)
 ----------------------------------------------------------------------
 -----
 title
 -----
 Symbolic Z-matrix:
 Charge =  0 Multiplicity = 1

 SCF Done:  E(RHF) =  -343.735353269     A.U. after   15 cycles
 Normal termination of Gaussian 16 at Wed Apr  9 04:04:53 2025.
 Gaussian 16:  ES64L-G16RevC.01  3-Jul-2019

 ----------------------------------------------------------------------
 #t hf aug-cc-pvdz iop(5/13=1,5/36=2,99/5=2) pseudo=read geom=check gue
 ss=(read,tcheck) scf=(maxcycle=1)
 ----------------------------------------------------------------------
 -----
 title
 -----
 Structure from the checkpoint file:  "Grambow2020_wb97xd3_009116_forward_mol2.chk"
 Charge =  0 Multiplicity = 1

                         Standard orientation:
 ---------------------------------------------------------------------
 Center     Atomic      Atomic             Coordinates (Angstroms)
 Number     Number       Type             X           Y           Z
 ---------------------------------------------------------------------
      1          6           0        1.637010   -1.218780   -0.035282
      2          6           0        0.956683    0.121513    0.020342
      3          8           0        1.592869    1.152516    0.060531
      4          6           0       -0.531674    0.214706   -0.012876
      5          8           0       -0.986381    1.519122   -0.090327
      6          6           0       -1.368686   -0.754038    0.784723
      7          6           0       -1.349156   -0.836947   -0.709059
      8          1           0        2.637328   -1.127311    0.381804
      9          1           0        1.084967   -2.000659    0.484227
     10          1           0        1.728459   -1.514100   -1.083500
     11          1           0       -0.191944    2.067703   -0.019572
     12          1           0       -2.235825   -0.303711    1.247817
     13          1           0       -0.885738   -1.528935    1.364902
     14          1           0       -0.846269   -1.670717   -1.181161
     15          1           0       -2.207942   -0.454098   -1.243245
 ---------------------------------------------------------------------

 SCF Done:  E(RHF) =  -344.090287518     A.U. after    2 cycles

 The electronic state is 1-A.
 Alpha  occ. eigenvalues --  -20.54931 -20.54685 -11.35181 -11.30718 -11.25659
 Alpha  occ. eigenvalues --  -11.25342 -11.25288  -1.49779  -1.45527  -1.16502
 Alpha  occ. eigenvalues --   -1.03106  -0.89489  -0.85208  -0.77299  -0.72258
 Alpha  occ. eigenvalues --   -0.68475  -0.64171  -0.62863  -0.62172  -0.59099
 Alpha  occ. eigenvalues --   -0.58068  -0.53727  -0.53678  -0.50287  -0.47886
 Alpha  occ. eigenvalues --   -0.42328  -0.39444
 Alpha virt. eigenvalues --    0.03181   0.03760   0.03871   0.04974   0.06090
 Alpha virt. eigenvalues --    0.06593   0.07305   0.07821   0.09803   0.11548
 Alpha virt. eigenvalues --    0.11909   0.13129   0.13775   0.14558   0.15081

 Mulliken charges:
               1
     1  C   -0.572501
     2  C    0.752776
     3  O   -1.434045
     4  C    1.966508
     5  O   -1.622489
     6  C    0.128870
     7  C    0.166907
     8  H    0.086975
     9  H    0.184561
    10  H    0.340516
    11  H    0.349606
    12  H   -0.065964
    13  H   -0.112084
    14  H   -0.126357
    15  H   -0.043280
 Sum of Mulliken charges =  -0.00000

 Dipole moment (field-independent basis, Debye):
    X=             -0.1237    Y=             -3.3370    Z=              0.0182  Tot=              3.3393

 Test job not archived.
 1\1\GINC-SE048\SP\RHF\Aug-CC-pVDZ\C5H8O2\OHZDE\09-Apr-2025\0\\#t hf au
 g-cc-pvdz iop(5/13=1,5/36=2,99/5=2) pseudo=read geom=check guess=(read
 ,tcheck) scf=(maxcycle=1)\\title\\0,1\C,0,1.52125078,0.2448789,-1.0752
 9558\C,0,1.01514779,-0.54625297,0.09956415\O,0,1.71762238,-1.3544002,0
 .66766609\C,0,-0.36404779,-0.32331489,0.62216679\O,0,-0.61944565,-1.03
 170201,1.78286497\C,0,-1.51591459,-0.14207515,-0.33468925\C,0,-1.02999
 112,1.01634057,0.4780779\H,0,2.33961185,-0.29760703,-1.54322455\H,0,0.
 74745083,0.46185507,-1.81023074\H,0,1.90853017,1.19784815,-0.70623834\

 Normal termination of Gaussian 16 at Wed Apr  9 04:04:59 2025.
