 Gaussian 16, Revision C.01,

 ----------------------------------------------------------------------
 #t hf aug-cc-pvdz symm=none int=(grid=ultrafine) guess=(read,tcheck) s
 table=(opt,rrhf)
 ----------------------------------------------------------------------
 -----
 title
 -----
 Symbolic Z-matrix:
 Charge =  0 Multiplicity = 1

 SCF Done:  E(RHF) =  -283.636320505     A.U. after   15 cycles
 Normal termination of Gaussian 16 at Wed Apr  9 15:43:38 2025.
 Gaussian 16:  ES64L-G16RevC.01  3-Jul-2019

 ----------------------------------------------------------------------
 #t hf aug-cc-pvdz iop(5/13=1,5/36=2,99/5=2) pseudo=read geom=check gue
 ss=(read,tcheck) scf=(maxcycle=1)
 ----------------------------------------------------------------------
 -----
 title
 -----
 Structure from the checkpoint file:  "Grambow2020_b97d3_006722_reverse_mol2.chk"
 Charge =  0 Multiplicity = 1

                         Standard orientation:
 ---------------------------------------------------------------------
 Center     Atomic      Atomic             Coordinates (Angstroms)
 Number     Number       Type             X           Y           Z
 ---------------------------------------------------------------------
      1          6           0        0.472276    1.142455   -0.034434
      2          6           0        1.547778    0.094419    0.169244
      3          8           0        1.425589   -1.092533   -0.077974
      4          6           0       -1.244477   -0.795407   -0.293963
      5          7           0       -1.669781   -0.160558    0.715812
      6          6           0       -0.901663    0.610632   -0.391601
      7          1           0        0.429113    1.770204    0.874029
      8          1           0        0.846075    1.815502   -0.827573
      9          1           0        2.512698    0.497731    0.565485
     10          1           0       -1.230003   -1.807962   -0.690931
     11          1           0       -1.517602    1.276096   -1.003383
 ---------------------------------------------------------------------

 SCF Done:  E(RHF) =  -283.923304677     A.U. after    2 cycles

 The electronic state is 1-A.
 Alpha  occ. eigenvalues --  -20.55881 -15.52737 -11.35867 -11.30565 -11.29149
 Alpha  occ. eigenvalues --  -11.26692  -1.48177  -1.30588  -1.05574  -0.88452
 Alpha  occ. eigenvalues --   -0.80762  -0.78841  -0.70768  -0.66926  -0.64282
 Alpha  occ. eigenvalues --   -0.62285  -0.60046  -0.55611  -0.51107  -0.46402
 Alpha  occ. eigenvalues --   -0.42459  -0.41653
 Alpha virt. eigenvalues --    0.03140   0.03829   0.04477   0.04960   0.06035
 Alpha virt. eigenvalues --    0.08933   0.09291   0.10089   0.10699   0.12894
 Alpha virt. eigenvalues --    0.13447   0.13828   0.14357   0.14972   0.15265

 Mulliken charges:
               1
     1  C   -0.848720
     2  C    1.075682
     3  O   -1.149115
     4  C   -0.302463
     5  N    0.463254
     6  C    0.299400
     7  H    0.268078
     8  H    0.296883
     9  H    0.117188
    10  H   -0.076798
    11  H   -0.143387
 Sum of Mulliken charges =  -0.00000

 Dipole moment (field-independent basis, Debye):
    X=              1.3681    Y=              2.0912    Z=             -2.0918  Tot=              3.2589

 Test job not archived.
 1\1\GINC-SE173\SP\RHF\Aug-CC-pVDZ\C4H5N1O1\OHZDE\09-Apr-2025\0\\#t hf
 aug-cc-pvdz iop(5/13=1,5/36=2,99/5=2) pseudo=read geom=check guess=(re
 ad,tcheck) scf=(maxcycle=1)\\title\\0,1\C,0,-0.92873913,-0.09809884,-0
 .05422329\C,0,-0.37608596,-0.28765138,-1.45251263\O,0,0.79800356,-0.46
 926799,-1.72349491\C,0,1.51150101,0.28259193,0.7644392\N,0,0.93488111,
 1.37470791,1.04435786\C,0,0.10511087,0.06223621,1.04284546\H,0,-1.6214
 0071,0.76276821,-0.07331018\H,0,-1.57120991,-0.97560126,0.14328294\H,0
 ,-1.15029891,-0.2646121,-2.25923519\H,0,2.49693653,-0.08856048,0.49199

 Normal termination of Gaussian 16 at Wed Apr  9 15:43:41 2025.
