 Gaussian 16, Revision C.01,

 ----------------------------------------------------------------------
 #t hf aug-cc-pvdz symm=none int=(grid=ultrafine) guess=(read,tcheck) s
 table=(opt,rrhf)
 ----------------------------------------------------------------------
 -----
 title
 -----
 Symbolic Z-matrix:
 Charge =  0 Multiplicity = 1

 SCF Done:  E(RHF) =  -340.582350249     A.U. after   13 cycles
 Normal termination of Gaussian 16 at Wed Apr  9 03:20:24 2025.
 Gaussian 16:  ES64L-G16RevC.01  3-Jul-2019

 ----------------------------------------------------------------------
 #t hf aug-cc-pvdz iop(5/13=1,5/36=2,99/5=2) pseudo=read geom=check gue
 ss=(read,tcheck) scf=(maxcycle=1)
 ----------------------------------------------------------------------
 -----
 title
 -----
 Structure from the checkpoint file:  "Grambow2020_wb97xd3_006042_forward_mol2.chk"
 Charge =  0 Multiplicity = 1

                         Standard orientation:
 ---------------------------------------------------------------------
 Center     Atomic      Atomic             Coordinates (Angstroms)
 Number     Number       Type             X           Y           Z
 ---------------------------------------------------------------------
      1          8           0       -2.028989   -0.000131    0.000203
      2          6           0       -0.845187   -0.000099   -0.000058
      3          8           0       -0.073387   -1.103513    0.093571
      4          6           0        1.292125   -0.755823   -0.103460
      5          6           0        1.291642    0.756167    0.103385
      6          8           0       -0.073638    1.103544   -0.093992
      7          1           0        1.900626   -1.293560    0.620967
      8          1           0        1.587902   -1.042918   -1.114526
      9          1           0        1.587100    1.040565    1.115389
     10          1           0        1.901000    1.295249   -0.619284
 ---------------------------------------------------------------------

 SCF Done:  E(RHF) =  -340.919736146     A.U. after    2 cycles

 The electronic state is 1-A.
 Alpha  occ. eigenvalues --  -20.61279 -20.61276 -20.53538 -11.44373 -11.33225
 Alpha  occ. eigenvalues --  -11.33216  -1.61607  -1.49651  -1.48052  -1.06621
 Alpha  occ. eigenvalues --   -0.92397  -0.84994  -0.75943  -0.73731  -0.70313
 Alpha  occ. eigenvalues --   -0.64303  -0.63584  -0.62359  -0.56567  -0.55381
 Alpha  occ. eigenvalues --   -0.47936  -0.47185  -0.46341
 Alpha virt. eigenvalues --    0.02523   0.03656   0.03943   0.05881   0.07487
 Alpha virt. eigenvalues --    0.10481   0.10882   0.11339   0.11740   0.13746
 Alpha virt. eigenvalues --    0.14285   0.14534   0.15443   0.17003   0.18244

 Mulliken charges:
               1
     1  O   -1.173652
     2  C    2.317660
     3  O   -1.171374
     4  C    0.435265
     5  C    0.434478
     6  O   -1.171246
     7  H    0.092687
     8  H    0.071346
     9  H    0.072203
    10  H    0.092632
 Sum of Mulliken charges =  -0.00000

 Dipole moment (field-independent basis, Debye):
    X=              5.7342    Y=              0.0001    Z=              0.0002  Tot=              5.7342

 Test job not archived.
 1\1\GINC-SE229\SP\RHF\Aug-CC-pVDZ\C3H4O3\OHZDE\09-Apr-2025\0\\#t hf au
 g-cc-pvdz iop(5/13=1,5/36=2,99/5=2) pseudo=read geom=check guess=(read
 ,tcheck) scf=(maxcycle=1)\\title\\0,1\O,0,2.67843961,0.04987687,-0.146
 52378\C,0,1.49659489,0.02788035,-0.08213924\O,0,0.7125512,1.1135938,0.
 08657611\C,0,-0.65566116,0.7464875,-0.04594007\C,0,-0.61816328,-0.7706
 0282,0.11509041\O,0,0.73984541,-1.08669971,-0.1668868\H,0,-1.23231845,
 1.25157124,0.72644953\H,0,-1.01155255,1.05728538,-1.03027084\H,0,-0.85
 25168,-1.08970645,1.13272502\H,0,-1.25721887,-1.29968617,-0.58908035\\

 Normal termination of Gaussian 16 at Wed Apr  9 03:20:28 2025.
