 Gaussian 16, Revision C.01,

 ----------------------------------------------------------------------
 #t hf aug-cc-pvdz symm=none int=(grid=ultrafine) guess=(read,tcheck) s
 table=(opt,rrhf)
 ----------------------------------------------------------------------
 -----
 title
 -----
 Symbolic Z-matrix:
 Charge =  0 Multiplicity = 1

 SCF Done:  E(RHF) =  -308.877619888     A.U. after   14 cycles

 1\1\GINC-SE113\Stability\RHF\Aug-CC-pVDZ\C6H12O1\OHZDE\09-Apr-2025\0\\
 #t hf aug-cc-pvdz symm=none int=(grid=ultrafine) guess=(read,tcheck) s
 table=(opt,rrhf)\\title\\0,1\C,0,-0.65518219,-1.71287874,-0.94574383\C
 ,0,-0.4787044,-0.3043333,-0.79108241\C,0,-1.20127682,0.47389828,1.0012
 2247\C,0,-0.55282864,1.78399913,0.67778633\O,0,0.74736949,1.55894376,0
 .13547829\C,0,0.87004567,0.34434453,-0.5713752\C,0,1.89307751,-0.54574
 716,0.10917723\H,0,-1.06765623,-0.86833264,0.18604918\H,0,-1.51052366,
 -2.08346289,-1.48818268\H,0,0.09609213,-2.40370059,-0.59814105\H,0,-1.

 Normal termination of Gaussian 16 at Wed Apr  9 17:36:09 2025.
 Gaussian 16:  ES64L-G16RevC.01  3-Jul-2019

 ----------------------------------------------------------------------
 #t hf aug-cc-pvdz iop(5/13=1,5/36=2,99/5=2) pseudo=read geom=check gue
 ss=(read,tcheck) scf=(maxcycle=1)
 ----------------------------------------------------------------------
 -----
 title
 -----
 Structure from the checkpoint file:  "Grambow2020_wb97xd3_006734_reverse_mol1.chk"
 Charge =  0 Multiplicity = 1

                         Standard orientation:
 ---------------------------------------------------------------------
 Center     Atomic      Atomic             Coordinates (Angstroms)
 Number     Number       Type             X           Y           Z
 ---------------------------------------------------------------------
      1          6           0        1.943101   -1.123124   -0.095277
      2          6           0        0.662957   -0.659325   -0.525611
      3          6           0       -0.921094   -1.190697    0.718791
      4          6           0       -1.822356   -0.289460   -0.066677
      5          8           0       -1.146717    0.931855   -0.361916
      6          6           0        0.251615    0.795883   -0.488884
      7          6           0        0.947506    1.619827    0.578290
      8          1           0        0.638184   -1.343159    0.547470
      9          1           0        2.338064   -2.041102   -0.500866
     10          1           0        2.551351   -0.527026    0.565915
     11          1           0        0.221656   -1.219723   -1.344077
     12          1           0       -0.808817   -0.896176    1.765000
     13          1           0       -1.151672   -2.251475    0.622031
     14          1           0       -2.732489    0.001062    0.462962
     15          1           0       -2.131195   -0.780638   -0.999587
     16          1           0        0.539113    1.180504   -1.477735
     17          1           0        0.792008    1.190036    1.570173
     18          1           0        2.018981    1.688814    0.386086
     19          1           0        0.528183    2.625416    0.574169
 ---------------------------------------------------------------------

 SCF Done:  E(RHF) =  -309.211837707     A.U. after    2 cycles

 The electronic state is 1-A.
 Alpha  occ. eigenvalues --  -20.54107 -11.31879 -11.30012 -11.28529 -11.22775
 Alpha  occ. eigenvalues --  -11.22439 -11.20790  -1.46614  -1.12024  -1.04116
 Alpha  occ. eigenvalues --   -0.97524  -0.89257  -0.83144  -0.76640  -0.70416
 Alpha  occ. eigenvalues --   -0.66845  -0.64846  -0.64244  -0.58739  -0.56821
 Alpha  occ. eigenvalues --   -0.56191  -0.54298  -0.53131  -0.51262  -0.50718
 Alpha  occ. eigenvalues --   -0.47487  -0.41315  -0.25969
 Alpha virt. eigenvalues --    0.03275   0.03744   0.03927   0.04100   0.05974
 Alpha virt. eigenvalues --    0.06038   0.06158   0.06377   0.07271   0.09147
 Alpha virt. eigenvalues --    0.09698   0.09740   0.12134   0.13117   0.13702

 Mulliken charges:
               1
     1  C   -0.252337
     2  C   -0.332482
     3  C   -0.684374
     4  C    0.513543
     5  O   -1.578867
     6  C    1.397578
     7  C   -0.371886
     8  H    0.824593
     9  H   -0.141198
    10  H   -0.137723
    11  H   -0.115411
    12  H    0.024895
    13  H    0.048024
    14  H   -0.000196
    15  H    0.112446
    16  H    0.127464
    17  H    0.217675
    18  H    0.247480
    19  H    0.100776
 Sum of Mulliken charges =   0.00000

 Dipole moment (field-independent basis, Debye):
    X=             -0.1606    Y=             -0.7633    Z=             -0.1883  Tot=              0.8024

 Test job not archived.
 1\1\GINC-SE113\SP\RHF\Aug-CC-pVDZ\C6H12O1\OHZDE\09-Apr-2025\0\\#t hf a
 ug-cc-pvdz iop(5/13=1,5/36=2,99/5=2) pseudo=read geom=check guess=(rea
 d,tcheck) scf=(maxcycle=1)\\title\\0,1\C,0,-0.65518219,-1.71287874,-0.
 94574383\C,0,-0.4787044,-0.3043333,-0.79108241\C,0,-1.20127682,0.47389
 828,1.00122247\C,0,-0.55282864,1.78399913,0.67778633\O,0,0.74736949,1.
 55894376,0.13547829\C,0,0.87004567,0.34434453,-0.5713752\C,0,1.8930775
 1,-0.54574716,0.10917723\H,0,-1.06765623,-0.86833264,0.18604918\H,0,-1
 .51052366,-2.08346289,-1.48818268\H,0,0.09609213,-2.40370059,-0.598141

 Normal termination of Gaussian 16 at Wed Apr  9 17:36:17 2025.
