 Gaussian 16, Revision C.01,

 ----------------------------------------------------------------------
 #t hf aug-cc-pvdz symm=none int=(grid=ultrafine) guess=(read,tcheck) s
 table=(opt,rrhf)
 ----------------------------------------------------------------------
 -----
 title
 -----
 Symbolic Z-matrix:
 Charge =  0 Multiplicity = 1

 SCF Done:  E(RHF) =  -308.890139608     A.U. after   14 cycles

 1\1\GINC-SE115\Stability\RHF\Aug-CC-pVDZ\C6H12O1\OHZDE\09-Apr-2025\0\\
 #t hf aug-cc-pvdz symm=none int=(grid=ultrafine) guess=(read,tcheck) s
 table=(opt,rrhf)\\title\\0,1\C,0,-1.10894917,-0.91808856,-0.87361726\C
 ,0,-0.78294036,-0.0233734,0.29757449\C,0,-1.90430241,0.86838382,0.7753
 306\C,0,0.1646707,-0.40904782,1.22083851\O,0,1.09935578,-1.41758448,0.
 98861186\C,0,1.92849774,-0.32910432,0.7350668\C,0,2.21122077,0.1164953
 5,-0.52883653\H,0,-1.56562209,-0.35161827,-1.68682206\H,0,-0.22385074,
 -1.42471218,-1.25406393\H,0,-1.81904451,-1.69049837,-0.56321479\H,0,0.

 Normal termination of Gaussian 16 at Wed Apr  9 18:33:54 2025.
 Gaussian 16:  ES64L-G16RevC.01  3-Jul-2019

 ----------------------------------------------------------------------
 #t hf aug-cc-pvdz iop(5/13=1,5/36=2,99/5=2) pseudo=read geom=check gue
 ss=(read,tcheck) scf=(maxcycle=1)
 ----------------------------------------------------------------------
 -----
 title
 -----
 Structure from the checkpoint file:  "Grambow2020_wb97xd3_007706_forward_mol1.chk"
 Charge =  0 Multiplicity = 1

                         Standard orientation:
 ---------------------------------------------------------------------
 Center     Atomic      Atomic             Coordinates (Angstroms)
 Number     Number       Type             X           Y           Z
 ---------------------------------------------------------------------
      1          6           0       -1.171409    1.301099   -0.678338
      2          6           0       -0.987342   -0.005232    0.055218
      3          6           0       -2.235446   -0.597892    0.665075
      4          6           0        0.016277   -0.873067   -0.317260
      5          8           0        1.100731   -0.500129   -1.110725
      6          6           0        1.740549   -0.441913    0.123696
      7          6           0        1.938986    0.727769    0.808100
      8          1           0       -1.719239    2.021383   -0.068572
      9          1           0       -0.218308    1.740415   -0.967140
     10          1           0       -1.744692    1.133473   -1.595099
     11          1           0       -0.289694    0.680838    1.313848
     12          1           0       -2.985313   -0.788124   -0.109217
     13          1           0       -2.682981    0.084986    1.389251
     14          1           0       -2.029207   -1.540180    1.173971
     15          1           0       -0.064817   -1.938790   -0.124605
     16          1           0        2.180077   -1.378023    0.452931
     17          1           0        2.593132    0.708656    1.669759
     18          1           0        0.513922    0.934267    1.512535
     19          1           0        1.831580    1.677540    0.299193
 ---------------------------------------------------------------------

 SCF Done:  E(RHF) =  -309.221855750     A.U. after    2 cycles

 The electronic state is 1-A.
 Alpha  occ. eigenvalues --  -20.57415 -11.30123 -11.28994 -11.25641 -11.23886
 Alpha  occ. eigenvalues --  -11.23641 -11.23020  -1.51209  -1.09733  -1.02920
 Alpha  occ. eigenvalues --   -0.94908  -0.92327  -0.81424  -0.75766  -0.69094
 Alpha  occ. eigenvalues --   -0.67013  -0.65504  -0.62425  -0.60727  -0.56780
 Alpha  occ. eigenvalues --   -0.55624  -0.54679  -0.54188  -0.52743  -0.50734
 Alpha  occ. eigenvalues --   -0.45897  -0.34892  -0.32055
 Alpha virt. eigenvalues --    0.03455   0.03574   0.03837   0.04358   0.05787
 Alpha virt. eigenvalues --    0.05920   0.06682   0.06884   0.07832   0.09206
 Alpha virt. eigenvalues --    0.09801   0.10734   0.11859   0.12781   0.13137

 Mulliken charges:
               1
     1  C   -0.268421
     2  C   -1.048760
     3  C   -0.219612
     4  C    1.230447
     5  O   -1.666915
     6  C    0.657028
     7  C   -0.415322
     8  H    0.200522
     9  H    0.103211
    10  H    0.199326
    11  H    0.564047
    12  H    0.235688
    13  H    0.160550
    14  H    0.128089
    15  H   -0.069199
    16  H    0.020243
    17  H   -0.036790
    18  H    0.151266
    19  H    0.074603
 Sum of Mulliken charges =  -0.00000

 Dipole moment (field-independent basis, Debye):
    X=             -0.7891    Y=             -0.3225    Z=              1.0412  Tot=              1.3456

 Test job not archived.
 1\1\GINC-SE115\SP\RHF\Aug-CC-pVDZ\C6H12O1\OHZDE\09-Apr-2025\0\\#t hf a
 ug-cc-pvdz iop(5/13=1,5/36=2,99/5=2) pseudo=read geom=check guess=(rea
 d,tcheck) scf=(maxcycle=1)\\title\\0,1\C,0,-1.10894917,-0.91808856,-0.
 87361726\C,0,-0.78294036,-0.0233734,0.29757449\C,0,-1.90430241,0.86838
 382,0.7753306\C,0,0.1646707,-0.40904782,1.22083851\O,0,1.09935578,-1.4
 1758448,0.98861186\C,0,1.92849774,-0.32910432,0.7350668\C,0,2.21122077
 ,0.11649535,-0.52883653\H,0,-1.56562209,-0.35161827,-1.68682206\H,0,-0
 .22385074,-1.42471218,-1.25406393\H,0,-1.81904451,-1.69049837,-0.56321

 Normal termination of Gaussian 16 at Wed Apr  9 18:34:02 2025.
