 Gaussian 16, Revision C.01,

 ----------------------------------------------------------------------
 #t hf aug-cc-pvdz symm=none int=(grid=ultrafine) guess=(read,tcheck) s
 table=(opt,rrhf)
 ----------------------------------------------------------------------
 -----
 title
 -----
 Symbolic Z-matrix:
 Charge =  0 Multiplicity = 1

 SCF Done:  E(RHF) =  -359.690144767     A.U. after   15 cycles
 Normal termination of Gaussian 16 at Wed Apr  9 19:17:59 2025.
 Gaussian 16:  ES64L-G16RevC.01  3-Jul-2019

 ----------------------------------------------------------------------
 #t hf aug-cc-pvdz iop(5/13=1,5/36=2,99/5=2) pseudo=read geom=check gue
 ss=(read,tcheck) scf=(maxcycle=1)
 ----------------------------------------------------------------------
 -----
 title
 -----
 Structure from the checkpoint file:  "Grambow2020_wb97xd3_009256_reverse_mol1.chk"
 Charge =  0 Multiplicity = 1

                         Standard orientation:
 ---------------------------------------------------------------------
 Center     Atomic      Atomic             Coordinates (Angstroms)
 Number     Number       Type             X           Y           Z
 ---------------------------------------------------------------------
      1          6           0       -0.315365    1.937499    0.131790
      2          6           0       -0.109810    0.524371    0.594026
      3          6           0       -1.369612   -0.816327   -0.107722
      4          8           0       -2.396994   -0.439732   -0.478568
      5          6           0        0.986383   -0.265035    0.188677
      6          8           0        0.906456   -1.534143    0.396286
      7          7           0        1.970452    0.180391   -0.622835
      8          1           0       -0.023166    2.061497   -0.913949
      9          1           0       -1.375302    2.195110    0.194433
     10          1           0        0.233050    2.673213    0.728038
     11          1           0       -0.448445    0.297362    1.600843
     12          1           0       -0.241290   -1.657051    0.187542
     13          1           0        2.187437    1.157925   -0.669234
     14          1           0        2.649278   -0.482843   -0.950209
 ---------------------------------------------------------------------

 SCF Done:  E(RHF) =  -360.053701468     A.U. after    2 cycles

 The electronic state is 1-A.
 Alpha  occ. eigenvalues --  -20.58688 -20.55533 -15.54514 -11.37089 -11.34727
 Alpha  occ. eigenvalues --  -11.23711 -11.23018  -1.53454  -1.49929  -1.24645
 Alpha  occ. eigenvalues --   -1.06094  -0.92735  -0.86081  -0.78155  -0.76921
 Alpha  occ. eigenvalues --   -0.70908  -0.68969  -0.63552  -0.62732  -0.58709
 Alpha  occ. eigenvalues --   -0.57016  -0.56623  -0.54244  -0.52576  -0.48507
 Alpha  occ. eigenvalues --   -0.47388  -0.30780
 Alpha virt. eigenvalues --    0.02513   0.04127   0.04669   0.05295   0.06204
 Alpha virt. eigenvalues --    0.06622   0.07689   0.09280   0.09425   0.11790
 Alpha virt. eigenvalues --    0.12565   0.13066   0.13937   0.14565   0.15434

 Mulliken charges:
               1
     1  C   -0.324292
     2  C   -0.597442
     3  C    0.629329
     4  O   -0.917903
     5  C    0.462589
     6  O   -1.628878
     7  N    0.752963
     8  H    0.207672
     9  H    0.085220
    10  H    0.198403
    11  H    0.106711
    12  H    0.788597
    13  H    0.111667
    14  H    0.125363
 Sum of Mulliken charges =  -0.00000

 Dipole moment (field-independent basis, Debye):
    X=              2.8283    Y=              2.0081    Z=             -0.2388  Tot=              3.4768

 Test job not archived.
 1\1\GINC-SE113\SP\RHF\Aug-CC-pVDZ\C4H7N1O2\OHZDE\09-Apr-2025\0\\#t hf
 aug-cc-pvdz iop(5/13=1,5/36=2,99/5=2) pseudo=read geom=check guess=(re
 ad,tcheck) scf=(maxcycle=1)\\title\\0,1\C,0,-0.87148493,-1.34006523,0.
 17390761\C,0,-0.51641631,-0.00953912,-0.42314644\C,0,-1.03114057,1.580
 50186,0.6179355\O,0,-1.89396074,1.46403998,1.37743571\C,0,0.81002198,0
 .45967781,-0.52064385\O,0,0.97412504,1.71418364,-0.76438513\N,0,1.8870
 1213,-0.25100073,-0.1201722\H,0,-0.23866575,-1.57286265,1.03394908\H,0
 ,-1.90116448,-1.31722935,0.53858721\H,0,-0.79755728,-2.16846434,-0.537

 Normal termination of Gaussian 16 at Wed Apr  9 19:18:04 2025.
