 Gaussian 16, Revision C.01,

 ----------------------------------------------------------------------
 #t hf aug-cc-pvdz symm=none int=(grid=ultrafine) guess=(read,tcheck) s
 table=(opt,rrhf)
 ----------------------------------------------------------------------
 -----
 title
 -----
 Symbolic Z-matrix:
 Charge =  0 Multiplicity = 1

 SCF Done:  E(RHF) =  -316.480006139     A.U. after   16 cycles
 Normal termination of Gaussian 16 at Wed Apr  9 18:16:58 2025.
 Gaussian 16:  ES64L-G16RevC.01  3-Jul-2019

 ----------------------------------------------------------------------
 #t hf aug-cc-pvdz iop(5/13=1,5/36=2,99/5=2) pseudo=read geom=check gue
 ss=(read,tcheck) scf=(maxcycle=1)
 ----------------------------------------------------------------------
 -----
 title
 -----
 Structure from the checkpoint file:  "Grambow2020_wb97xd3_007274_reverse_mol1.chk"
 Charge =  0 Multiplicity = 1

                         Standard orientation:
 ---------------------------------------------------------------------
 Center     Atomic      Atomic             Coordinates (Angstroms)
 Number     Number       Type             X           Y           Z
 ---------------------------------------------------------------------
      1          7           0       -2.867858   -0.022733    0.012230
      2          6           0       -1.722964   -0.079394    0.000751
      3          6           0       -0.287611   -0.088356   -0.009660
      4          7           0        0.445708   -1.152476   -0.010287
      5          6           0        1.742095   -0.631623   -0.031614
      6          6           0        1.791465    0.801117   -0.093825
      7          7           0        0.441781    1.066500   -0.008356
      8          1           0        2.591810   -1.286990   -0.163314
      9          1           0        2.081683    0.044502    0.987379
     10          1           0        0.051177    1.992977    0.026911
 ---------------------------------------------------------------------

 SCF Done:  E(RHF) =  -316.793346239     A.U. after    2 cycles

 The electronic state is 1-A.
 Alpha  occ. eigenvalues --  -15.59441 -15.56088 -15.54485 -11.39121 -11.32346
 Alpha  occ. eigenvalues --  -11.32006 -11.29160  -1.39912  -1.27725  -1.23063
 Alpha  occ. eigenvalues --   -1.10788  -0.94453  -0.88923  -0.85219  -0.73635
 Alpha  occ. eigenvalues --   -0.69640  -0.65229  -0.64079  -0.57168  -0.55958
 Alpha  occ. eigenvalues --   -0.54947  -0.50380  -0.45927  -0.41501
 Alpha virt. eigenvalues --    0.02600   0.03382   0.03984   0.05254   0.06935
 Alpha virt. eigenvalues --    0.08192   0.08622   0.10141   0.10243   0.11055
 Alpha virt. eigenvalues --    0.11799   0.13498   0.14130   0.14368   0.14919

 Mulliken charges:
               1
     1  N    1.173538
     2  C   -2.033146
     3  C   -0.205129
     4  N    0.747786
     5  C   -0.164282
     6  C   -0.699969
     7  N    0.657847
     8  H   -0.034804
     9  H    0.503877
    10  H    0.054281
 Sum of Mulliken charges =  -0.00000

 Dipole moment (field-independent basis, Debye):
    X=              2.3561    Y=              0.9741    Z=              0.7176  Tot=              2.6486

 Test job not archived.
 1\1\GINC-SE220\SP\RHF\Aug-CC-pVDZ\C4H3N3\OHZDE\09-Apr-2025\0\\#t hf au
 g-cc-pvdz iop(5/13=1,5/36=2,99/5=2) pseudo=read geom=check guess=(read
 ,tcheck) scf=(maxcycle=1)\\title\\0,1\N,0,3.25111665,-0.53574412,-0.06
 671936\C,0,2.11042632,-0.43718559,-0.00983149\C,0,0.68850871,-0.252190
 04,0.05616955\N,0,-0.18032265,-1.20746048,0.10812489\C,0,-1.39310216,-
 0.51614376,0.16820414\C,0,-1.24715799,0.91097161,0.20126212\N,0,0.1212
 5884,0.99036,0.05803669\H,0,-2.31692924,-1.04861791,0.34675365\H,0,-1.
 68054057,0.18298478,-0.85131021\H,0,0.63087209,1.85495153,-0.01231798\

 Normal termination of Gaussian 16 at Wed Apr  9 18:17:02 2025.
