 Gaussian 16, Revision C.01,

 ----------------------------------------------------------------------
 #t hf aug-cc-pvdz symm=none int=(grid=ultrafine) guess=(read,tcheck) s
 table=(opt,rrhf)
 ----------------------------------------------------------------------
 -----
 title
 -----
 Symbolic Z-matrix:
 Charge =  0 Multiplicity = 1

 SCF Done:  E(RHF) =  -318.788181260     A.U. after   15 cycles
 Normal termination of Gaussian 16 at Wed Apr  9 18:00:05 2025.
 Gaussian 16:  ES64L-G16RevC.01  3-Jul-2019

 ----------------------------------------------------------------------
 #t hf aug-cc-pvdz iop(5/13=1,5/36=2,99/5=2) pseudo=read geom=check gue
 ss=(read,tcheck) scf=(maxcycle=1)
 ----------------------------------------------------------------------
 -----
 title
 -----
 Structure from the checkpoint file:  "Grambow2020_wb97xd3_006920_forward_mol1.chk"
 Charge =  0 Multiplicity = 1

                         Standard orientation:
 ---------------------------------------------------------------------
 Center     Atomic      Atomic             Coordinates (Angstroms)
 Number     Number       Type             X           Y           Z
 ---------------------------------------------------------------------
      1          7           0        2.417599   -0.363001   -0.031690
      2          6           0        1.069911   -0.127008    0.029510
      3          6           0        0.057777   -1.065294    0.210227
      4          6           0       -1.128992   -0.315054    0.101687
      5          7           0       -2.401188   -0.417583   -0.239557
      6          6           0       -0.841787    1.110504    0.096280
      7          7           0        0.595733    1.130792   -0.119399
      8          1           0        2.688187   -1.326776   -0.117730
      9          1           0        2.957996    0.260642   -0.606182
     10          1           0        0.191733   -2.134857    0.165992
     11          1           0       -2.192913    0.882234   -0.456926
     12          1           0       -2.946965   -1.241690   -0.020260
     13          1           0       -1.094313    1.561021    1.060494
     14          1           0        1.169817    1.929088    0.082903
 ---------------------------------------------------------------------

 SCF Done:  E(RHF) =  -319.120079217     A.U. after    2 cycles

 The electronic state is 1-A.
 Alpha  occ. eigenvalues --  -15.54045 -15.52347 -15.47057 -11.34496 -11.28180
 Alpha  occ. eigenvalues --  -11.21413 -11.21062  -1.30913  -1.22484  -1.18765
 Alpha  occ. eigenvalues --   -1.03668  -0.95321  -0.83672  -0.79892  -0.78301
 Alpha  occ. eigenvalues --   -0.73096  -0.68249  -0.64927  -0.61556  -0.59674
 Alpha  occ. eigenvalues --   -0.57176  -0.50613  -0.48441  -0.45489  -0.33313
 Alpha  occ. eigenvalues --   -0.32156
 Alpha virt. eigenvalues --    0.02280   0.04191   0.04414   0.05297   0.05992
 Alpha virt. eigenvalues --    0.07204   0.08082   0.10000   0.10783   0.11366
 Alpha virt. eigenvalues --    0.12165   0.13120   0.14009   0.14258   0.15018

 Mulliken charges:
               1
     1  N    0.736745
     2  C   -1.874583
     3  C    1.236910
     4  C   -1.762384
     5  N    0.777067
     6  C   -0.476099
     7  N    0.704960
     8  H    0.211061
     9  H    0.007733
    10  H   -0.207113
    11  H    0.570060
    12  H   -0.017800
    13  H    0.083368
    14  H    0.010075
 Sum of Mulliken charges =   0.00000

 Dipole moment (field-independent basis, Debye):
    X=              4.2921    Y=             -0.9516    Z=              0.2915  Tot=              4.4060

 Test job not archived.
 1\1\GINC-SE029\SP\RHF\Aug-CC-pVDZ\C4H7N3\OHZDE\09-Apr-2025\0\\#t hf au
 g-cc-pvdz iop(5/13=1,5/36=2,99/5=2) pseudo=read geom=check guess=(read
 ,tcheck) scf=(maxcycle=1)\\title\\0,1\N,0,-2.38699667,-0.27739795,-0.0
 8112085\C,0,-1.03190353,-0.07922083,-0.06885387\C,0,-0.03990235,-1.026
 15143,-0.30699148\C,0,1.16205612,-0.32855877,-0.07957332\N,0,2.4164524
 6,-0.50507934,0.2956251\C,0,0.91460444,1.09760911,0.06023073\N,0,-0.52
 918732,1.14160295,0.22431387\H,0,-2.68745777,-1.23589071,-0.10340673\H
 ,0,-2.9320976,0.30213378,0.53370363\H,0,-0.20518228,-2.08996698,-0.376

 Normal termination of Gaussian 16 at Wed Apr  9 18:00:10 2025.
