 Gaussian 16, Revision C.01,

 ----------------------------------------------------------------------
 #t hf aug-cc-pvdz symm=none int=(grid=ultrafine) guess=(read,tcheck) s
 table=(opt,rrhf)
 ----------------------------------------------------------------------
 -----
 title
 -----
 Symbolic Z-matrix:
 Charge =  0 Multiplicity = 1

 SCF Done:  E(RHF) =  -306.837742168     A.U. after   14 cycles

 1\1\GINC-SE058\Stability\RHF\Aug-CC-pVDZ\C4H10O2\OHZDE\09-Apr-2025\0\\
 #t hf aug-cc-pvdz symm=none int=(grid=ultrafine) guess=(read,tcheck) s
 table=(opt,rrhf)\\title\\0,1\C,0,2.42726793,-0.56565978,-0.53066546\O,
 0,1.28179271,-0.17965069,0.21834822\C,0,0.13580813,0.03521238,-0.58621
 374\C,0,-1.07041169,0.08125991,0.32858184\C,0,-2.34291637,0.4389909,-0
 .21008552\O,0,-0.99732073,-0.72946347,1.39567314\H,0,2.25181855,-1.501
 502,-1.09069048\H,0,2.72333175,0.22326956,-1.2425257\H,0,3.23651506,-0
 .71985904,0.19177027\H,0,-0.03807375,-0.83191992,-1.25813683\H,0,0.207

 Normal termination of Gaussian 16 at Wed Apr  9 03:08:00 2025.
 Gaussian 16:  ES64L-G16RevC.01  3-Jul-2019

 ----------------------------------------------------------------------
 #t hf aug-cc-pvdz iop(5/13=1,5/36=2,99/5=2) pseudo=read geom=check gue
 ss=(read,tcheck) scf=(maxcycle=1)
 ----------------------------------------------------------------------
 -----
 title
 -----
 Structure from the checkpoint file:  "Grambow2020_b97d3_006569_reverse_mol1.chk"
 Charge =  0 Multiplicity = 1

                         Standard orientation:
 ---------------------------------------------------------------------
 Center     Atomic      Atomic             Coordinates (Angstroms)
 Number     Number       Type             X           Y           Z
 ---------------------------------------------------------------------
      1          6           0       -2.580321   -0.142532   -0.119151
      2          8           0       -1.277190    0.262596    0.280672
      3          6           0       -0.268992   -0.663501   -0.083537
      4          6           0        1.070411    0.027921    0.064359
      5          6           0        2.269522   -0.730018   -0.093952
      6          8           0        1.061332    1.338083   -0.226663
      7          1           0       -2.648749   -0.273000   -1.213914
      8          1           0       -2.872156   -1.087494    0.369406
      9          1           0       -3.265884    0.651795    0.196475
     10          1           0       -0.347925   -0.923643   -1.160444
     11          1           0       -0.305644   -1.588409    0.508108
     12          1           0        0.940416    0.161486    1.801471
     13          1           0        3.185579   -0.169566   -0.263693
     14          1           0        2.187382   -1.733138   -0.510664
     15          1           0        1.759655   -0.448037    1.239593
     16          1           0        0.150471    1.653358   -0.004728
 ---------------------------------------------------------------------

 SCF Done:  E(RHF) =  -307.161503256     A.U. after    2 cycles

 The electronic state is 1-A.
 Alpha  occ. eigenvalues --  -20.59817 -20.57960 -11.39337 -11.32358 -11.30884
 Alpha  occ. eigenvalues --  -11.20889  -1.52624  -1.48647  -1.09288  -0.99259
 Alpha  occ. eigenvalues --   -0.91145  -0.79940  -0.75363  -0.71962  -0.68972
 Alpha  occ. eigenvalues --   -0.66609  -0.61776  -0.61500  -0.58336  -0.55462
 Alpha  occ. eigenvalues --   -0.52319  -0.52035  -0.48139  -0.45280  -0.28041
 Alpha virt. eigenvalues --    0.02949   0.03671   0.04028   0.04952   0.05994
 Alpha virt. eigenvalues --    0.06099   0.06618   0.08290   0.08872   0.10058
 Alpha virt. eigenvalues --    0.11207   0.12094   0.13644   0.14467   0.14866

 Mulliken charges:
               1
     1  C    0.095810
     2  O   -1.318494
     3  C    0.659982
     4  C    0.517329
     5  C   -0.173188
     6  O   -1.334122
     7  H    0.181260
     8  H    0.197885
     9  H    0.007970
    10  H    0.289069
    11  H    0.132978
    12  H   -0.151183
    13  H   -0.023368
    14  H   -0.039786
    15  H    0.595193
    16  H    0.362667
 Sum of Mulliken charges =  -0.00000

 Dipole moment (field-independent basis, Debye):
    X=             -3.2808    Y=             -1.2511    Z=             -1.9408  Tot=              4.0119

 Test job not archived.
 1\1\GINC-SE058\SP\RHF\Aug-CC-pVDZ\C4H10O2\OHZDE\09-Apr-2025\0\\#t hf a
 ug-cc-pvdz iop(5/13=1,5/36=2,99/5=2) pseudo=read geom=check guess=(rea
 d,tcheck) scf=(maxcycle=1)\\title\\0,1\C,0,2.42726793,-0.56565978,-0.5
 3066546\O,0,1.28179271,-0.17965069,0.21834822\C,0,0.13580813,0.0352123
 8,-0.58621374\C,0,-1.07041169,0.08125991,0.32858184\C,0,-2.34291637,0.
 4389909,-0.21008552\O,0,-0.99732073,-0.72946347,1.39567314\H,0,2.25181
 855,-1.501502,-1.09069048\H,0,2.72333175,0.22326956,-1.2425257\H,0,3.2
 3651506,-0.71985904,0.19177027\H,0,-0.03807375,-0.83191992,-1.25813683

 Normal termination of Gaussian 16 at Wed Apr  9 03:08:06 2025.
