 Gaussian 16, Revision C.01,

 ----------------------------------------------------------------------
 #t hf aug-cc-pvdz symm=none int=(grid=ultrafine) guess=(read,tcheck) s
 table=(opt,rrhf)
 ----------------------------------------------------------------------
 -----
 title
 -----
 Symbolic Z-matrix:
 Charge =  0 Multiplicity = 1

 SCF Done:  E(RHF) =  -306.636289658     A.U. after   17 cycles
 Normal termination of Gaussian 16 at Wed Apr  9 18:18:23 2025.
 Gaussian 16:  ES64L-G16RevC.01  3-Jul-2019

 ----------------------------------------------------------------------
 #t hf aug-cc-pvdz iop(5/13=1,5/36=2,99/5=2) pseudo=read geom=check gue
 ss=(read,tcheck) scf=(maxcycle=1)
 ----------------------------------------------------------------------
 -----
 title
 -----
 Structure from the checkpoint file:  "Grambow2020_wb97xd3_007298_reverse_mol2.chk"
 Charge =  0 Multiplicity = 1

                         Standard orientation:
 ---------------------------------------------------------------------
 Center     Atomic      Atomic             Coordinates (Angstroms)
 Number     Number       Type             X           Y           Z
 ---------------------------------------------------------------------
      1          6           0       -2.777132   -0.526728   -0.091786
      2          6           0       -1.321825   -0.796613    0.267121
      3          6           0       -0.416206    0.362533   -0.062734
      4          8           0       -0.739769    1.540506    0.019162
      5          6           0        0.896927    0.156095   -0.576192
      6          6           0        2.014134    0.207592    0.277790
      7          6           0        3.043956   -0.587155   -0.072147
      8          1           0       -3.119106    0.399258    0.368956
      9          1           0       -3.413671   -1.342870    0.251466
     10          1           0       -2.899143   -0.428304   -1.171329
     11          1           0       -0.945015   -1.697539   -0.223900
     12          1           0       -1.219117   -0.959553    1.346204
     13          1           0        3.824054   -0.856120    0.631702
     14          1           0        1.984803    0.699338    1.250132
     15          1           0        3.066222   -1.032599   -1.058844
 ---------------------------------------------------------------------

 SCF Done:  E(RHF) =  -306.951836511     A.U. after    2 cycles

 The electronic state is 1-A.
 Alpha  occ. eigenvalues --  -20.52158 -11.33333 -11.29885 -11.28092 -11.27220
 Alpha  occ. eigenvalues --  -11.25179 -11.23117  -1.45709  -1.12130  -1.06683
 Alpha  occ. eigenvalues --   -0.97825  -0.88616  -0.81037  -0.73032  -0.69511
 Alpha  occ. eigenvalues --   -0.65165  -0.63030  -0.61150  -0.58055  -0.56349
 Alpha  occ. eigenvalues --   -0.53430  -0.51642  -0.49546  -0.44608  -0.41501
 Alpha  occ. eigenvalues --   -0.35075
 Alpha virt. eigenvalues --    0.02327   0.03262   0.03721   0.03837   0.05048
 Alpha virt. eigenvalues --    0.05506   0.05928   0.07055   0.08070   0.10481
 Alpha virt. eigenvalues --    0.10930   0.11949   0.12082   0.12907   0.13993

 Mulliken charges:
               1
     1  C   -0.367710
     2  C   -0.547256
     3  C    1.507350
     4  O   -1.438076
     5  C   -0.637052
     6  C    0.845872
     7  C   -0.137992
     8  H    0.197469
     9  H    0.126023
    10  H    0.171866
    11  H    0.187225
    12  H    0.248042
    13  H   -0.036599
    14  H   -0.135047
    15  H    0.015886
 Sum of Mulliken charges =  -0.00000

 Dipole moment (field-independent basis, Debye):
    X=              2.1660    Y=             -3.5394    Z=              1.6554  Tot=              4.4675

 Test job not archived.
 1\1\GINC-SE115\SP\RHF\Aug-CC-pVDZ\C6H8O1\OHZDE\09-Apr-2025\0\\#t hf au
 g-cc-pvdz iop(5/13=1,5/36=2,99/5=2) pseudo=read geom=check guess=(read
 ,tcheck) scf=(maxcycle=1)\\title\\0,1\C,0,-2.66692264,-0.07393334,0.19
 166551\C,0,-1.21155279,-0.39277211,-0.12426178\C,0,-0.24803279,0.31198
 308,0.79634545\O,0,-0.46240324,0.54297178,1.97943877\C,0,0.98761331,0.
 83605794,0.31770202\C,0,2.18225163,0.11054252,0.48066\C,0,3.10338203,0
 .29284737,-0.48520584\H,0,-2.88416784,-0.27775027,1.23949392\H,0,-3.33
 354665,-0.67630289,-0.42627867\H,0,-2.88367576,0.97850164,0.00355108\H

 Normal termination of Gaussian 16 at Wed Apr  9 18:18:28 2025.
