 Gaussian 16, Revision C.01,

 ----------------------------------------------------------------------
 #t hf aug-cc-pvdz symm=none int=(grid=ultrafine) guess=(read,tcheck) s
 table=(opt,rrhf)
 ----------------------------------------------------------------------
 -----
 title
 -----
 Symbolic Z-matrix:
 Charge =  0 Multiplicity = 1

 SCF Done:  E(RHF) =  -317.570985435     A.U. after   18 cycles
 Normal termination of Gaussian 16 at Wed Apr  9 19:14:46 2025.
 Gaussian 16:  ES64L-G16RevC.01  3-Jul-2019

 ----------------------------------------------------------------------
 #t hf aug-cc-pvdz iop(5/13=1,5/36=2,99/5=2) pseudo=read geom=check gue
 ss=(read,tcheck) scf=(maxcycle=1)
 ----------------------------------------------------------------------
 -----
 title
 -----
 Structure from the checkpoint file:  "Grambow2020_wb97xd3_008980_forward_mol1.chk"
 Charge =  0 Multiplicity = 1

                         Standard orientation:
 ---------------------------------------------------------------------
 Center     Atomic      Atomic             Coordinates (Angstroms)
 Number     Number       Type             X           Y           Z
 ---------------------------------------------------------------------
      1          7           0       -2.417582    0.632871    0.282301
      2          6           0       -1.207572    0.544355   -0.192685
      3          6           0        1.815777    1.497172   -0.360769
      4          7           0        1.684318    0.398272    0.133067
      5          6           0        1.401939   -0.823641    0.377548
      6          7           0        0.267436   -1.449916   -0.097202
      7          6           0       -0.828361   -0.862718   -0.395995
      8          1           0       -2.832830    1.537408    0.440699
      9          1           0       -3.010471   -0.164779    0.511003
     10          1           0        1.480383    2.370158    0.206203
     11          1           0        2.126931   -1.434507    0.896644
     12          1           0       -1.593914   -1.507891   -0.850302
 ---------------------------------------------------------------------

 SCF Done:  E(RHF) =  -317.884315511     A.U. after    2 cycles

 The electronic state is 1-A.
 Alpha  occ. eigenvalues --  -15.57480 -15.56465 -15.52051 -11.30694 -11.29866
 Alpha  occ. eigenvalues --  -11.27743 -11.27029  -1.31232  -1.27943  -1.23007
 Alpha  occ. eigenvalues --   -1.04911  -0.95858  -0.87560  -0.79877  -0.73671
 Alpha  occ. eigenvalues --   -0.72068  -0.69882  -0.64799  -0.59560  -0.55591
 Alpha  occ. eigenvalues --   -0.52675  -0.50276  -0.48110  -0.37386  -0.29680
 Alpha virt. eigenvalues --    0.01838   0.03423   0.04482   0.04636   0.05521
 Alpha virt. eigenvalues --    0.06262   0.08446   0.09518   0.09724   0.10905
 Alpha virt. eigenvalues --    0.11659   0.12062   0.12479   0.13848   0.14380

 Mulliken charges:
               1
     1  N    0.804931
     2  C   -0.906493
     3  C   -0.450306
     4  N    0.898720
     5  C   -0.648212
     6  N    0.859277
     7  C   -0.633350
     8  H    0.097170
     9  H    0.024316
    10  H    0.101055
    11  H   -0.062744
    12  H   -0.084363
 Sum of Mulliken charges =   0.00000

 Dipole moment (field-independent basis, Debye):
    X=             -4.5155    Y=              0.3210    Z=              2.2264  Tot=              5.0447

 Test job not archived.
 1\1\GINC-SE016\SP\RHF\Aug-CC-pVDZ\C4H5N3\OHZDE\09-Apr-2025\0\\#t hf au
 g-cc-pvdz iop(5/13=1,5/36=2,99/5=2) pseudo=read geom=check guess=(read
 ,tcheck) scf=(maxcycle=1)\\title\\0,1\N,0,-2.19368724,-0.45708735,0.06
 303756\C,0,-1.04164073,-0.00808793,-0.34776683\C,0,1.23735596,2.199818
 ,-0.43764647\N,0,1.57715568,1.18002962,0.12209025\C,0,1.85557007,-0.02
 722796,0.43449223\N,0,1.15955827,-1.11615237,-0.04977644\C,0,-0.058488
 41,-1.09905668,-0.43825945\H,0,-2.98048983,0.1678954,0.14079033\H,0,-2
 .3809573,-1.42695545,0.31671776\H,0,0.50642079,2.84857601,0.05316611\H

 Normal termination of Gaussian 16 at Wed Apr  9 19:14:50 2025.
