 Gaussian 16, Revision C.01,

 ----------------------------------------------------------------------
 #t hf aug-cc-pvdz symm=none int=(grid=ultrafine) guess=(read,tcheck) s
 table=(opt,rrhf)
 ----------------------------------------------------------------------
 -----
 title
 -----
 Symbolic Z-matrix:
 Charge =  0 Multiplicity = 1

 SCF Done:  E(RHF) =  -286.745545892     A.U. after   15 cycles
 Normal termination of Gaussian 16 at Wed Apr  9 18:42:44 2025.
 Gaussian 16:  ES64L-G16RevC.01  3-Jul-2019

 ----------------------------------------------------------------------
 #t hf aug-cc-pvdz iop(5/13=1,5/36=2,99/5=2) pseudo=read geom=check gue
 ss=(read,tcheck) scf=(maxcycle=1)
 ----------------------------------------------------------------------
 -----
 title
 -----
 Structure from the checkpoint file:  "Grambow2020_wb97xd3_007990_reverse_mol2.chk"
 Charge =  0 Multiplicity = 1

                         Standard orientation:
 ---------------------------------------------------------------------
 Center     Atomic      Atomic             Coordinates (Angstroms)
 Number     Number       Type             X           Y           Z
 ---------------------------------------------------------------------
      1          6           0       -3.514191    0.387419   -0.070109
      2          6           0       -2.139157   -0.088137    0.023831
      3          6           0       -1.006201   -0.468777    0.107164
      4          6           0        0.383060   -0.912644    0.190494
      5          6           0        1.323024    0.096032   -0.450756
      6          6           0        1.961325    1.236196    0.243323
      7          7           0        2.738368   -0.089567   -0.078968
      8          1           0       -4.065960   -0.160679   -0.835211
      9          1           0       -3.535493    1.447229   -0.328319
     10          1           0       -4.033191    0.260285    0.881156
     11          1           0        0.475440   -1.891913   -0.292882
     12          1           0        0.655555   -1.037474    1.244735
     13          1           0        1.175563    0.175297   -1.526997
     14          1           0        1.739847    1.151168    1.316006
     15          1           0        2.924897   -0.792507    0.621555
     16          1           0        3.447616   -0.024964   -0.790954
 ---------------------------------------------------------------------

 SCF Done:  E(RHF) =  -287.054140192     A.U. after    2 cycles

 The electronic state is 1-A.
 Alpha  occ. eigenvalues --  -15.57596 -11.27913 -11.26844 -11.25500 -11.23165
 Alpha  occ. eigenvalues --  -11.22627 -11.20465  -1.29398  -1.08199  -1.03218
 Alpha  occ. eigenvalues --   -0.96634  -0.92763  -0.80952  -0.77597  -0.68125
 Alpha  occ. eigenvalues --   -0.65767  -0.62277  -0.61640  -0.59363  -0.59082
 Alpha  occ. eigenvalues --   -0.55901  -0.52922  -0.46253  -0.38251  -0.37917
 Alpha  occ. eigenvalues --   -0.30819
 Alpha virt. eigenvalues --    0.02335   0.03546   0.04177   0.04433   0.05582
 Alpha virt. eigenvalues --    0.05733   0.06348   0.07110   0.07777   0.09542
 Alpha virt. eigenvalues --    0.10731   0.11925   0.12437   0.14308   0.14623

 Mulliken charges:
               1
     1  C   -0.908510
     2  C   -0.439143
     3  C    0.767654
     4  C   -0.906646
     5  C   -0.125628
     6  C   -0.455908
     7  N    0.613009
     8  H    0.274042
     9  H    0.275358
    10  H    0.272981
    11  H    0.265895
    12  H    0.255528
    13  H   -0.115398
    14  H   -0.013679
    15  H    0.074806
    16  H    0.165639
 Sum of Mulliken charges =  -0.00000

 Dipole moment (field-independent basis, Debye):
    X=              0.1575    Y=             -4.0035    Z=             -0.1983  Tot=              4.0115

 Test job not archived.
 1\1\GINC-SE219\SP\RHF\Aug-CC-pVDZ\C6H9N1\OHZDE\09-Apr-2025\0\\#t hf au
 g-cc-pvdz iop(5/13=1,5/36=2,99/5=2) pseudo=read geom=check guess=(read
 ,tcheck) scf=(maxcycle=1)\\title\\0,1\C,0,2.68637317,0.41167795,2.2779
 1721\C,0,1.64892163,-0.05949716,1.36831015\C,0,0.79735413,-0.43628272,
 0.61446313\C,0,-0.25865032,-0.87625473,-0.29399101\C,0,-1.42114275,0.1
 0389235,-0.30317288\C,0,-1.55107517,1.27276662,-1.20094634\N,0,-2.3333
 3292,-0.06566499,-1.44992104\H,0,2.68938765,-0.16873211,3.20168977\H,0
 ,2.52295604,1.4594235,2.53452428\H,0,3.67207868,0.32554515,1.81814068\

 Normal termination of Gaussian 16 at Wed Apr  9 18:42:49 2025.
