 Gaussian 16, Revision C.01,

 ----------------------------------------------------------------------
 #t hf aug-cc-pvdz symm=none int=(grid=ultrafine) guess=(read,tcheck) s
 table=(opt,rrhf)
 ----------------------------------------------------------------------
 -----
 title
 -----
 Symbolic Z-matrix:
 Charge =  0 Multiplicity = 1

 SCF Done:  E(RHF) =  -302.703420956     A.U. after   19 cycles
 Normal termination of Gaussian 16 at Wed Apr  9 19:17:09 2025.
 Gaussian 16:  ES64L-G16RevC.01  3-Jul-2019

 ----------------------------------------------------------------------
 #t hf aug-cc-pvdz iop(5/13=1,5/36=2,99/5=2) pseudo=read geom=check gue
 ss=(read,tcheck) scf=(maxcycle=1)
 ----------------------------------------------------------------------
 -----
 title
 -----
 Structure from the checkpoint file:  "Grambow2020_wb97xd3_009048_reverse_mol1.chk"
 Charge =  0 Multiplicity = 1

                         Standard orientation:
 ---------------------------------------------------------------------
 Center     Atomic      Atomic             Coordinates (Angstroms)
 Number     Number       Type             X           Y           Z
 ---------------------------------------------------------------------
      1          7           0        0.447955    2.035265    0.203600
      2          6           0        0.111747    0.756580   -0.334462
      3          6           0        1.032954   -0.470849   -0.144220
      4          7           0        2.156533   -0.907219   -0.109785
      5          6           0       -1.060088    0.023965    0.371288
      6          6           0       -0.020535   -1.522558    0.198457
      7          6           0       -2.265993   -0.224431   -0.222135
      8          1           0        0.878368    2.645722   -0.472524
      9          1           0        1.055275    1.960606    1.007094
     10          1           0       -0.119366    0.857335   -1.398962
     11          1           0       -1.063241    0.166123    1.450823
     12          1           0       -0.324426   -2.143356   -0.643966
     13          1           0        0.067538   -2.071389    1.133433
     14          1           0       -3.156901   -0.434392    0.356411
     15          1           0       -2.357167   -0.253212   -1.302578
 ---------------------------------------------------------------------

 SCF Done:  E(RHF) =  -303.013853478     A.U. after    2 cycles

 The electronic state is 1-A.
 Alpha  occ. eigenvalues --  -15.50099 -15.46826 -11.30631 -11.29449 -11.29197
 Alpha  occ. eigenvalues --  -11.28283 -11.25752  -1.22748  -1.18191  -1.10544
 Alpha  occ. eigenvalues --   -0.98243  -0.92588  -0.81241  -0.75172  -0.71975
 Alpha  occ. eigenvalues --   -0.68567  -0.64348  -0.62156  -0.60418  -0.58619
 Alpha  occ. eigenvalues --   -0.55929  -0.52591  -0.46806  -0.45287  -0.42698
 Alpha  occ. eigenvalues --   -0.28827
 Alpha virt. eigenvalues --   -0.00033   0.02785   0.03265   0.03687   0.04851
 Alpha virt. eigenvalues --    0.05551   0.05795   0.06811   0.08267   0.10602
 Alpha virt. eigenvalues --    0.11095   0.12129   0.12703   0.13392   0.14197

 Mulliken charges:
               1
     1  N    0.574014
     2  C   -1.430495
     3  C   -1.243468
     4  N    0.891045
     5  C    0.716976
     6  C   -0.081215
     7  C    0.151111
     8  H    0.200944
     9  H    0.184839
    10  H    0.111286
    11  H   -0.055498
    12  H    0.095538
    13  H    0.072733
    14  H   -0.098278
    15  H   -0.089532
 Sum of Mulliken charges =  -0.00000

 Dipole moment (field-independent basis, Debye):
    X=             -6.5130    Y=              0.7756    Z=             -0.0475  Tot=              6.5592

 Test job not archived.
 1\1\GINC-SE028\SP\RHF\Aug-CC-pVDZ\C5H8N2\OHZDE\09-Apr-2025\0\\#t hf au
 g-cc-pvdz iop(5/13=1,5/36=2,99/5=2) pseudo=read geom=check guess=(read
 ,tcheck) scf=(maxcycle=1)\\title\\0,1\N,0,2.08449571,-0.53152142,-0.23
 533184\C,0,0.82614902,-0.1940586,0.34799032\C,0,0.39766884,1.27706662,
 0.55677568\N,0,0.71523242,2.39706581,0.87108281\C,0,-0.41485082,-0.460
 07183,-0.5448486\C,0,-1.05109329,1.18467388,0.08147797\C,0,-1.36449302
 ,-1.40144063,-0.26189704\H,0,2.78966934,-0.75065258,0.45006466\H,0,2.4
 3236488,0.20162572,-0.83657799\H,0,0.70669334,-0.7296086,1.29437279\H,

 Normal termination of Gaussian 16 at Wed Apr  9 19:17:14 2025.
