 Gaussian 16, Revision C.01,

 ----------------------------------------------------------------------
 #t hf aug-cc-pvdz symm=none int=(grid=ultrafine) guess=(read,tcheck) s
 table=(opt,rrhf)
 ----------------------------------------------------------------------
 -----
 title
 -----
 Symbolic Z-matrix:
 Charge =  0 Multiplicity = 1

 SCF Done:  E(RHF) =  -338.687325831     A.U. after   15 cycles
 Normal termination of Gaussian 16 at Wed Apr  9 19:01:46 2025.
 Gaussian 16:  ES64L-G16RevC.01  3-Jul-2019

 ----------------------------------------------------------------------
 #t hf aug-cc-pvdz iop(5/13=1,5/36=2,99/5=2) pseudo=read geom=check gue
 ss=(read,tcheck) scf=(maxcycle=1)
 ----------------------------------------------------------------------
 -----
 title
 -----
 Structure from the checkpoint file:  "Grambow2020_wb97xd3_008466_reverse_mol2.chk"
 Charge =  0 Multiplicity = 1

                         Standard orientation:
 ---------------------------------------------------------------------
 Center     Atomic      Atomic             Coordinates (Angstroms)
 Number     Number       Type             X           Y           Z
 ---------------------------------------------------------------------
      1          7           0       -0.378754    2.004547   -0.010600
      2          6           0        0.012809    0.809508   -0.015096
      3          6           0       -0.821027   -0.442358    0.008693
      4          8           0       -2.150281   -0.336717    0.040261
      5          6           0        0.021431   -1.480778   -0.009006
      6          6           0        1.357448   -0.861641   -0.041937
      7          7           0        1.376338    0.421209   -0.045552
      8          1           0        3.984169    0.488939    0.181670
      9          1           0       -1.398173    2.034785    0.013652
     10          1           0       -2.558235   -1.206280    0.054621
     11          1           0       -0.193440   -2.538703   -0.000678
     12          1           0        2.281972   -1.430900   -0.062264
     13          1           0        4.678896    0.217213    0.228050
 ---------------------------------------------------------------------

 SCF Done:  E(RHF) =  -339.032801494     A.U. after    2 cycles

 The electronic state is 1-A.
 Alpha  occ. eigenvalues --  -20.62489 -15.51496 -15.49769 -11.34614 -11.32211
 Alpha  occ. eigenvalues --  -11.31224 -11.25786  -1.54574  -1.30317  -1.21405
 Alpha  occ. eigenvalues --   -1.07362  -0.94359  -0.85955  -0.78473  -0.77170
 Alpha  occ. eigenvalues --   -0.71036  -0.64628  -0.64038  -0.63292  -0.60076
 Alpha  occ. eigenvalues --   -0.57077  -0.56769  -0.51218  -0.46130  -0.45207
 Alpha  occ. eigenvalues --   -0.37442
 Alpha virt. eigenvalues --    0.01965   0.02332   0.03517   0.04583   0.06039
 Alpha virt. eigenvalues --    0.07892   0.08940   0.10345   0.10537   0.11518
 Alpha virt. eigenvalues --    0.11770   0.13163   0.13223   0.14190   0.14883

 Mulliken charges:
               1
     1  N    1.016029
     2  C   -2.244867
     3  C    1.689168
     4  O   -1.713803
     5  C    0.650015
     6  C   -0.651251
     7  N    0.888677
     8  H    0.005165
     9  H    0.257536
    10  H    0.395367
    11  H   -0.163711
    12  H   -0.140844
    13  H    0.012519
 Sum of Mulliken charges =  -0.00000

 Dipole moment (field-independent basis, Debye):
    X=             -3.1717    Y=             -5.8620    Z=              0.0814  Tot=              6.6656

 Test job not archived.
 1\1\GINC-SE105\SP\RHF\Aug-CC-pVDZ\C4H6N2O1\OHZDE\09-Apr-2025\0\\#t hf
 aug-cc-pvdz iop(5/13=1,5/36=2,99/5=2) pseudo=read geom=check guess=(re
 ad,tcheck) scf=(maxcycle=1)\\title\\0,1\N,0,2.15389949,-0.23645586,0.8
 6987279\C,0,0.9788623,-0.1657629,0.42743751\C,0,-0.0399274,-1.26678056
 ,0.31410877\O,0,0.28520505,-2.49627593,0.7162334\C,0,-1.14736513,-0.73
 043436,-0.2096088\C,0,-0.80099551,0.68653667,-0.41351932\N,0,0.3860295
 ,1.02514856,-0.06367896\H,0,0.09990079,3.43759984,-1.04102556\H,0,2.35
 610574,-1.19204541,1.16428444\H,0,-0.45107291,-3.09972367,0.58770978\H

 Normal termination of Gaussian 16 at Wed Apr  9 19:01:50 2025.
