 Gaussian 16, Revision C.01,

 ----------------------------------------------------------------------
 #t hf aug-cc-pvdz symm=none int=(grid=ultrafine) guess=(read,tcheck) s
 table=(opt,rrhf)
 ----------------------------------------------------------------------
 -----
 title
 -----
 Symbolic Z-matrix:
 Charge =  0 Multiplicity = 1

 SCF Done:  E(RHF) =  -359.655632543     A.U. after   15 cycles
 Normal termination of Gaussian 16 at Wed Apr  9 19:18:02 2025.
 Gaussian 16:  ES64L-G16RevC.01  3-Jul-2019

 ----------------------------------------------------------------------
 #t hf aug-cc-pvdz iop(5/13=1,5/36=2,99/5=2) pseudo=read geom=check gue
 ss=(read,tcheck) scf=(maxcycle=1)
 ----------------------------------------------------------------------
 -----
 title
 -----
 Structure from the checkpoint file:  "Grambow2020_wb97xd3_009250_forward_mol1.chk"
 Charge =  0 Multiplicity = 1

                         Standard orientation:
 ---------------------------------------------------------------------
 Center     Atomic      Atomic             Coordinates (Angstroms)
 Number     Number       Type             X           Y           Z
 ---------------------------------------------------------------------
      1          6           0        2.117967    0.079224   -0.053730
      2          6           0        0.729667   -0.079163   -0.622898
      3          6           0       -0.182919   -1.160841   -0.019656
      4          8           0       -0.288153   -0.743589    1.243703
      5          6           0       -0.368794    0.787393   -0.030508
      6          8           0       -0.700267    1.869609    0.238823
      7          7           0       -1.434802   -0.517802   -0.599908
      8          1           0        2.085580   -0.031557    1.028715
      9          1           0        2.781899   -0.680282   -0.470557
     10          1           0        2.531248    1.058079   -0.300312
     11          1           0        0.716201    0.008520   -1.717437
     12          1           0       -0.062692   -2.228277   -0.232514
     13          1           0       -1.636638   -0.568247   -1.594845
     14          1           0       -2.240146   -0.701456   -0.013142
 ---------------------------------------------------------------------

 SCF Done:  E(RHF) =  -360.022269020     A.U. after    2 cycles

 The electronic state is 1-A.
 Alpha  occ. eigenvalues --  -20.57660 -20.46929 -15.57126 -11.43220 -11.33303
 Alpha  occ. eigenvalues --  -11.27894 -11.23810  -1.53632  -1.41518  -1.22951
 Alpha  occ. eigenvalues --   -1.09109  -0.95198  -0.86055  -0.79306  -0.74911
 Alpha  occ. eigenvalues --   -0.72059  -0.69190  -0.65850  -0.61964  -0.57639
 Alpha  occ. eigenvalues --   -0.56363  -0.55702  -0.52620  -0.50748  -0.46066
 Alpha  occ. eigenvalues --   -0.39413  -0.37705
 Alpha virt. eigenvalues --    0.02050   0.03509   0.03968   0.05014   0.06072
 Alpha virt. eigenvalues --    0.06353   0.07728   0.08982   0.10544   0.12030
 Alpha virt. eigenvalues --    0.12340   0.13218   0.13556   0.14048   0.14949

 Mulliken charges:
               1
     1  C   -0.254902
     2  C   -0.604254
     3  C    0.937626
     4  O   -1.534624
     5  C    1.501551
     6  O   -1.242519
     7  N    0.086101
     8  H    0.261189
     9  H    0.201686
    10  H    0.202647
    11  H   -0.027396
    12  H    0.027935
    13  H    0.198529
    14  H    0.246429
 Sum of Mulliken charges =   0.00000

 Dipole moment (field-independent basis, Debye):
    X=             -0.0788    Y=             -1.7228    Z=             -4.8841  Tot=              5.1797

 Test job not archived.
 1\1\GINC-SE035\SP\RHF\Aug-CC-pVDZ\C4H7N1O2\OHZDE\09-Apr-2025\0\\#t hf
 aug-cc-pvdz iop(5/13=1,5/36=2,99/5=2) pseudo=read geom=check guess=(re
 ad,tcheck) scf=(maxcycle=1)\\title\\0,1\C,0,-1.44231295,-1.02164901,0.
 58678837\C,0,-0.27212109,-0.50270664,-0.21181432\C,0,-0.19624899,1.008
 51168,-0.48967269\O,0,-0.11617106,1.50126482,0.74807942\C,0,0.99029594
 ,-0.14563718,0.55451863\O,0,1.78899647,-0.51251454,1.31680645\N,0,1.28
 669649,0.93632562,-0.82592574\H,0,-1.66929615,-0.33043209,1.39654406\H
 ,0,-2.31942839,-1.11939512,-0.05548443\H,0,-1.22283594,-2.00406493,1.0

 Normal termination of Gaussian 16 at Wed Apr  9 19:18:07 2025.
