 Gaussian 16, Revision C.01,

 ----------------------------------------------------------------------
 #t hf aug-cc-pvdz symm=none int=(grid=ultrafine) guess=(read,tcheck) s
 table=(opt,rrhf)
 ----------------------------------------------------------------------
 -----
 title
 -----
 Symbolic Z-matrix:
 Charge =  0 Multiplicity = 1

 SCF Done:  E(RHF) =  -339.837424665     A.U. after   15 cycles
 Normal termination of Gaussian 16 at Wed Apr  9 17:16:35 2025.
 Gaussian 16:  ES64L-G16RevC.01  3-Jul-2019

 ----------------------------------------------------------------------
 #t hf aug-cc-pvdz iop(5/13=1,5/36=2,99/5=2) pseudo=read geom=check gue
 ss=(read,tcheck) scf=(maxcycle=1)
 ----------------------------------------------------------------------
 -----
 title
 -----
 Structure from the checkpoint file:  "Grambow2020_wb97xd3_006550_forward_mol1.chk"
 Charge =  0 Multiplicity = 1

                         Standard orientation:
 ---------------------------------------------------------------------
 Center     Atomic      Atomic             Coordinates (Angstroms)
 Number     Number       Type             X           Y           Z
 ---------------------------------------------------------------------
      1          6           0        1.886967   -1.421994   -0.075070
      2          7           0        0.605806   -0.938634    0.402068
      3          6           0       -0.102504   -0.079696   -0.307388
      4          6           0       -1.469100    0.330013    0.178218
      5          8           0       -2.393563   -0.649310   -0.247594
      6          6           0        1.206620    1.654427   -0.516113
      7          7           0        0.587223    2.030212    0.404375
      8          1           0        2.606880   -0.597760   -0.093430
      9          1           0        2.239530   -2.220192    0.574481
     10          1           0        1.775537   -1.810782   -1.085994
     11          1           0        0.509430   -0.859784    1.403947
     12          1           0        0.016815   -0.140535   -1.380869
     13          1           0       -1.752422    1.270758   -0.281992
     14          1           0       -1.469855    0.468506    1.263188
     15          1           0       -2.260515   -1.453274    0.258443
 ---------------------------------------------------------------------

 SCF Done:  E(RHF) =  -340.184041463     A.U. after    2 cycles

 The electronic state is 1-A.
 Alpha  occ. eigenvalues --  -20.58345 -15.57837 -15.45778 -11.38161 -11.32322
 Alpha  occ. eigenvalues --  -11.29839 -11.19532  -1.48812  -1.31721  -1.18119
 Alpha  occ. eigenvalues --   -1.05829  -0.97047  -0.90423  -0.76184  -0.75084
 Alpha  occ. eigenvalues --   -0.70160  -0.68704  -0.63891  -0.62554  -0.59895
 Alpha  occ. eigenvalues --   -0.59055  -0.54788  -0.52775  -0.48931  -0.45769
 Alpha  occ. eigenvalues --   -0.43563  -0.42433
 Alpha virt. eigenvalues --    0.02010   0.03432   0.03728   0.04890   0.05227
 Alpha virt. eigenvalues --    0.05808   0.06703   0.08099   0.08759   0.10440
 Alpha virt. eigenvalues --    0.11367   0.12299   0.12426   0.13509   0.14419

 Mulliken charges:
               1
     1  C   -0.358489
     2  N    0.817316
     3  C   -0.835875
     4  C    0.878103
     5  O   -1.121505
     6  C   -1.048590
     7  N    0.355012
     8  H    0.257073
     9  H    0.047180
    10  H    0.178490
    11  H    0.246765
    12  H   -0.012664
    13  H    0.150056
    14  H    0.135657
    15  H    0.311473
 Sum of Mulliken charges =  -0.00000

 Dipole moment (field-independent basis, Debye):
    X=             -0.5118    Y=             -6.6750    Z=              1.0826  Tot=              6.7816

 Test job not archived.
 1\1\GINC-SE173\SP\RHF\Aug-CC-pVDZ\C4H8N2O1\OHZDE\09-Apr-2025\0\\#t hf
 aug-cc-pvdz iop(5/13=1,5/36=2,99/5=2) pseudo=read geom=check guess=(re
 ad,tcheck) scf=(maxcycle=1)\\title\\0,1\C,0,-1.89669553,0.63786689,0.6
 6079139\N,0,-0.52896834,0.16453296,0.74994087\C,0,0.23715415,0.0970610
 3,-0.32304973\C,0,1.67964918,-0.31394584,-0.17627643\O,0,2.42493865,0.
 83302534,0.17588981\C,0,-0.83024911,-1.25654246,-1.66206594\N,0,-0.098
 06333,-2.04027461,-1.19107444\H,0,-2.49449836,-0.07315738,0.08195514\H
 ,0,-2.30752,0.75382057,1.66134877\H,0,-1.91569415,1.60233239,0.1558318

 Normal termination of Gaussian 16 at Wed Apr  9 17:16:41 2025.
