 Gaussian 16, Revision C.01,

 ----------------------------------------------------------------------
 #t hf aug-cc-pvdz symm=none int=(grid=ultrafine) guess=(read,tcheck) s
 table=(opt,rrhf)
 ----------------------------------------------------------------------
 -----
 title
 -----
 Symbolic Z-matrix:
 Charge =  0 Multiplicity = 1

 SCF Done:  E(RHF) =  -307.756621385     A.U. after   16 cycles

 1\1\GINC-SE168\Stability\RHF\Aug-CC-pVDZ\C6H10O1\OHZDE\09-Apr-2025\0\\
 #t hf aug-cc-pvdz symm=none int=(grid=ultrafine) guess=(read,tcheck) s
 table=(opt,rrhf)\\title\\0,1\O,0,2.10009998,-1.17347074,0.64764409\C,0
 ,1.05077327,-0.50081643,0.28451259\C,0,-0.17579553,-1.31650753,0.07317
 645\C,0,-1.4824645,-0.557964,0.25592836\C,0,-1.41545916,0.80158717,-0.
 43119418\C,0,-0.19508649,1.54543073,0.00388405\C,0,0.96468665,0.931069
 ,0.29776736\H,0,2.80216267,-0.620432,0.13583672\H,0,2.60015319,0.15542
 349,-1.10208434\H,0,-0.09932698,-2.21068392,0.69473613\H,0,-0.07118518

 Normal termination of Gaussian 16 at Wed Apr  9 19:00:04 2025.
 Gaussian 16:  ES64L-G16RevC.01  3-Jul-2019

 ----------------------------------------------------------------------
 #t hf aug-cc-pvdz iop(5/13=1,5/36=2,99/5=2) pseudo=read geom=check gue
 ss=(read,tcheck) scf=(maxcycle=1)
 ----------------------------------------------------------------------
 -----
 title
 -----
 Structure from the checkpoint file:  "Grambow2020_wb97xd3_008422_reverse_mol1.chk"
 Charge =  0 Multiplicity = 1

                         Standard orientation:
 ---------------------------------------------------------------------
 Center     Atomic      Atomic             Coordinates (Angstroms)
 Number     Number       Type             X           Y           Z
 ---------------------------------------------------------------------
      1          8           0       -2.276957   -0.246215   -0.151582
      2          6           0       -1.004715   -0.039211    0.003221
      3          6           0       -0.182381   -1.269986    0.156341
      4          6           0        1.271392   -1.119555   -0.268025
      5          6           0        1.854095    0.185655    0.262910
      6          6           0        0.974056    1.335977   -0.103419
      7          6           0       -0.364400    1.230874   -0.183232
      8          1           0       -2.614712    0.571929    0.374966
      9          1           0       -1.932315    1.266031    1.483012
     10          1           0       -0.701320   -2.088832   -0.345585
     11          1           0       -0.253158   -1.489483    1.230641
     12          1           0        1.331074   -1.116493   -1.359936
     13          1           0        1.848783   -1.975945    0.083352
     14          1           0        1.949725    0.137324    1.356544
     15          1           0        2.861419    0.342521   -0.126081
     16          1           0        1.430745    2.305370   -0.266512
     17          1           0       -0.992866    2.074775   -0.424517
 ---------------------------------------------------------------------

 SCF Done:  E(RHF) =  -308.081416365     A.U. after    2 cycles

 The electronic state is 1-A.
 Alpha  occ. eigenvalues --  -20.59941 -11.40918 -11.28686 -11.27507 -11.26727
 Alpha  occ. eigenvalues --  -11.26702 -11.26641  -1.54075  -1.17373  -1.06430
 Alpha  occ. eigenvalues --   -1.03809  -0.89503  -0.87064  -0.77411  -0.73362
 Alpha  occ. eigenvalues --   -0.69810  -0.67435  -0.64844  -0.62372  -0.60999
 Alpha  occ. eigenvalues --   -0.59336  -0.56201  -0.52397  -0.52009  -0.49334
 Alpha  occ. eigenvalues --   -0.41930  -0.25840
 Alpha virt. eigenvalues --    0.02250   0.02618   0.02869   0.03428   0.04483
 Alpha virt. eigenvalues --    0.05563   0.06096   0.06431   0.06866   0.09148
 Alpha virt. eigenvalues --    0.10014   0.12156   0.12735   0.13082   0.13545

 Mulliken charges:
               1
     1  O   -1.419704
     2  C    0.862441
     3  C   -0.461264
     4  C   -0.213694
     5  C   -0.427311
     6  C    0.292104
     7  C    0.698195
     8  H    0.378881
     9  H   -0.495690
    10  H    0.175629
    11  H    0.329756
    12  H    0.112231
    13  H    0.188205
    14  H    0.243959
    15  H    0.169875
    16  H   -0.204128
    17  H   -0.229484
 Sum of Mulliken charges =  -0.00000

 Dipole moment (field-independent basis, Debye):
    X=              5.1163    Y=             -2.3607    Z=             -3.1423  Tot=              6.4516

 Test job not archived.
 1\1\GINC-SE168\SP\RHF\Aug-CC-pVDZ\C6H10O1\OHZDE\09-Apr-2025\0\\#t hf a
 ug-cc-pvdz iop(5/13=1,5/36=2,99/5=2) pseudo=read geom=check guess=(rea
 d,tcheck) scf=(maxcycle=1)\\title\\0,1\O,0,2.10009998,-1.17347074,0.64
 764409\C,0,1.05077327,-0.50081643,0.28451259\C,0,-0.17579553,-1.316507
 53,0.07317645\C,0,-1.4824645,-0.557964,0.25592836\C,0,-1.41545916,0.80
 158717,-0.43119418\C,0,-0.19508649,1.54543073,0.00388405\C,0,0.9646866
 5,0.931069,0.29776736\H,0,2.80216267,-0.620432,0.13583672\H,0,2.600153
 19,0.15542349,-1.10208434\H,0,-0.09932698,-2.21068392,0.69473613\H,0,-

 Normal termination of Gaussian 16 at Wed Apr  9 19:00:10 2025.
