 Gaussian 16, Revision C.01,

 ----------------------------------------------------------------------
 #t hf aug-cc-pvdz symm=none int=(grid=ultrafine) guess=(read,tcheck) s
 table=(opt,rrhf)
 ----------------------------------------------------------------------
 -----
 title
 -----
 Symbolic Z-matrix:
 Charge =  0 Multiplicity = 1

 SCF Done:  E(RHF) =  -344.762526574     A.U. after   15 cycles

 1\1\GINC-SE173\Stability\RHF\Aug-CC-pVDZ\C5H10O2\OHZDE\09-Apr-2025\0\\
 #t hf aug-cc-pvdz symm=none int=(grid=ultrafine) guess=(read,tcheck) s
 table=(opt,rrhf)\\title\\0,1\C,0,1.61687407,0.60873922,-0.78997379\C,0
 ,1.15911778,-0.62438714,-0.04630172\C,0,0.61243231,-0.36566409,1.36019
 48\O,0,-0.64598812,-1.04784551,1.37024538\C,0,-1.01808018,-1.25462382,
 0.1050048\C,0,-2.09250595,0.61365473,-0.41296441\O,0,0.02887277,-1.222
 99695,-0.71783735\H,0,1.91828514,0.35049577,-1.80506601\H,0,2.47171048
 ,1.06137412,-0.28276673\H,0,0.81095318,1.34180014,-0.84321334\H,0,1.94

 Normal termination of Gaussian 16 at Wed Apr  9 18:07:00 2025.
 Gaussian 16:  ES64L-G16RevC.01  3-Jul-2019

 ----------------------------------------------------------------------
 #t hf aug-cc-pvdz iop(5/13=1,5/36=2,99/5=2) pseudo=read geom=check gue
 ss=(read,tcheck) scf=(maxcycle=1)
 ----------------------------------------------------------------------
 -----
 title
 -----
 Structure from the checkpoint file:  "Grambow2020_wb97xd3_007102_forward_mol1.chk"
 Charge =  0 Multiplicity = 1

                         Standard orientation:
 ---------------------------------------------------------------------
 Center     Atomic      Atomic             Coordinates (Angstroms)
 Number     Number       Type             X           Y           Z
 ---------------------------------------------------------------------
      1          6           0       -1.780543    1.144840   -0.283463
      2          6           0       -1.209879   -0.140391    0.269449
      3          6           0       -0.563527   -1.060665   -0.769473
      4          8           0        0.720692   -1.359173   -0.212005
      5          6           0        0.998298   -0.437023    0.712450
      6          6           0        1.943261    1.185165   -0.465979
      7          8           0       -0.112009    0.143713    1.164275
      8          1           0       -2.151101    1.775023    0.524935
      9          1           0       -2.610945    0.930453   -0.959743
     10          1           0       -1.014950    1.696571   -0.830439
     11          1           0       -1.957575   -0.672009    0.861786
     12          1           0       -0.427031   -0.559233   -1.731538
     13          1           0       -1.096183   -1.997925   -0.916869
     14          1           0        1.987345    0.132275    0.688493
     15          1           0        1.388258    1.019529   -1.387415
     16          1           0        1.671267    2.125054    0.011822
     17          1           0        3.015783    1.122385   -0.657091
 ---------------------------------------------------------------------

 SCF Done:  E(RHF) =  -345.122468000     A.U. after    2 cycles

 The electronic state is 1-A.
 Alpha  occ. eigenvalues --  -20.59117 -20.58786 -11.36274 -11.31574 -11.31087
 Alpha  occ. eigenvalues --  -11.24541 -11.20096  -1.57949  -1.46987  -1.09124
 Alpha  occ. eigenvalues --   -0.97352  -0.92320  -0.85877  -0.83914  -0.73871
 Alpha  occ. eigenvalues --   -0.72477  -0.65647  -0.62996  -0.61933  -0.58757
 Alpha  occ. eigenvalues --   -0.56144  -0.55164  -0.54143  -0.53494  -0.51363
 Alpha  occ. eigenvalues --   -0.51000  -0.45713  -0.27811
 Alpha virt. eigenvalues --    0.02917   0.03770   0.03919   0.04836   0.06017
 Alpha virt. eigenvalues --    0.06155   0.06785   0.07235   0.08074   0.10514
 Alpha virt. eigenvalues --    0.10854   0.11628   0.12997   0.13520   0.14214

 Mulliken charges:
               1
     1  C   -0.335554
     2  C    0.147574
     3  C    0.631550
     4  O   -1.283111
     5  C    1.527762
     6  C   -0.713684
     7  O   -1.301921
     8  H    0.150720
     9  H    0.204760
    10  H    0.204037
    11  H    0.017121
    12  H    0.068386
    13  H    0.057495
    14  H    0.554759
    15  H    0.100256
    16  H    0.078575
    17  H   -0.108724
 Sum of Mulliken charges =   0.00000

 Dipole moment (field-independent basis, Debye):
    X=             -3.1708    Y=             -0.4432    Z=             -1.1110  Tot=              3.3890

 Test job not archived.
 1\1\GINC-SE173\SP\RHF\Aug-CC-pVDZ\C5H10O2\OHZDE\09-Apr-2025\0\\#t hf a
 ug-cc-pvdz iop(5/13=1,5/36=2,99/5=2) pseudo=read geom=check guess=(rea
 d,tcheck) scf=(maxcycle=1)\\title\\0,1\C,0,1.61687407,0.60873922,-0.78
 997379\C,0,1.15911778,-0.62438714,-0.04630172\C,0,0.61243231,-0.365664
 09,1.3601948\O,0,-0.64598812,-1.04784551,1.37024538\C,0,-1.01808018,-1
 .25462382,0.1050048\C,0,-2.09250595,0.61365473,-0.41296441\O,0,0.02887
 277,-1.22299695,-0.71783735\H,0,1.91828514,0.35049577,-1.80506601\H,0,
 2.47171048,1.06137412,-0.28276673\H,0,0.81095318,1.34180014,-0.8432133

 Normal termination of Gaussian 16 at Wed Apr  9 18:07:07 2025.
