 Gaussian 16, Revision C.01,

 ----------------------------------------------------------------------
 #t hf aug-cc-pvdz symm=none int=(grid=ultrafine) guess=(read,tcheck) s
 table=(opt,rrhf)
 ----------------------------------------------------------------------
 -----
 title
 -----
 Symbolic Z-matrix:
 Charge =  0 Multiplicity = 1

 SCF Done:  E(RHF) =  -338.687638999     A.U. after   14 cycles
 Normal termination of Gaussian 16 at Wed Apr  9 18:41:29 2025.
 Gaussian 16:  ES64L-G16RevC.01  3-Jul-2019

 ----------------------------------------------------------------------
 #t hf aug-cc-pvdz iop(5/13=1,5/36=2,99/5=2) pseudo=read geom=check gue
 ss=(read,tcheck) scf=(maxcycle=1)
 ----------------------------------------------------------------------
 -----
 title
 -----
 Structure from the checkpoint file:  "Grambow2020_wb97xd3_007965_reverse_mol2.chk"
 Charge =  0 Multiplicity = 1

                         Standard orientation:
 ---------------------------------------------------------------------
 Center     Atomic      Atomic             Coordinates (Angstroms)
 Number     Number       Type             X           Y           Z
 ---------------------------------------------------------------------
      1          7           0        1.104976    1.722021    0.156669
      2          6           0        0.928007    0.497295    0.068678
      3          8           0        1.859836   -0.538274   -0.236876
      4          6           0        0.755731   -1.397767   -0.099331
      5          6           0       -0.173918   -0.489565    0.195299
      6          6           0       -1.630285   -0.382571    0.486934
      7          7           0       -2.384244    0.455974   -0.436856
      8          1           0        2.073994    1.979423   -0.017487
      9          1           0       -2.262208    0.132005   -1.387476
     10          1           0        0.866565   -2.463238   -0.233842
     11          1           0       -1.769362    0.023109    1.492119
     12          1           0       -2.067407   -1.383398    0.496221
     13          1           0       -2.042604    1.407983   -0.402710
 ---------------------------------------------------------------------

 SCF Done:  E(RHF) =  -339.033326752     A.U. after    2 cycles

 The electronic state is 1-A.
 Alpha  occ. eigenvalues --  -20.58898 -15.50440 -15.49231 -11.36120 -11.33592
 Alpha  occ. eigenvalues --  -11.28224 -11.25866  -1.53438  -1.23308  -1.19543
 Alpha  occ. eigenvalues --   -1.08337  -0.93445  -0.88558  -0.77291  -0.71686
 Alpha  occ. eigenvalues --   -0.70993  -0.68588  -0.65172  -0.62212  -0.60669
 Alpha  occ. eigenvalues --   -0.56488  -0.54233  -0.48787  -0.47422  -0.44635
 Alpha  occ. eigenvalues --   -0.37177
 Alpha virt. eigenvalues --    0.03113   0.03895   0.04658   0.05096   0.06090
 Alpha virt. eigenvalues --    0.06949   0.07688   0.09559   0.10467   0.11235
 Alpha virt. eigenvalues --    0.11682   0.13031   0.13213   0.14641   0.15108

 Mulliken charges:
               1
     1  N    0.869751
     2  C   -0.817881
     3  O   -1.405182
     4  C    0.936250
     5  C    0.395937
     6  C   -0.663519
     7  N    0.041506
     8  H    0.113836
     9  H    0.168665
    10  H   -0.128730
    11  H    0.169636
    12  H    0.107840
    13  H    0.211891
 Sum of Mulliken charges =  -0.00000

 Dipole moment (field-independent basis, Debye):
    X=              0.5592    Y=             -2.6258    Z=             -0.4847  Tot=              2.7281

 Test job not archived.
 1\1\GINC-SE035\SP\RHF\Aug-CC-pVDZ\C4H6N2O1\OHZDE\09-Apr-2025\0\\#t hf
 aug-cc-pvdz iop(5/13=1,5/36=2,99/5=2) pseudo=read geom=check guess=(re
 ad,tcheck) scf=(maxcycle=1)\\title\\0,1\N,0,1.76865228,-1.13077644,-1.
 07654706\C,0,1.26832405,-0.04819375,-0.73493239\O,0,1.87670242,1.23478
 193,-0.60106463\C,0,0.59482469,1.66106872,-0.21149822\C,0,-0.04694317,
 0.49777228,-0.31522098\C,0,-1.39543547,-0.09821718,-0.10577309\N,0,-1.
 44675797,-1.18011435,0.86986204\H,0,2.76006717,-1.04133233,-1.28791846
 \H,0,-1.0826348,-0.86924178,1.7610974\H,0,0.41261007,2.69283375,0.0490

 Normal termination of Gaussian 16 at Wed Apr  9 18:41:33 2025.
