 Gaussian 16, Revision C.01,

 ----------------------------------------------------------------------
 #t hf aug-cc-pvdz symm=none int=(grid=ultrafine) guess=(read,tcheck) s
 table=(opt,rrhf)
 ----------------------------------------------------------------------
 -----
 title
 -----
 Symbolic Z-matrix:
 Charge =  0 Multiplicity = 1

 SCF Done:  E(RHF) =  -322.713726239     A.U. after   14 cycles
 Normal termination of Gaussian 16 at Wed Apr  9 19:19:03 2025.
 Gaussian 16:  ES64L-G16RevC.01  3-Jul-2019

 ----------------------------------------------------------------------
 #t hf aug-cc-pvdz iop(5/13=1,5/36=2,99/5=2) pseudo=read geom=check gue
 ss=(read,tcheck) scf=(maxcycle=1)
 ----------------------------------------------------------------------
 -----
 title
 -----
 Structure from the checkpoint file:  "Grambow2020_wb97xd3_009315_forward_mol2.chk"
 Charge =  0 Multiplicity = 1

                         Standard orientation:
 ---------------------------------------------------------------------
 Center     Atomic      Atomic             Coordinates (Angstroms)
 Number     Number       Type             X           Y           Z
 ---------------------------------------------------------------------
      1          6           0       -2.192055    0.197933    0.340506
      2          6           0       -1.162985   -0.456780   -0.572084
      3          6           0        0.255835   -0.244226   -0.099948
      4          6           0        0.932502   -1.202839    0.779826
      5          8           0        1.242326   -1.125724   -0.599664
      6          6           0        0.680279    1.150255   -0.025694
      7          7           0        0.975866    2.256932    0.031840
      8          1           0       -2.123996   -0.193661    1.357557
      9          1           0       -3.201247    0.007320   -0.024741
     10          1           0       -2.052268    1.279423    0.386607
     11          1           0       -1.322109   -1.535483   -0.630428
     12          1           0       -1.248145   -0.065801   -1.589098
     13          1           0        1.712636   -0.861595    1.452455
     14          1           0        0.383998   -2.088988    1.086442
 ---------------------------------------------------------------------

 SCF Done:  E(RHF) =  -323.041723955     A.U. after    2 cycles

 The electronic state is 1-A.
 Alpha  occ. eigenvalues --  -20.59532 -15.52443 -11.35322 -11.32583 -11.28712
 Alpha  occ. eigenvalues --  -11.26559 -11.24744  -1.54252  -1.24638  -1.09821
 Alpha  occ. eigenvalues --   -0.98400  -0.93469  -0.87638  -0.75761  -0.70602
 Alpha  occ. eigenvalues --   -0.64141  -0.63553  -0.62903  -0.59949  -0.55656
 Alpha  occ. eigenvalues --   -0.55085  -0.53957  -0.52076  -0.50903  -0.47709
 Alpha  occ. eigenvalues --   -0.45998
 Alpha virt. eigenvalues --    0.02873   0.03462   0.04021   0.04423   0.06310
 Alpha virt. eigenvalues --    0.06673   0.07310   0.09552   0.09743   0.12292
 Alpha virt. eigenvalues --    0.12513   0.13143   0.13772   0.14202   0.14733

 Mulliken charges:
               1
     1  C   -0.289003
     2  C   -0.241422
     3  C    1.851869
     4  C    0.399118
     5  O   -1.385548
     6  C   -2.286091
     7  N    1.106161
     8  H    0.174706
     9  H    0.108868
    10  H    0.217113
    11  H    0.166812
    12  H    0.218348
    13  H    0.010556
    14  H   -0.051488
 Sum of Mulliken charges =  -0.00000

 Dipole moment (field-independent basis, Debye):
    X=             -2.5745    Y=             -3.8040    Z=              1.3361  Tot=              4.7837

 Test job not archived.
 1\1\GINC-SE220\SP\RHF\Aug-CC-pVDZ\C5H7N1O1\OHZDE\09-Apr-2025\0\\#t hf
 aug-cc-pvdz iop(5/13=1,5/36=2,99/5=2) pseudo=read geom=check guess=(re
 ad,tcheck) scf=(maxcycle=1)\\title\\0,1\C,0,-1.69294189,0.27306452,0.3
 1448378\C,0,-0.60993914,-0.77899985,0.11268307\C,0,0.70730139,-0.18476
 654,-0.32652802\C,0,1.74351051,0.20188068,0.6365888\O,0,1.86607123,-0.
 97421993,-0.14231738\C,0,0.66814838,0.53536965,-1.59543017\N,0,0.59808
 508,1.10337424,-2.58935084\H,0,-1.39695985,1.00501173,1.06881739\H,0,-
 2.62033712,-0.1936309,0.64666053\H,0,-1.90282756,0.81095425,-0.6117490

 Normal termination of Gaussian 16 at Wed Apr  9 19:19:07 2025.
