 Gaussian 16, Revision C.01,

 ----------------------------------------------------------------------
 #t hf aug-cc-pvdz symm=none int=(grid=ultrafine) guess=(read,tcheck) s
 table=(opt,rrhf)
 ----------------------------------------------------------------------
 -----
 title
 -----
 Symbolic Z-matrix:
 Charge =  0 Multiplicity = 1

 SCF Done:  E(RHF) =  -323.857113392     A.U. after   14 cycles
 Normal termination of Gaussian 16 at Wed Apr  9 18:24:47 2025.
 Gaussian 16:  ES64L-G16RevC.01  3-Jul-2019

 ----------------------------------------------------------------------
 #t hf aug-cc-pvdz iop(5/13=1,5/36=2,99/5=2) pseudo=read geom=check gue
 ss=(read,tcheck) scf=(maxcycle=1)
 ----------------------------------------------------------------------
 -----
 title
 -----
 Structure from the checkpoint file:  "Grambow2020_wb97xd3_007538_reverse_mol2.chk"
 Charge =  0 Multiplicity = 1

                         Standard orientation:
 ---------------------------------------------------------------------
 Center     Atomic      Atomic             Coordinates (Angstroms)
 Number     Number       Type             X           Y           Z
 ---------------------------------------------------------------------
      1          6           0       -3.114534    0.670847    0.121443
      2          8           0       -1.902458    0.287322   -0.471161
      3          6           0       -1.135331   -0.544346    0.372162
      4          6           0        0.096795   -0.990284   -0.345909
      5          6           0        3.100113    0.906059   -0.108805
      6          6           0        1.293095   -0.584494   -0.001648
      7          7           0        2.401732   -0.273369    0.375556
      8          1           0       -3.641127    1.304984   -0.590419
      9          1           0       -2.949341    1.236476    1.048547
     10          1           0       -3.743196   -0.199291    0.354655
     11          1           0       -1.735813   -1.418210    0.665752
     12          1           0       -0.864359   -0.008280    1.292103
     13          1           0        0.003137   -1.653049   -1.197048
     14          1           0        2.506549    1.487620   -0.818673
     15          1           0        4.028535    0.588355   -0.583804
     16          1           0        3.362322    1.529714    0.745828
 ---------------------------------------------------------------------

 SCF Done:  E(RHF) =  -324.196411775     A.U. after    2 cycles

 The electronic state is 1-A.
 Alpha  occ. eigenvalues --  -20.54402 -15.51927 -11.30861 -11.29489 -11.28052
 Alpha  occ. eigenvalues --  -11.27590 -11.23598  -1.46676  -1.26421  -1.06690
 Alpha  occ. eigenvalues --   -0.98434  -0.93939  -0.87321  -0.73021  -0.69841
 Alpha  occ. eigenvalues --   -0.66656  -0.65866  -0.63824  -0.63523  -0.61567
 Alpha  occ. eigenvalues --   -0.55559  -0.54728  -0.52028  -0.48732  -0.46036
 Alpha  occ. eigenvalues --   -0.41926  -0.35499
 Alpha virt. eigenvalues --    0.03591   0.03965   0.04351   0.04744   0.05583
 Alpha virt. eigenvalues --    0.06090   0.06412   0.07292   0.08264   0.09858
 Alpha virt. eigenvalues --    0.10806   0.12135   0.13437   0.13902   0.14229

 Mulliken charges:
               1
     1  C    0.189127
     2  O   -1.166084
     3  C    0.244693
     4  C    1.282557
     5  C   -0.316515
     6  C   -1.890855
     7  N    0.867101
     8  H   -0.020984
     9  H    0.178033
    10  H    0.174399
    11  H    0.171110
    12  H    0.054815
    13  H   -0.124955
    14  H    0.083602
    15  H    0.139156
    16  H    0.134797
 Sum of Mulliken charges =   0.00000

 Dipole moment (field-independent basis, Debye):
    X=             -0.8824    Y=              0.8137    Z=              0.0878  Tot=              1.2035

 Test job not archived.
 1\1\GINC-SE045\SP\RHF\Aug-CC-pVDZ\C5H9N1O1\OHZDE\09-Apr-2025\0\\#t hf
 aug-cc-pvdz iop(5/13=1,5/36=2,99/5=2) pseudo=read geom=check guess=(re
 ad,tcheck) scf=(maxcycle=1)\\title\\0,1\C,0,2.95554079,0.37628575,0.38
 719079\O,0,1.59206529,0.63494177,0.59073982\C,0,0.83507989,-0.5503891,
 0.70612159\C,0,-0.58812112,-0.21135261,1.00972716\C,0,-2.92943351,0.24
 480629,-1.63270153\C,0,-1.5544017,-0.41244556,0.14939073\N,0,-2.453728
 64,-0.68029274,-0.61717683\H,0,3.463359,1.33669778,0.31033255\H,0,3.12
 492578,-0.19157672,-0.53778871\H,0,3.3887631,-0.18851837,1.22388611\H,

 Normal termination of Gaussian 16 at Wed Apr  9 18:24:52 2025.
