 Gaussian 16, Revision C.01,

 ----------------------------------------------------------------------
 #t hf aug-cc-pvdz symm=none int=(grid=ultrafine) guess=(read,tcheck) s
 table=(opt,rrhf)
 ----------------------------------------------------------------------
 -----
 title
 -----
 Symbolic Z-matrix:
 Charge =  0 Multiplicity = 1

 SCF Done:  E(RHF) =  -318.779828744     A.U. after   15 cycles
 Normal termination of Gaussian 16 at Wed Apr  9 17:59:39 2025.
 Gaussian 16:  ES64L-G16RevC.01  3-Jul-2019

 ----------------------------------------------------------------------
 #t hf aug-cc-pvdz iop(5/13=1,5/36=2,99/5=2) pseudo=read geom=check gue
 ss=(read,tcheck) scf=(maxcycle=1)
 ----------------------------------------------------------------------
 -----
 title
 -----
 Structure from the checkpoint file:  "Grambow2020_wb97xd3_006919_forward_mol1.chk"
 Charge =  0 Multiplicity = 1

                         Standard orientation:
 ---------------------------------------------------------------------
 Center     Atomic      Atomic             Coordinates (Angstroms)
 Number     Number       Type             X           Y           Z
 ---------------------------------------------------------------------
      1          7           0       -2.263619   -0.688167   -0.236350
      2          6           0       -1.168837   -0.040749    0.118018
      3          6           0       -0.064454   -0.959754    0.176321
      4          6           0        1.101510   -0.079749   -0.033955
      5          7           0        2.406278   -0.548934   -0.019810
      6          6           0        0.672182    1.200710   -0.044943
      7          7           0       -0.754431    1.237107    0.144690
      8          1           0       -1.272490   -1.601256   -0.382382
      9          1           0       -3.191783   -0.327591   -0.053276
     10          1           0       -0.029004   -1.569640    1.078343
     11          1           0        3.101770    0.115813   -0.316114
     12          1           0        2.514750   -1.435325   -0.484765
     13          1           0        1.226162    2.124398   -0.092776
     14          1           0       -1.309405    1.970813   -0.261380
 ---------------------------------------------------------------------

 SCF Done:  E(RHF) =  -319.112199556     A.U. after    2 cycles

 The electronic state is 1-A.
 Alpha  occ. eigenvalues --  -15.53701 -15.50444 -15.48470 -11.32757 -11.27213
 Alpha  occ. eigenvalues --  -11.24544 -11.19933  -1.30673  -1.21077  -1.18961
 Alpha  occ. eigenvalues --   -1.03897  -0.95249  -0.82496  -0.81694  -0.77346
 Alpha  occ. eigenvalues --   -0.71250  -0.67295  -0.65545  -0.60591  -0.58507
 Alpha  occ. eigenvalues --   -0.54732  -0.53026  -0.51525  -0.43931  -0.37090
 Alpha  occ. eigenvalues --   -0.29417
 Alpha virt. eigenvalues --    0.03083   0.03779   0.04553   0.05458   0.06083
 Alpha virt. eigenvalues --    0.06592   0.08388   0.09843   0.10657   0.11103
 Alpha virt. eigenvalues --    0.11973   0.12609   0.13799   0.14194   0.15477

 Mulliken charges:
               1
     1  N    0.662301
     2  C   -2.069788
     3  C   -0.211156
     4  C   -0.834655
     5  N    0.694272
     6  C    0.304645
     7  N    0.730353
     8  H    0.658769
     9  H    0.001134
    10  H    0.067679
    11  H    0.061083
    12  H    0.084632
    13  H   -0.233723
    14  H    0.084452
 Sum of Mulliken charges =   0.00000

 Dipole moment (field-independent basis, Debye):
    X=              0.5374    Y=              1.9246    Z=             -0.6602  Tot=              2.1044

 Test job not archived.
 1\1\GINC-SE135\SP\RHF\Aug-CC-pVDZ\C4H7N3\OHZDE\09-Apr-2025\0\\#t hf au
 g-cc-pvdz iop(5/13=1,5/36=2,99/5=2) pseudo=read geom=check guess=(read
 ,tcheck) scf=(maxcycle=1)\\title\\0,1\N,0,-2.35546235,-0.53997727,-0.2
 18202\C,0,-1.23251671,0.04048885,0.1630183\C,0,-0.16525803,-0.92307596
 ,0.15142884\C,0,1.03298738,-0.07818007,-0.01725331\N,0,2.31803825,-0.5
 9827105,-0.04730434\C,0,0.65508971,1.21635327,0.05620678\N,0,-0.767151
 7,1.29689715,0.2641719\H,0,-1.40297724,-1.48042244,-0.43204512\H,0,-3.
 26677825,-0.15532705,-0.00240931\H,0,-0.14603784,-1.58904709,1.0133888

 Normal termination of Gaussian 16 at Wed Apr  9 17:59:43 2025.
