 Gaussian 16, Revision C.01,

 ----------------------------------------------------------------------
 #t hf aug-cc-pvdz symm=none int=(grid=ultrafine) guess=(read,tcheck) s
 table=(opt,rrhf)
 ----------------------------------------------------------------------
 -----
 title
 -----
 Symbolic Z-matrix:
 Charge =  0 Multiplicity = 1

 SCF Done:  E(RHF) =  -381.697212853     A.U. after   16 cycles

 1\1\GINC-SE454\Stability\RHF\Aug-CC-pVDZ\C4H10O3\OHZDE\09-Apr-2025\0\\
 #t hf aug-cc-pvdz symm=none int=(grid=ultrafine) guess=(read,tcheck) s
 table=(opt,rrhf)\\title\\0,1\C,0,2.84173518,0.33467347,-0.42841882\O,0
 ,1.77197602,-0.05609126,0.39319815\C,0,0.56048663,-0.14312614,-0.30654
 789\C,0,-0.52918355,-0.47546128,0.68941025\O,0,-0.81542717,0.37367093,
 1.57000932\C,0,-2.21771248,-0.55312295,-0.61353253\O,0,-2.84649026,0.5
 2428856,-0.47466421\H,0,3.73272649,0.37533345,0.19590166\H,0,2.6668091
 8,1.32522523,-0.86758557\H,0,3.00865529,-0.3845648,-1.24112696\H,0,0.3

 Normal termination of Gaussian 16 at Wed Apr  9 19:13:08 2025.
 Gaussian 16:  ES64L-G16RevC.01  3-Jul-2019

 ----------------------------------------------------------------------
 #t hf aug-cc-pvdz iop(5/13=1,5/36=2,99/5=2) pseudo=read geom=check gue
 ss=(read,tcheck) scf=(maxcycle=1)
 ----------------------------------------------------------------------
 -----
 title
 -----
 Structure from the checkpoint file:  "Grambow2020_wb97xd3_008927_forward_mol1.chk"
 Charge =  0 Multiplicity = 1

                         Standard orientation:
 ---------------------------------------------------------------------
 Center     Atomic      Atomic             Coordinates (Angstroms)
 Number     Number       Type             X           Y           Z
 ---------------------------------------------------------------------
      1          6           0        3.027263   -0.414025   -0.337470
      2          8           0        1.937673    0.307770    0.176283
      3          6           0        0.736888   -0.412524    0.111329
      4          6           0       -0.374601    0.491064    0.599060
      5          8           0       -0.661914    1.507955   -0.080498
      6          6           0       -2.041992   -0.827004    0.405871
      7          8           0       -2.655587   -0.502268   -0.639839
      8          1           0        3.908160    0.219288   -0.246741
      9          1           0        2.875727   -0.667234   -1.394627
     10          1           0        3.196235   -1.342074    0.224521
     11          1           0        0.517347   -0.716974   -0.923608
     12          1           0        0.797818   -1.317185    0.734660
     13          1           0       -0.576513    0.532180    1.673402
     14          1           0       -1.644721    1.304431   -0.985731
     15          1           0       -2.484302   -0.583811    1.377088
     16          1           0       -1.351532   -1.674004    0.361525
     17          1           0       -2.284940    0.712659   -1.140809
 ---------------------------------------------------------------------

 SCF Done:  E(RHF) =  -382.087387056     A.U. after    2 cycles

 The electronic state is 1-A.
 Alpha  occ. eigenvalues --  -20.59337 -20.58922 -20.55955 -11.33532 -11.33415
 Alpha  occ. eigenvalues --  -11.30699 -11.29141  -1.50204  -1.48722  -1.47531
 Alpha  occ. eigenvalues --   -1.03167  -0.93364  -0.89114  -0.83015  -0.73696
 Alpha  occ. eigenvalues --   -0.71269  -0.69715  -0.68069  -0.66237  -0.64928
 Alpha  occ. eigenvalues --   -0.64481  -0.58673  -0.56732  -0.50430  -0.49662
 Alpha  occ. eigenvalues --   -0.46321  -0.44721  -0.43288  -0.36835
 Alpha virt. eigenvalues --    0.02565   0.03377   0.04142   0.04629   0.05263
 Alpha virt. eigenvalues --    0.06012   0.06503   0.07900   0.08688   0.09009
 Alpha virt. eigenvalues --    0.09901   0.11350   0.11402   0.14258   0.14397

 Mulliken charges:
               1
     1  C    0.060552
     2  O   -1.283246
     3  C    0.613146
     4  C    0.910215
     5  O   -1.333966
     6  C    0.649176
     7  O   -1.095079
     8  H   -0.026653
     9  H    0.178166
    10  H    0.192964
    11  H    0.157268
    12  H    0.100006
    13  H    0.145661
    14  H    0.197858
    15  H    0.132572
    16  H    0.133807
    17  H    0.267553
 Sum of Mulliken charges =   0.00000

 Dipole moment (field-independent basis, Debye):
    X=              1.6240    Y=             -2.8955    Z=              1.6591  Tot=              3.7113

 Test job not archived.
 1\1\GINC-SE454\SP\RHF\Aug-CC-pVDZ\C4H10O3\OHZDE\09-Apr-2025\0\\#t hf a
 ug-cc-pvdz iop(5/13=1,5/36=2,99/5=2) pseudo=read geom=check guess=(rea
 d,tcheck) scf=(maxcycle=1)\\title\\0,1\C,0,2.84173518,0.33467347,-0.42
 841882\O,0,1.77197602,-0.05609126,0.39319815\C,0,0.56048663,-0.1431261
 4,-0.30654789\C,0,-0.52918355,-0.47546128,0.68941025\O,0,-0.81542717,0
 .37367093,1.57000932\C,0,-2.21771248,-0.55312295,-0.61353253\O,0,-2.84
 649026,0.52428856,-0.47466421\H,0,3.73272649,0.37533345,0.19590166\H,0
 ,2.66680918,1.32522523,-0.86758557\H,0,3.00865529,-0.3845648,-1.241126

 Normal termination of Gaussian 16 at Wed Apr  9 19:13:14 2025.
