 Gaussian 16, Revision C.01,

 ----------------------------------------------------------------------
 #t hf aug-cc-pvdz symm=none int=(grid=ultrafine) guess=(read,tcheck) s
 table=(opt,rrhf)
 ----------------------------------------------------------------------
 -----
 title
 -----
 Symbolic Z-matrix:
 Charge =  0 Multiplicity = 1

 SCF Done:  E(RHF) =  -268.830714407     A.U. after   14 cycles
 Normal termination of Gaussian 16 at Wed Apr  9 15:56:51 2025.
 Gaussian 16:  ES64L-G16RevC.01  3-Jul-2019

 ----------------------------------------------------------------------
 #t hf aug-cc-pvdz iop(5/13=1,5/36=2,99/5=2) pseudo=read geom=check gue
 ss=(read,tcheck) scf=(maxcycle=1)
 ----------------------------------------------------------------------
 -----
 title
 -----
 Structure from the checkpoint file:  "Grambow2020_b97d3_007031_forward_mol2.chk"
 Charge =  0 Multiplicity = 1

                         Standard orientation:
 ---------------------------------------------------------------------
 Center     Atomic      Atomic             Coordinates (Angstroms)
 Number     Number       Type             X           Y           Z
 ---------------------------------------------------------------------
      1          6           0        2.935492    0.366415    0.081998
      2          6           0        1.569663   -0.148115   -0.016639
      3          6           0        0.446933   -0.617383   -0.108156
      4          6           0       -0.941080   -1.078721   -0.195109
      5          6           0       -1.913949   -0.037842    0.408801
      6          8           0       -1.835306    1.217107   -0.246466
      7          1           0        2.943199    1.434196    0.348384
      8          1           0        3.508159   -0.172439    0.851788
      9          1           0        3.471075    0.256867   -0.873042
     10          1           0       -1.211564   -1.248332   -1.249340
     11          1           0       -1.060968   -2.040430    0.330467
     12          1           0       -2.946233   -0.388541    0.278015
     13          1           0       -1.713204    0.047166    1.493039
     14          1           0       -0.890371    1.468531   -0.232951
 ---------------------------------------------------------------------

 SCF Done:  E(RHF) =  -269.114299824     A.U. after    2 cycles

 The electronic state is 1-A.
 Alpha  occ. eigenvalues --  -20.54627 -11.29263 -11.26609 -11.26412 -11.24468
 Alpha  occ. eigenvalues --  -11.23914  -1.44300  -1.08026  -1.03101  -0.95040
 Alpha  occ. eigenvalues --   -0.86391  -0.69380  -0.67526  -0.64004  -0.63185
 Alpha  occ. eigenvalues --   -0.59728  -0.59483  -0.56874  -0.56337  -0.49979
 Alpha  occ. eigenvalues --   -0.44429  -0.38229  -0.37927
 Alpha virt. eigenvalues --    0.03113   0.03749   0.04406   0.04875   0.05885
 Alpha virt. eigenvalues --    0.06234   0.06510   0.07823   0.10291   0.12202
 Alpha virt. eigenvalues --    0.12383   0.13169   0.14191   0.14925   0.15517

 Mulliken charges:
               1
     1  C   -0.917573
     2  C   -0.102688
     3  C    0.400650
     4  C   -0.902618
     5  C    0.643242
     6  O   -1.140310
     7  H    0.266542
     8  H    0.278964
     9  H    0.277600
    10  H    0.274217
    11  H    0.299700
    12  H    0.073541
    13  H    0.164023
    14  H    0.384709
 Sum of Mulliken charges =  -0.00000

 Dipole moment (field-independent basis, Debye):
    X=              1.6182    Y=             -0.9264    Z=              0.6475  Tot=              1.9739

 Test job not archived.
 1\1\GINC-SE057\SP\RHF\Aug-CC-pVDZ\C5H8O1\OHZDE\09-Apr-2025\0\\#t hf au
 g-cc-pvdz iop(5/13=1,5/36=2,99/5=2) pseudo=read geom=check guess=(read
 ,tcheck) scf=(maxcycle=1)\\title\\0,1\C,0,2.78034687,0.30781395,-0.136
 01273\C,0,1.37014445,-0.03967665,-0.31076266\C,0,0.20548896,-0.3573299
 5,-0.48904723\C,0,-1.22044118,-0.66759426,-0.62107803\C,0,-2.01998499,
 -0.14673083,0.59713434\O,0,-1.89791018,1.25625535,0.7620146\H,0,2.9164
 4086,1.03092425,0.68238064\H,0,3.38187192,-0.58205681,0.10312321\H,0,3
 .19490718,0.75734694,-1.05089653\H,0,-1.62004389,-0.19993465,-1.534832

 Normal termination of Gaussian 16 at Wed Apr  9 15:56:55 2025.
