 Gaussian 16, Revision C.01,

 ----------------------------------------------------------------------
 #t hf aug-cc-pvdz symm=none int=(grid=ultrafine) guess=(read,tcheck) s
 table=(opt,rrhf)
 ----------------------------------------------------------------------
 -----
 title
 -----
 Symbolic Z-matrix:
 Charge =  0 Multiplicity = 1

 SCF Done:  E(RHF) =  -355.831071516     A.U. after   15 cycles
 Normal termination of Gaussian 16 at Wed Apr  9 19:16:01 2025.
 Gaussian 16:  ES64L-G16RevC.01  3-Jul-2019

 ----------------------------------------------------------------------
 #t hf aug-cc-pvdz iop(5/13=1,5/36=2,99/5=2) pseudo=read geom=check gue
 ss=(read,tcheck) scf=(maxcycle=1)
 ----------------------------------------------------------------------
 -----
 title
 -----
 Structure from the checkpoint file:  "Grambow2020_wb97xd3_008993_reverse_mol1.chk"
 Charge =  0 Multiplicity = 1

                         Standard orientation:
 ---------------------------------------------------------------------
 Center     Atomic      Atomic             Coordinates (Angstroms)
 Number     Number       Type             X           Y           Z
 ---------------------------------------------------------------------
      1          6           0        2.069468   -0.836924   -0.062823
      2          7           0        0.762973   -0.495358    0.509459
      3          6           0        0.202374    0.848862    0.119114
      4          8           0        0.791132    1.453764   -0.735640
      5          7           0       -1.025372    1.045560    0.632537
      6          6           0       -1.972739   -0.344815   -0.273404
      7          7           0       -1.437630   -1.396136   -0.407313
      8          1           0        1.986302   -0.815246   -1.145898
      9          1           0        2.352330   -1.835270    0.267168
     10          1           0        2.820039   -0.109724    0.240616
     11          1           0        0.743729   -0.613997    1.517293
     12          1           0       -1.110540    0.607136    1.544994
     13          1           0       -2.876844    0.209893   -0.467189
     14          1           0       -0.138480   -1.154105    0.088037
 ---------------------------------------------------------------------

 SCF Done:  E(RHF) =  -356.194941560     A.U. after    2 cycles

 The electronic state is 1-A.
 Alpha  occ. eigenvalues --  -20.52736 -15.59725 -15.49051 -15.48927 -11.39272
 Alpha  occ. eigenvalues --  -11.32544 -11.29953  -1.48764  -1.30247  -1.23295
 Alpha  occ. eigenvalues --   -1.17958  -0.98370  -0.84271  -0.81189  -0.78516
 Alpha  occ. eigenvalues --   -0.75682  -0.70677  -0.65032  -0.62331  -0.62127
 Alpha  occ. eigenvalues --   -0.59286  -0.55132  -0.52259  -0.50852  -0.48485
 Alpha  occ. eigenvalues --   -0.45615  -0.38597
 Alpha virt. eigenvalues --    0.02051   0.03770   0.04560   0.04834   0.05348
 Alpha virt. eigenvalues --    0.07087   0.07812   0.09116   0.10212   0.11128
 Alpha virt. eigenvalues --    0.12220   0.12589   0.13078   0.13659   0.14875

 Mulliken charges:
               1
     1  C   -0.393794
     2  N   -0.204401
     3  C   -0.030499
     4  O   -1.140577
     5  N    0.351349
     6  C   -1.160274
     7  N    0.952826
     8  H    0.161665
     9  H    0.069972
    10  H    0.102036
    11  H    0.465957
    12  H    0.279708
    13  H    0.053181
    14  H    0.492851
 Sum of Mulliken charges =   0.00000

 Dipole moment (field-independent basis, Debye):
    X=              1.9560    Y=             -2.3657    Z=              3.2377  Tot=              4.4615

 Test job not archived.
 1\1\GINC-SE041\SP\RHF\Aug-CC-pVDZ\C3H7N3O1\OHZDE\09-Apr-2025\0\\#t hf
 aug-cc-pvdz iop(5/13=1,5/36=2,99/5=2) pseudo=read geom=check guess=(re
 ad,tcheck) scf=(maxcycle=1)\\title\\0,1\C,0,1.85593542,-0.58464016,0.0
 4858047\N,0,0.47012997,-0.20311522,0.34027382\C,0,-0.06968674,0.969492
 72,-0.43892833\O,0,0.61770741,1.39056135,-1.32962338\N,0,-1.36452965,1
 .20179192,-0.15773253\C,0,-2.12625854,-0.42360025,-0.81289971\N,0,-1.5
 4469726,-1.43903907,-0.61234911\H,0,1.93029296,-0.82726016,-1.00784975
 \H,0,2.11902357,-1.45474797,0.64799515\H,0,2.53132681,0.24162554,0.261

 Normal termination of Gaussian 16 at Wed Apr  9 19:16:06 2025.
