 Gaussian 16, Revision C.01,

 ----------------------------------------------------------------------
 #t hf aug-cc-pvdz symm=none int=(grid=ultrafine) guess=(read,tcheck) s
 table=(opt,rrhf)
 ----------------------------------------------------------------------
 -----
 title
 -----
 Symbolic Z-matrix:
 Charge =  0 Multiplicity = 1

 SCF Done:  E(RHF) =  -284.775860175     A.U. after   15 cycles
 Normal termination of Gaussian 16 at Wed Apr  9 03:06:51 2025.
 Gaussian 16:  ES64L-G16RevC.01  3-Jul-2019

 ----------------------------------------------------------------------
 #t hf aug-cc-pvdz iop(5/13=1,5/36=2,99/5=2) pseudo=read geom=check gue
 ss=(read,tcheck) scf=(maxcycle=1)
 ----------------------------------------------------------------------
 -----
 title
 -----
 Structure from the checkpoint file:  "Grambow2020_b97d3_006526_reverse_mol2.chk"
 Charge =  0 Multiplicity = 1

                         Standard orientation:
 ---------------------------------------------------------------------
 Center     Atomic      Atomic             Coordinates (Angstroms)
 Number     Number       Type             X           Y           Z
 ---------------------------------------------------------------------
      1          6           0       -1.304553    0.529392   -0.264679
      2          6           0       -0.998911   -0.862690    0.343025
      3          8           0        0.242583   -1.368981   -0.195466
      4          6           0        1.291668   -0.513912   -0.026494
      5          7           0        1.067044    0.802753    0.074526
      6          6           0       -0.142742    1.452082   -0.040722
      7          1           0       -1.519628    0.376040   -1.336512
      8          1           0       -2.222188    0.936164    0.186607
      9          1           0       -0.922526   -0.788731    1.437693
     10          1           0       -1.747594   -1.618475    0.080897
     11          1           0        2.275195   -0.917363   -0.231071
     12          1           0        1.889009    1.373124    0.259532
     13          1           0       -0.235015    2.342584    0.578115
 ---------------------------------------------------------------------

 SCF Done:  E(RHF) =  -285.069219708     A.U. after    2 cycles

 The electronic state is 1-A.
 Alpha  occ. eigenvalues --  -20.57689 -15.60076 -11.32898 -11.29207 -11.23129
 Alpha  occ. eigenvalues --  -11.21539  -1.49800  -1.28177  -1.05437  -0.93368
 Alpha  occ. eigenvalues --   -0.91245  -0.80841  -0.74517  -0.67903  -0.67529
 Alpha  occ. eigenvalues --   -0.60987  -0.59546  -0.57952  -0.55838  -0.52456
 Alpha  occ. eigenvalues --   -0.48206  -0.44767  -0.23122
 Alpha virt. eigenvalues --    0.03049   0.04264   0.04640   0.05101   0.05623
 Alpha virt. eigenvalues --    0.06544   0.06909   0.09001   0.11014   0.11921
 Alpha virt. eigenvalues --    0.12685   0.13586   0.14205   0.15428   0.15695

 Mulliken charges:
               1
     1  C   -0.513938
     2  C    0.431302
     3  O   -1.237996
     4  C    0.274052
     5  N    0.806760
     6  C   -0.277604
     7  H    0.197879
     8  H    0.208863
     9  H    0.170698
    10  H    0.015241
    11  H   -0.066706
    12  H    0.198903
    13  H   -0.207454
 Sum of Mulliken charges =  -0.00000

 Dipole moment (field-independent basis, Debye):
    X=              1.0438    Y=             -0.1941    Z=              1.2757  Tot=              1.6597

 Test job not archived.
 1\1\GINC-SE092\SP\RHF\Aug-CC-pVDZ\C4H7N1O1\OHZDE\09-Apr-2025\0\\#t hf
 aug-cc-pvdz iop(5/13=1,5/36=2,99/5=2) pseudo=read geom=check guess=(re
 ad,tcheck) scf=(maxcycle=1)\\title\\0,1\C,0,0.57089236,-0.9670991,0.48
 694378\C,0,-0.87354573,-0.98264664,-0.07338683\O,0,-1.549306,0.2435394
 9,0.28358099\C,0,-0.87756913,1.36332056,-0.11028719\N,0,0.45338899,1.3
 2382766,-0.25609656\C,0,1.28950737,0.26300832,0.01604412\H,0,0.4932706
 9,-1.01389591,1.58711838\H,0,1.10051973,-1.87777472,0.16860384\H,0,-0.
 85320106,-1.08667693,-1.16808638\H,0,-1.49132072,-1.77903069,0.3562357

 Normal termination of Gaussian 16 at Wed Apr  9 03:06:56 2025.
