 Gaussian 16, Revision C.01,

 ----------------------------------------------------------------------
 #t hf aug-cc-pvdz symm=none int=(grid=ultrafine) guess=(read,tcheck) s
 table=(opt,rrhf)
 ----------------------------------------------------------------------
 -----
 title
 -----
 Symbolic Z-matrix:
 Charge =  0 Multiplicity = 1

 SCF Done:  E(RHF) =  -325.107779992     A.U. after   14 cycles
 Normal termination of Gaussian 16 at Wed Apr  9 18:49:58 2025.
 Gaussian 16:  ES64L-G16RevC.01  3-Jul-2019

 ----------------------------------------------------------------------
 #t hf aug-cc-pvdz iop(5/13=1,5/36=2,99/5=2) pseudo=read geom=check gue
 ss=(read,tcheck) scf=(maxcycle=1)
 ----------------------------------------------------------------------
 -----
 title
 -----
 Structure from the checkpoint file:  "Grambow2020_wb97xd3_008099_forward_mol2.chk"
 Charge =  0 Multiplicity = 1

                         Standard orientation:
 ---------------------------------------------------------------------
 Center     Atomic      Atomic             Coordinates (Angstroms)
 Number     Number       Type             X           Y           Z
 ---------------------------------------------------------------------
      1          6           0        2.237862   -0.465296    0.625953
      2          6           0        1.410249   -0.088591   -0.594833
      3          7           0        0.091166    0.421852   -0.250941
      4          6           0       -0.006077    1.842389   -0.010464
      5          6           0       -0.916499   -0.475921   -0.064502
      6          8           0       -0.731412   -1.672590   -0.200509
      7          6           0       -2.284804    0.054921    0.310261
      8          1           0        3.223366   -0.823865    0.323105
      9          1           0        1.740949   -1.260773    1.181885
     10          1           0        2.383566    0.388221    1.292048
     11          1           0        1.272700   -0.960512   -1.232540
     12          1           0        1.917488    0.682549   -1.180945
     13          1           0        0.254264    2.403335   -0.912941
     14          1           0       -1.012644    2.123629    0.283152
     15          1           0        0.674580    2.151276    0.789038
     16          1           0       -2.961377   -0.794342    0.342384
     17          1           0       -2.653925    0.781360   -0.415161
     18          1           0       -2.270217    0.531860    1.292133
 ---------------------------------------------------------------------

 SCF Done:  E(RHF) =  -325.453030291     A.U. after    2 cycles

 The electronic state is 1-A.
 Alpha  occ. eigenvalues --  -20.49495 -15.51790 -11.34718 -11.27725 -11.26173
 Alpha  occ. eigenvalues --  -11.24198 -11.22264  -1.44891  -1.25329  -1.04205
 Alpha  occ. eigenvalues --   -0.99983  -0.96681  -0.87258  -0.75333  -0.69638
 Alpha  occ. eigenvalues --   -0.68138  -0.65928  -0.60663  -0.59502  -0.58347
 Alpha  occ. eigenvalues --   -0.57986  -0.55800  -0.55316  -0.52598  -0.50790
 Alpha  occ. eigenvalues --   -0.49263  -0.41211  -0.39101
 Alpha virt. eigenvalues --    0.03175   0.03922   0.04111   0.04591   0.05342
 Alpha virt. eigenvalues --    0.05521   0.06354   0.06937   0.07260   0.09530
 Alpha virt. eigenvalues --    0.10148   0.10977   0.12589   0.13364   0.13995

 Mulliken charges:
               1
     1  C   -0.225394
     2  C   -0.617062
     3  N    0.949052
     4  C   -0.354831
     5  C    0.618224
     6  O   -1.327869
     7  C   -0.577099
     8  H    0.124019
     9  H    0.163899
    10  H    0.112282
    11  H    0.105451
    12  H    0.069709
    13  H    0.189519
    14  H   -0.042050
    15  H    0.195861
    16  H    0.022322
    17  H    0.298533
    18  H    0.295435
 Sum of Mulliken charges =  -0.00000

 Dipole moment (field-independent basis, Debye):
    X=              0.1809    Y=              3.7523    Z=              0.3976  Tot=              3.7777

 Test job not archived.
 1\1\GINC-SE105\SP\RHF\Aug-CC-pVDZ\C5H11N1O1\OHZDE\09-Apr-2025\0\\#t hf
  aug-cc-pvdz iop(5/13=1,5/36=2,99/5=2) pseudo=read geom=check guess=(r
 ead,tcheck) scf=(maxcycle=1)\\title\\0,1\C,0,-2.12844028,0.58871205,-0
 .62304887\C,0,-1.39384043,-0.52203928,0.11435384\N,0,0.02836405,-0.254
 93763,0.27178586\C,0,0.41648966,0.49112939,1.44564887\C,0,0.86555519,-
 0.61500329,-0.74093778\O,0,0.44575947,-1.16444937,-1.74425836\C,0,2.34
 319364,-0.32109041,-0.58378795\H,0,-3.19211303,0.35636042,-0.70128078\
 H,0,-1.72708415,0.69542549,-1.63116217\H,0,-2.0332638,1.54621556,-0.10

 Normal termination of Gaussian 16 at Wed Apr  9 18:50:05 2025.
