 Gaussian 16, Revision C.01,

 ----------------------------------------------------------------------
 #t hf aug-cc-pvdz symm=none int=(grid=ultrafine) guess=(read,tcheck) s
 table=(opt,rrhf)
 ----------------------------------------------------------------------
 -----
 title
 -----
 Symbolic Z-matrix:
 Charge =  0 Multiplicity = 1

 SCF Done:  E(RHF) =  -318.823807564     A.U. after   17 cycles
 Normal termination of Gaussian 16 at Wed Apr  9 18:40:35 2025.
 Gaussian 16:  ES64L-G16RevC.01  3-Jul-2019

 ----------------------------------------------------------------------
 #t hf aug-cc-pvdz iop(5/13=1,5/36=2,99/5=2) pseudo=read geom=check gue
 ss=(read,tcheck) scf=(maxcycle=1)
 ----------------------------------------------------------------------
 -----
 title
 -----
 Structure from the checkpoint file:  "Grambow2020_wb97xd3_007959_forward_mol1.chk"
 Charge =  0 Multiplicity = 1

                         Standard orientation:
 ---------------------------------------------------------------------
 Center     Atomic      Atomic             Coordinates (Angstroms)
 Number     Number       Type             X           Y           Z
 ---------------------------------------------------------------------
      1          6           0       -2.519114    0.144812   -0.535109
      2          6           0       -1.574644   -0.387968    0.541313
      3          6           0       -0.128426   -0.157814    0.252990
      4          6           0        0.912866   -1.084908   -0.026861
      5          7           0        2.089352   -0.627491   -0.260855
      6          7           0        1.502822    1.424680   -0.022440
      7          7           0        0.437556    1.051399    0.191319
      8          1           0       -3.561313   -0.042907   -0.269485
      9          1           0       -2.395281    1.222141   -0.661669
     10          1           0       -2.319654   -0.328152   -1.498437
     11          1           0       -1.840897    0.043751    1.510732
     12          1           0       -1.711727   -1.466944    0.649783
     13          1           0        0.665118   -2.145036   -0.027480
     14          1           0        2.811553   -1.307706   -0.453598
 ---------------------------------------------------------------------

 SCF Done:  E(RHF) =  -319.149068690     A.U. after    2 cycles

 The electronic state is 1-A.
 Alpha  occ. eigenvalues --  -15.62819 -15.62573 -15.48861 -11.29632 -11.26335
 Alpha  occ. eigenvalues --  -11.25231 -11.23165  -1.47046  -1.21817  -1.12818
 Alpha  occ. eigenvalues --   -1.02799  -0.90310  -0.86708  -0.76775  -0.73190
 Alpha  occ. eigenvalues --   -0.69819  -0.69634  -0.64278  -0.61726  -0.59003
 Alpha  occ. eigenvalues --   -0.54529  -0.52072  -0.50741  -0.49477  -0.46831
 Alpha  occ. eigenvalues --   -0.33517
 Alpha virt. eigenvalues --    0.03494   0.03688   0.03962   0.04341   0.05901
 Alpha virt. eigenvalues --    0.06198   0.06723   0.07471   0.08054   0.10565
 Alpha virt. eigenvalues --    0.10763   0.12164   0.13349   0.13663   0.14528

 Mulliken charges:
               1
     1  C   -0.307344
     2  C   -0.262583
     3  C   -0.551598
     4  C   -0.559390
     5  N    0.527295
     6  N    0.891608
     7  N   -0.359060
     8  H    0.104783
     9  H    0.193842
    10  H    0.163595
    11  H    0.169443
    12  H    0.135176
    13  H   -0.196266
    14  H    0.050500
 Sum of Mulliken charges =   0.00000

 Dipole moment (field-independent basis, Debye):
    X=             -2.4370    Y=             -2.7101    Z=              0.3483  Tot=              3.6613

 Test job not archived.
 1\1\GINC-SE174\SP\RHF\Aug-CC-pVDZ\C4H7N3\OHZDE\09-Apr-2025\0\\#t hf au
 g-cc-pvdz iop(5/13=1,5/36=2,99/5=2) pseudo=read geom=check guess=(read
 ,tcheck) scf=(maxcycle=1)\\title\\0,1\C,0,-1.94282586,0.71464634,0.134
 56929\C,0,-1.06795597,-0.50669443,-0.14380582\C,0,0.37471779,-0.312220
 76,0.18561442\C,0,1.51422735,-0.26538782,-0.66375781\N,0,2.66463812,-0
 .06709621,-0.12958759\N,0,1.88373192,0.0570635,1.86716872\N,0,0.838386
 81,-0.11819017,1.42404053\H,0,-2.98635207,0.51423966,-0.1161551\H,0,-1
 .89973454,0.99069351,1.1899986\H,0,-1.60878105,1.57517365,-0.44799934\

 Normal termination of Gaussian 16 at Wed Apr  9 18:40:40 2025.
