 Gaussian 16, Revision C.01,

 ----------------------------------------------------------------------
 #t hf aug-cc-pvdz symm=none int=(grid=ultrafine) guess=(read,tcheck) s
 table=(opt,rrhf)
 ----------------------------------------------------------------------
 -----
 title
 -----
 Symbolic Z-matrix:
 Charge =  0 Multiplicity = 1

 SCF Done:  E(RHF) =  -359.719712623     A.U. after   15 cycles
 Normal termination of Gaussian 16 at Wed Apr  9 18:56:52 2025.
 Gaussian 16:  ES64L-G16RevC.01  3-Jul-2019

 ----------------------------------------------------------------------
 #t hf aug-cc-pvdz iop(5/13=1,5/36=2,99/5=2) pseudo=read geom=check gue
 ss=(read,tcheck) scf=(maxcycle=1)
 ----------------------------------------------------------------------
 -----
 title
 -----
 Structure from the checkpoint file:  "Grambow2020_wb97xd3_008366_forward_mol2.chk"
 Charge =  0 Multiplicity = 1

                         Standard orientation:
 ---------------------------------------------------------------------
 Center     Atomic      Atomic             Coordinates (Angstroms)
 Number     Number       Type             X           Y           Z
 ---------------------------------------------------------------------
      1          8           0        1.262819   -1.450875   -0.253738
      2          6           0        1.165949   -0.172133    0.312089
      3          6           0        0.998628    1.047173   -0.613044
      4          7           0       -0.107742    1.510332    0.250639
      5          6           0       -0.243372    0.176540    0.833236
      6          6           0       -1.323747   -0.685970    0.222038
      7          8           0       -2.107281   -0.279340   -0.592302
      8          1           0        2.162368   -1.602592   -0.547548
      9          1           0        1.927904   -0.014697    1.080057
     10          1           0        0.681444    0.728118   -1.611027
     11          1           0        1.834700    1.744302   -0.692788
     12          1           0       -0.937376    1.797711   -0.254925
     13          1           0       -0.374382    0.149966    1.921642
     14          1           0       -1.369516   -1.727070    0.592506
 ---------------------------------------------------------------------

 SCF Done:  E(RHF) =  -360.086837002     A.U. after    2 cycles

 The electronic state is 1-A.
 Alpha  occ. eigenvalues --  -20.57157 -20.55081 -15.49256 -11.34144 -11.30928
 Alpha  occ. eigenvalues --  -11.27791 -11.26541  -1.48611  -1.47896  -1.25238
 Alpha  occ. eigenvalues --   -0.99979  -0.97191  -0.85109  -0.77712  -0.74205
 Alpha  occ. eigenvalues --   -0.72170  -0.69049  -0.64212  -0.62724  -0.59087
 Alpha  occ. eigenvalues --   -0.56780  -0.55417  -0.53361  -0.49048  -0.44515
 Alpha  occ. eigenvalues --   -0.44381  -0.40802
 Alpha virt. eigenvalues --    0.02908   0.03909   0.04350   0.04719   0.05821
 Alpha virt. eigenvalues --    0.06683   0.07244   0.09641   0.10344   0.11266
 Alpha virt. eigenvalues --    0.13104   0.13774   0.14066   0.14261   0.14724

 Mulliken charges:
               1
     1  O   -1.373085
     2  C    1.439153
     3  C   -0.188130
     4  N    0.459471
     5  C   -1.247622
     6  C    1.303107
     7  O   -1.186163
     8  H    0.304388
     9  H    0.101945
    10  H    0.003014
    11  H   -0.003482
    12  H    0.290990
    13  H   -0.017302
    14  H    0.113716
 Sum of Mulliken charges =  -0.00000

 Dipole moment (field-independent basis, Debye):
    X=              3.1614    Y=             -0.8876    Z=              0.8123  Tot=              3.3826

 Test job not archived.
 1\1\GINC-SE145\SP\RHF\Aug-CC-pVDZ\C4H7N1O2\OHZDE\09-Apr-2025\0\\#t hf
 aug-cc-pvdz iop(5/13=1,5/36=2,99/5=2) pseudo=read geom=check guess=(re
 ad,tcheck) scf=(maxcycle=1)\\title\\0,1\O,0,-0.67503224,-1.47251451,0.
 92057482\C,0,-0.72292926,-0.63560148,-0.20281564\C,0,-1.09061481,0.848
 07546,-0.01819664\N,0,0.07156921,1.20740656,-0.85767841\C,0,0.65718567
 ,-0.11667017,-0.6559672\C,0,1.700857,-0.19956458,0.4342509\O,0,2.12423
 367,0.76359242,1.01347906\H,0,-1.56161306,-1.76252893,1.14056955\H,0,-
 1.266491,-1.10301145,-1.02816766\H,0,-0.98845568,1.13852349,1.03231548

 Normal termination of Gaussian 16 at Wed Apr  9 18:56:57 2025.
