 Gaussian 16, Revision C.01,

 ----------------------------------------------------------------------
 #t hf aug-cc-pvdz symm=none int=(grid=ultrafine) guess=(read,tcheck) s
 table=(opt,rrhf)
 ----------------------------------------------------------------------
 -----
 title
 -----
 Symbolic Z-matrix:
 Charge =  0 Multiplicity = 1

 SCF Done:  E(RHF) =  -305.846648728     A.U. after   13 cycles
 Normal termination of Gaussian 16 at Wed Apr  9 03:06:34 2025.
 Gaussian 16:  ES64L-G16RevC.01  3-Jul-2019

 ----------------------------------------------------------------------
 #t hf aug-cc-pvdz iop(5/13=1,5/36=2,99/5=2) pseudo=read geom=check gue
 ss=(read,tcheck) scf=(maxcycle=1)
 ----------------------------------------------------------------------
 -----
 title
 -----
 Structure from the checkpoint file:  "Grambow2020_b97d3_006519_reverse_mol2.chk"
 Charge =  0 Multiplicity = 1

                         Standard orientation:
 ---------------------------------------------------------------------
 Center     Atomic      Atomic             Coordinates (Angstroms)
 Number     Number       Type             X           Y           Z
 ---------------------------------------------------------------------
      1          8           0       -0.693031   -1.304118   -0.691457
      2          6           0       -1.107523   -0.829896    0.563601
      3          6           0       -1.480074    0.633322    0.523881
      4          6           0        2.436244   -0.462094    0.120131
      5          6           0        2.193166    0.845212   -0.046361
      6          8           0       -1.386617    1.288945   -0.503173
      7          1           0       -0.746248   -0.522768   -1.286415
      8          1           0       -1.981488   -1.396188    0.941615
      9          1           0       -0.306943   -0.938556    1.321446
     10          1           0       -1.835414    1.082736    1.478476
     11          1           0        3.330758   -0.815741    0.636366
     12          1           0        1.746767   -1.217359   -0.259615
     13          1           0        1.302029    1.198941   -0.566690
     14          1           0        2.876840    1.611043    0.324345
 ---------------------------------------------------------------------

 SCF Done:  E(RHF) =  -306.161335803     A.U. after    2 cycles

 The electronic state is 1-A.
 Alpha  occ. eigenvalues --  -20.57339 -20.56247 -11.36838 -11.31527 -11.24005
 Alpha  occ. eigenvalues --  -11.23848  -1.50181  -1.45693  -1.02953  -1.01335
 Alpha  occ. eigenvalues --   -0.82143  -0.78967  -0.73756  -0.68500  -0.67122
 Alpha  occ. eigenvalues --   -0.63923  -0.61007  -0.59397  -0.55226  -0.53907
 Alpha  occ. eigenvalues --   -0.50380  -0.45931  -0.44788  -0.37967
 Alpha virt. eigenvalues --    0.03037   0.04045   0.04214   0.05365   0.06114
 Alpha virt. eigenvalues --    0.06664   0.07940   0.08599   0.09249   0.10429
 Alpha virt. eigenvalues --    0.11578   0.12991   0.13574   0.14544   0.14829

 Mulliken charges:
               1
     1  O   -1.217557
     2  C    0.445393
     3  C    0.885542
     4  C    0.135739
     5  C    0.070471
     6  O   -1.089350
     7  H    0.439561
     8  H    0.144995
     9  H    0.274713
    10  H    0.123015
    11  H   -0.047208
    12  H   -0.039401
    13  H   -0.068006
    14  H   -0.057907
 Sum of Mulliken charges =   0.00000

 Dipole moment (field-independent basis, Debye):
    X=             -0.7608    Y=             -0.1220    Z=              2.6428  Tot=              2.7528

 Test job not archived.
 1\1\GINC-SE036\SP\RHF\Aug-CC-pVDZ\C4H8O2\OHZDE\09-Apr-2025\0\\#t hf au
 g-cc-pvdz iop(5/13=1,5/36=2,99/5=2) pseudo=read geom=check guess=(read
 ,tcheck) scf=(maxcycle=1)\\title\\0,1\O,0,-1.63060635,0.39505945,-0.67
 320889\C,0,-1.50826475,-0.57400831,0.33565297\C,0,-1.04471465,0.022301
 37,1.64367256\C,0,1.55046467,-0.19469435,-1.50568488\C,0,2.01677524,0.
 45534681,-0.43057772\O,0,-0.79278517,1.21342605,1.74935578\H,0,-1.3598
 3991,1.23883864,-0.24655204\H,0,-2.47017646,-1.09286983,0.5170491\H,0,
 -0.77342708,-1.35532047,0.05883588\H,0,-0.9376455,-0.68001641,2.500863

 Normal termination of Gaussian 16 at Wed Apr  9 03:06:39 2025.
