 Gaussian 16, Revision C.01,

 ----------------------------------------------------------------------
 #t hf aug-cc-pvdz symm=none int=(grid=ultrafine) guess=(read,tcheck) s
 table=(opt,rrhf)
 ----------------------------------------------------------------------
 -----
 title
 -----
 Symbolic Z-matrix:
 Charge =  0 Multiplicity = 1

 SCF Done:  E(RHF) =  -308.873200223     A.U. after   16 cycles

 1\1\GINC-SE097\Stability\RHF\Aug-CC-pVDZ\C6H12O1\OHZDE\09-Apr-2025\0\\
 #t hf aug-cc-pvdz symm=none int=(grid=ultrafine) guess=(read,tcheck) s
 table=(opt,rrhf)\\title\\0,1\C,0,1.97086343,-0.73342616,-0.45242042\O,
 0,1.27081652,-0.56502465,0.77338213\C,0,0.53479796,0.53618428,0.924281
 36\C,0,0.64634842,1.74298147,0.17793168\C,0,-1.31800994,1.02669172,0.0
 1680142\C,0,-1.39333158,-0.29902123,0.47779503\C,0,-1.35171039,-1.4817
 6642,-0.4429893\H,0,2.7012996,0.0619764,-0.5975732\H,0,1.27580302,-0.7
 5452329,-1.29478989\H,0,2.47357514,-1.69417507,-0.37550041\H,0,0.22868

 Normal termination of Gaussian 16 at Wed Apr  9 18:59:17 2025.
 Gaussian 16:  ES64L-G16RevC.01  3-Jul-2019

 ----------------------------------------------------------------------
 #t hf aug-cc-pvdz iop(5/13=1,5/36=2,99/5=2) pseudo=read geom=check gue
 ss=(read,tcheck) scf=(maxcycle=1)
 ----------------------------------------------------------------------
 -----
 title
 -----
 Structure from the checkpoint file:  "Grambow2020_wb97xd3_008400_forward_mol1.chk"
 Charge =  0 Multiplicity = 1

                         Standard orientation:
 ---------------------------------------------------------------------
 Center     Atomic      Atomic             Coordinates (Angstroms)
 Number     Number       Type             X           Y           Z
 ---------------------------------------------------------------------
      1          6           0        1.778634   -1.063543   -0.450245
      2          8           0        1.145357   -0.547631    0.713289
      3          6           0        0.540170    0.636518    0.620036
      4          6           0        0.756505    1.626172   -0.379776
      5          6           0       -1.278952    1.122114   -0.355673
      6          6           0       -1.482486   -0.050283    0.392499
      7          6           0       -1.603437   -1.404938   -0.238961
      8          1           0        2.586122   -0.409486   -0.778034
      9          1           0        1.055871   -1.191575   -1.259171
     10          1           0        2.175561   -2.034282   -0.164257
     11          1           0        0.284329    1.002465    1.605640
     12          1           0        1.059444    2.603017   -0.022784
     13          1           0        1.088997    1.341834   -1.366744
     14          1           0       -1.293908    1.061822   -1.437647
     15          1           0       -1.603407    2.079447    0.030269
     16          1           0       -1.850962    0.053370    1.406110
     17          1           0       -2.610740   -1.819910   -0.122022
     18          1           0       -1.404725   -1.362357   -1.314821
     19          1           0       -0.912043   -2.139540    0.189876
 ---------------------------------------------------------------------

 SCF Done:  E(RHF) =  -309.204234717     A.U. after    2 cycles

 The electronic state is 1-A.
 Alpha  occ. eigenvalues --  -20.58600 -11.36660 -11.29479 -11.28944 -11.21405
 Alpha  occ. eigenvalues --  -11.18767 -11.18115  -1.52034  -1.08602  -1.00896
 Alpha  occ. eigenvalues --   -0.96444  -0.91277  -0.80579  -0.75058  -0.71931
 Alpha  occ. eigenvalues --   -0.67088  -0.65748  -0.64036  -0.58127  -0.57721
 Alpha  occ. eigenvalues --   -0.56062  -0.54076  -0.51514  -0.50743  -0.50584
 Alpha  occ. eigenvalues --   -0.48121  -0.40569  -0.22575
 Alpha virt. eigenvalues --    0.03540   0.03758   0.03919   0.04048   0.05711
 Alpha virt. eigenvalues --    0.06042   0.06156   0.06994   0.07077   0.08942
 Alpha virt. eigenvalues --    0.09652   0.10065   0.11661   0.11918   0.13298

 Mulliken charges:
               1
     1  C    0.128661
     2  O   -1.488243
     3  C    1.345571
     4  C    0.030521
     5  C    0.055608
     6  C    0.400825
     7  C   -0.637327
     8  H    0.183800
     9  H    0.237846
    10  H   -0.043244
    11  H   -0.086770
    12  H   -0.113424
    13  H   -0.145516
    14  H   -0.014590
    15  H   -0.067230
    16  H   -0.212927
    17  H    0.035200
    18  H    0.157498
    19  H    0.233744
 Sum of Mulliken charges =  -0.00000

 Dipole moment (field-independent basis, Debye):
    X=              0.5505    Y=             -0.1078    Z=             -0.5770  Tot=              0.8047

 Test job not archived.
 1\1\GINC-SE097\SP\RHF\Aug-CC-pVDZ\C6H12O1\OHZDE\09-Apr-2025\0\\#t hf a
 ug-cc-pvdz iop(5/13=1,5/36=2,99/5=2) pseudo=read geom=check guess=(rea
 d,tcheck) scf=(maxcycle=1)\\title\\0,1\C,0,1.97086343,-0.73342616,-0.4
 5242042\O,0,1.27081652,-0.56502465,0.77338213\C,0,0.53479796,0.5361842
 8,0.92428136\C,0,0.64634842,1.74298147,0.17793168\C,0,-1.31800994,1.02
 669172,0.01680142\C,0,-1.39333158,-0.29902123,0.47779503\C,0,-1.351710
 39,-1.48176642,-0.4429893\H,0,2.7012996,0.0619764,-0.5975732\H,0,1.275
 80302,-0.75452329,-1.29478989\H,0,2.47357514,-1.69417507,-0.37550041\H

 Normal termination of Gaussian 16 at Wed Apr  9 18:59:24 2025.
