 Gaussian 16, Revision C.01,

 ----------------------------------------------------------------------
 #t hf aug-cc-pvdz symm=none int=(grid=ultrafine) guess=(read,tcheck) s
 table=(opt,rrhf)
 ----------------------------------------------------------------------
 -----
 title
 -----
 Symbolic Z-matrix:
 Charge =  0 Multiplicity = 1

 SCF Done:  E(RHF) =  -323.701824150     A.U. after   16 cycles
 Normal termination of Gaussian 16 at Wed Apr  9 17:47:06 2025.
 Gaussian 16:  ES64L-G16RevC.01  3-Jul-2019

 ----------------------------------------------------------------------
 #t hf aug-cc-pvdz iop(5/13=1,5/36=2,99/5=2) pseudo=read geom=check gue
 ss=(read,tcheck) scf=(maxcycle=1)
 ----------------------------------------------------------------------
 -----
 title
 -----
 Structure from the checkpoint file:  "Grambow2020_wb97xd3_006820_forward_mol1.chk"
 Charge =  0 Multiplicity = 1

                         Standard orientation:
 ---------------------------------------------------------------------
 Center     Atomic      Atomic             Coordinates (Angstroms)
 Number     Number       Type             X           Y           Z
 ---------------------------------------------------------------------
      1          6           0       -1.984589   -1.043595   -0.284451
      2          6           0       -1.311929    0.302606   -0.259910
      3          6           0       -0.862730    0.900605    0.960509
      4          6           0        0.936806    1.465178   -0.514617
      5          6           0        0.269361    0.280188   -0.182475
      6          7           0        0.758635   -0.912280    0.141109
      7          8           0        2.162897   -0.789709    0.090221
      8          1           0       -3.054718   -0.912979   -0.110699
      9          1           0       -1.571903   -1.701323    0.477118
     10          1           0       -1.842176   -1.520655   -1.253206
     11          1           0       -1.642086    0.997913   -1.023097
     12          1           0       -0.869751    1.968166    1.106071
     13          1           0       -0.756714    0.284464    1.841808
     14          1           0        2.012934    1.484937   -0.587454
     15          1           0        0.375551    2.358701   -0.741743
     16          1           0        2.453721   -1.685492    0.267334
 ---------------------------------------------------------------------

 SCF Done:  E(RHF) =  -324.039490474     A.U. after    2 cycles

 The electronic state is 1-A.
 Alpha  occ. eigenvalues --  -20.53355 -15.46579 -11.32765 -11.28900 -11.28866
 Alpha  occ. eigenvalues --  -11.25153 -11.24058  -1.44353  -1.21187  -1.06312
 Alpha  occ. eigenvalues --   -0.99867  -0.94472  -0.83829  -0.74619  -0.69670
 Alpha  occ. eigenvalues --   -0.67537  -0.64738  -0.61566  -0.59377  -0.57933
 Alpha  occ. eigenvalues --   -0.56901  -0.55033  -0.53765  -0.47754  -0.43401
 Alpha  occ. eigenvalues --   -0.42471  -0.26838
 Alpha virt. eigenvalues --    0.02091   0.03074   0.03696   0.04761   0.05553
 Alpha virt. eigenvalues --    0.05875   0.06324   0.06630   0.06824   0.09240
 Alpha virt. eigenvalues --    0.10707   0.12833   0.13047   0.13665   0.14318

 Mulliken charges:
               1
     1  C   -0.398874
     2  C    0.182943
     3  C    0.459116
     4  C    0.387794
     5  C   -1.494539
     6  N    1.472633
     7  O   -1.224319
     8  H    0.204563
     9  H    0.254344
    10  H    0.232536
    11  H   -0.133654
    12  H   -0.081406
    13  H    0.033250
    14  H   -0.018264
    15  H   -0.165286
    16  H    0.289163
 Sum of Mulliken charges =  -0.00000

 Dipole moment (field-independent basis, Debye):
    X=             -3.3657    Y=              2.7440    Z=              0.5950  Tot=              4.3831

 Test job not archived.
 1\1\GINC-SE174\SP\RHF\Aug-CC-pVDZ\C5H9N1O1\OHZDE\09-Apr-2025\0\\#t hf
 aug-cc-pvdz iop(5/13=1,5/36=2,99/5=2) pseudo=read geom=check guess=(re
 ad,tcheck) scf=(maxcycle=1)\\title\\0,1\C,0,-1.40984168,-1.43047215,-0
 .35827629\C,0,-0.78343523,-0.10239798,-0.68867547\C,0,-0.87743215,1.01
 841122,0.1966247\C,0,1.38636538,1.21966805,-0.55689228\C,0,0.61786699,
 0.18512601,-0.00995716\N,0,0.90202456,-0.65833929,0.97690449\O,0,2.199
 58489,-0.32584447,1.41888833\H,0,-2.45099653,-1.42771353,-0.68754232\H
 ,0,-1.36878967,-1.62754313,0.71054675\H,0,-0.88267341,-2.235433,-0.868

 Normal termination of Gaussian 16 at Wed Apr  9 17:47:12 2025.
