 Gaussian 16, Revision C.01,

 ----------------------------------------------------------------------
 #t hf aug-cc-pvdz symm=none int=(grid=ultrafine) guess=(read,tcheck) s
 table=(opt,rrhf)
 ----------------------------------------------------------------------
 -----
 title
 -----
 Symbolic Z-matrix:
 Charge =  0 Multiplicity = 1

 SCF Done:  E(RHF) =  -355.843029925     A.U. after   16 cycles
 Normal termination of Gaussian 16 at Wed Apr  9 03:59:14 2025.
 Gaussian 16:  ES64L-G16RevC.01  3-Jul-2019

 ----------------------------------------------------------------------
 #t hf aug-cc-pvdz iop(5/13=1,5/36=2,99/5=2) pseudo=read geom=check gue
 ss=(read,tcheck) scf=(maxcycle=1)
 ----------------------------------------------------------------------
 -----
 title
 -----
 Structure from the checkpoint file:  "Grambow2020_wb97xd3_008719_forward_mol1.chk"
 Charge =  0 Multiplicity = 1

                         Standard orientation:
 ---------------------------------------------------------------------
 Center     Atomic      Atomic             Coordinates (Angstroms)
 Number     Number       Type             X           Y           Z
 ---------------------------------------------------------------------
      1          6           0       -2.150066   -0.236571   -0.013145
      2          7           0       -1.286465    0.790620   -0.156552
      3          6           0       -0.018367    0.679288    0.152018
      4          7           0        0.860096    1.794801   -0.006660
      5          6           0        0.598482   -0.608300    0.097852
      6          8           0       -0.103525   -1.675653    0.019591
      7          7           0        1.930935   -0.694878   -0.055724
      8          1           0       -2.183877   -0.747610    0.951586
      9          1           0       -1.166798   -1.313003   -0.235367
     10          1           0       -3.127476   -0.078583   -0.456458
     11          1           0        1.074172    2.221449    0.885544
     12          1           0        0.394636    2.493164   -0.573479
     13          1           0        2.407200    0.166523   -0.276654
     14          1           0        2.318097   -1.577025   -0.339702
 ---------------------------------------------------------------------

 SCF Done:  E(RHF) =  -356.208139560     A.U. after    2 cycles

 The electronic state is 1-A.
 Alpha  occ. eigenvalues --  -20.57322 -15.54058 -15.53341 -15.50456 -11.38022
 Alpha  occ. eigenvalues --  -11.28371 -11.22531  -1.51484  -1.27382  -1.24671
 Alpha  occ. eigenvalues --   -1.17240  -0.98180  -0.90214  -0.84126  -0.75425
 Alpha  occ. eigenvalues --   -0.73514  -0.70833  -0.69649  -0.67160  -0.63267
 Alpha  occ. eigenvalues --   -0.59095  -0.56997  -0.52065  -0.49866  -0.47545
 Alpha  occ. eigenvalues --   -0.44029  -0.29256
 Alpha virt. eigenvalues --    0.02956   0.04219   0.05047   0.05535   0.05907
 Alpha virt. eigenvalues --    0.06346   0.06867   0.07817   0.09755   0.10229
 Alpha virt. eigenvalues --    0.13009   0.13365   0.13461   0.14187   0.15460

 Mulliken charges:
               1
     1  C   -0.575048
     2  N    0.943129
     3  C   -2.099627
     4  N    0.380571
     5  C    0.793000
     6  O   -1.658889
     7  N    0.681181
     8  H    0.082579
     9  H    0.811711
    10  H   -0.088561
    11  H    0.296299
    12  H    0.200261
    13  H    0.132405
    14  H    0.100988
 Sum of Mulliken charges =  -0.00000

 Dipole moment (field-independent basis, Debye):
    X=              2.6249    Y=              0.1597    Z=              0.4668  Tot=              2.6709

 Test job not archived.
 1\1\GINC-SE029\SP\RHF\Aug-CC-pVDZ\C3H7N3O1\OHZDE\09-Apr-2025\0\\#t hf
 aug-cc-pvdz iop(5/13=1,5/36=2,99/5=2) pseudo=read geom=check guess=(re
 ad,tcheck) scf=(maxcycle=1)\\title\\0,1\C,0,1.76259692,0.93638102,0.02
 07781\N,0,1.23383305,-0.22885119,-0.40833379\C,0,0.05004881,-0.6369595
 5,-0.02390551\N,0,-0.46860201,-1.88194404,-0.49535063\C,0,-0.9240458,0
 .33160953,0.3689481\O,0,-0.5922067,1.54427292,0.60876258\N,0,-2.228981
 88,0.01483432,0.31143316\H,0,1.78354561,1.1250486,1.09640611\H,0,0.481
 3302,1.6435543,0.20289323\H,0,2.66640095,1.24605309,-0.4930868\H,0,-0.

 Normal termination of Gaussian 16 at Wed Apr  9 03:59:18 2025.
