 Gaussian 16, Revision C.01,

 ----------------------------------------------------------------------
 #t hf aug-cc-pvdz symm=none int=(grid=ultrafine) guess=(read,tcheck) s
 table=(opt,rrhf)
 ----------------------------------------------------------------------
 -----
 title
 -----
 Symbolic Z-matrix:
 Charge =  0 Multiplicity = 1

 SCF Done:  E(RHF) =  -355.807800309     A.U. after   15 cycles
 Normal termination of Gaussian 16 at Wed Apr  9 03:58:50 2025.
 Gaussian 16:  ES64L-G16RevC.01  3-Jul-2019

 ----------------------------------------------------------------------
 #t hf aug-cc-pvdz iop(5/13=1,5/36=2,99/5=2) pseudo=read geom=check gue
 ss=(read,tcheck) scf=(maxcycle=1)
 ----------------------------------------------------------------------
 -----
 title
 -----
 Structure from the checkpoint file:  "Grambow2020_wb97xd3_008716_forward_mol1.chk"
 Charge =  0 Multiplicity = 1

                         Standard orientation:
 ---------------------------------------------------------------------
 Center     Atomic      Atomic             Coordinates (Angstroms)
 Number     Number       Type             X           Y           Z
 ---------------------------------------------------------------------
      1          6           0        2.144353   -0.074168    0.081891
      2          7           0        1.217078    0.854152   -0.190747
      3          6           0       -0.058014    0.721936    0.092259
      4          7           0       -0.887584    1.846172    0.087632
      5          6           0       -0.743674   -0.527200    0.122766
      6          8           0       -1.943792   -0.717201    0.013137
      7          7           0        0.143040   -1.702910   -0.121556
      8          1           0        3.139981    0.129308   -0.297276
      9          1           0        1.175708   -1.282049   -0.402767
     10          1           0        2.134003   -0.573279    1.053530
     11          1           0       -1.808119    1.656673   -0.283215
     12          1           0       -0.437017    2.638686   -0.343363
     13          1           0        0.336968   -2.222972    0.728342
     14          1           0       -0.354929   -2.314069   -0.769155
 ---------------------------------------------------------------------

 SCF Done:  E(RHF) =  -356.175397409     A.U. after    2 cycles

 The electronic state is 1-A.
 Alpha  occ. eigenvalues --  -20.52942 -15.62314 -15.52750 -15.48718 -11.37599
 Alpha  occ. eigenvalues --  -11.28863 -11.23684  -1.47832  -1.30395  -1.25892
 Alpha  occ. eigenvalues --   -1.16932  -0.98217  -0.90892  -0.82731  -0.78829
 Alpha  occ. eigenvalues --   -0.77266  -0.72978  -0.67410  -0.65676  -0.63621
 Alpha  occ. eigenvalues --   -0.62293  -0.56221  -0.51510  -0.49849  -0.44564
 Alpha  occ. eigenvalues --   -0.43585  -0.26575
 Alpha virt. eigenvalues --    0.01694   0.04000   0.04463   0.04652   0.05357
 Alpha virt. eigenvalues --    0.06571   0.07319   0.07652   0.08892   0.11044
 Alpha virt. eigenvalues --    0.11557   0.12369   0.13489   0.14811   0.15254

 Mulliken charges:
               1
     1  C   -0.549917
     2  N    0.847578
     3  C   -1.614245
     4  N    0.574541
     5  C    0.739284
     6  O   -1.321783
     7  N    0.244318
     8  H   -0.139872
     9  H    0.347544
    10  H    0.032669
    11  H    0.141567
    12  H    0.067116
    13  H    0.419080
    14  H    0.212120
 Sum of Mulliken charges =  -0.00000

 Dipole moment (field-independent basis, Debye):
    X=              1.2798    Y=             -4.2595    Z=             -0.3942  Tot=              4.4651

 Test job not archived.
 1\1\GINC-SE097\SP\RHF\Aug-CC-pVDZ\C3H7N3O1\OHZDE\09-Apr-2025\0\\#t hf
 aug-cc-pvdz iop(5/13=1,5/36=2,99/5=2) pseudo=read geom=check guess=(re
 ad,tcheck) scf=(maxcycle=1)\\title\\0,1\C,0,1.34844769,1.12057944,-0.4
 6923725\N,0,1.24847144,-0.1000513,0.07483307\C,0,0.15763375,-0.8297721
 3,0.0430089\N,0,0.23118528,-2.19611598,0.3255164\C,0,-1.16231117,-0.29
 22488,0.02836877\O,0,-2.19472212,-0.85227789,0.35836372\N,0,-1.2008128
 ,1.19891754,-0.02812658\H,0,2.27862783,1.64549199,-0.28035367\H,0,-0.1
 1400392,1.55936458,0.07925677\H,0,0.93251221,1.30035276,-1.46320942\H,

 Normal termination of Gaussian 16 at Wed Apr  9 03:58:54 2025.
