 Gaussian 16, Revision C.01,

 ----------------------------------------------------------------------
 #t hf aug-cc-pvdz symm=none int=(grid=ultrafine) guess=(read,tcheck) s
 table=(opt,rrhf)
 ----------------------------------------------------------------------
 -----
 title
 -----
 Symbolic Z-matrix:
 Charge =  0 Multiplicity = 1

 SCF Done:  E(RHF) =  -306.985379889     A.U. after   13 cycles

 1\1\GINC-SE131\Stability\RHF\Aug-CC-pVDZ\C4H10O2\OHZDE\09-Apr-2025\0\\
 #t hf aug-cc-pvdz symm=none int=(grid=ultrafine) guess=(read,tcheck) s
 table=(opt,rrhf)\\title\\0,1\C,0,-1.27479078,-1.14627702,0.69395483\C,
 0,-0.11322663,-0.49890553,0.51166953\C,0,0.98931885,-1.08501275,-0.335
 97758\O,0,1.39113185,-0.1108127,-1.32705421\C,0,0.18361952,0.8514666,1
 .13312363\O,0,0.22055635,1.90074702,0.16505755\H,0,-2.27078531,1.59568
 813,-1.89790131\H,0,-1.48388175,-2.10296163,0.2111588\H,0,-2.05709124,
 -0.73944061,1.33602789\H,0,-1.71525232,1.62958024,-1.39896887\H,0,0.65

 Normal termination of Gaussian 16 at Wed Apr  9 16:04:59 2025.
 Gaussian 16:  ES64L-G16RevC.01  3-Jul-2019

 ----------------------------------------------------------------------
 #t hf aug-cc-pvdz iop(5/13=1,5/36=2,99/5=2) pseudo=read geom=check gue
 ss=(read,tcheck) scf=(maxcycle=1)
 ----------------------------------------------------------------------
 -----
 title
 -----
 Structure from the checkpoint file:  "Grambow2020_b97d3_007111_reverse_mol2.chk"
 Charge =  0 Multiplicity = 1

                         Standard orientation:
 ---------------------------------------------------------------------
 Center     Atomic      Atomic             Coordinates (Angstroms)
 Number     Number       Type             X           Y           Z
 ---------------------------------------------------------------------
      1          6           0       -0.691305    1.873282    0.308641
      2          6           0       -0.169200    0.753507   -0.215819
      3          6           0        1.321437    0.519480   -0.245251
      4          8           0        1.608963   -0.766946    0.350727
      5          6           0       -1.019052   -0.350082   -0.813877
      6          8           0       -1.023328   -1.530836   -0.010568
      7          1           0       -1.387337   -0.741973    3.120061
      8          1           0       -0.065462    2.642581    0.765320
      9          1           0       -1.766169    2.058474    0.296806
     10          1           0       -1.309253   -0.877907    2.389223
     11          1           0        1.853327    1.323293    0.290324
     12          1           0        1.659972    0.525345   -1.298029
     13          1           0        2.474502   -1.063750    0.016997
     14          1           0       -2.062690   -0.021305   -0.900201
     15          1           0       -0.651095   -0.571006   -1.837215
     16          1           0       -0.082154   -1.668617    0.233270
 ---------------------------------------------------------------------

 SCF Done:  E(RHF) =  -307.308999516     A.U. after    2 cycles

 The electronic state is 1-A.
 Alpha  occ. eigenvalues --  -20.57580 -20.53067 -11.30994 -11.28705 -11.25399
 Alpha  occ. eigenvalues --  -11.24652  -1.46760  -1.42574  -1.09089  -0.93619
 Alpha  occ. eigenvalues --   -0.91984  -0.76634  -0.71117  -0.68573  -0.65476
 Alpha  occ. eigenvalues --   -0.62870  -0.59771  -0.58011  -0.56445  -0.55571
 Alpha  occ. eigenvalues --   -0.54569  -0.49681  -0.45418  -0.42846  -0.37808
 Alpha virt. eigenvalues --    0.02700   0.03754   0.04159   0.05163   0.06059
 Alpha virt. eigenvalues --    0.06180   0.07101   0.08402   0.09194   0.10844
 Alpha virt. eigenvalues --    0.11265   0.12717   0.13066   0.14214   0.14594

 Mulliken charges:
               1
     1  C    0.123541
     2  C    0.347587
     3  C    0.359432
     4  O   -1.157593
     5  C    0.407045
     6  O   -1.111170
     7  H    0.030551
     8  H   -0.128437
     9  H   -0.124468
    10  H   -0.037561
    11  H    0.050830
    12  H    0.195531
    13  H    0.350304
    14  H    0.039695
    15  H    0.167036
    16  H    0.487676
 Sum of Mulliken charges =  -0.00000

 Dipole moment (field-independent basis, Debye):
    X=              2.8416    Y=              1.8699    Z=             -1.6075  Tot=              3.7623

 Test job not archived.
 1\1\GINC-SE131\SP\RHF\Aug-CC-pVDZ\C4H10O2\OHZDE\09-Apr-2025\0\\#t hf a
 ug-cc-pvdz iop(5/13=1,5/36=2,99/5=2) pseudo=read geom=check guess=(rea
 d,tcheck) scf=(maxcycle=1)\\title\\0,1\C,0,-1.27479078,-1.14627702,0.6
 9395483\C,0,-0.11322663,-0.49890553,0.51166953\C,0,0.98931885,-1.08501
 275,-0.33597758\O,0,1.39113185,-0.1108127,-1.32705421\C,0,0.18361952,0
 .8514666,1.13312363\O,0,0.22055635,1.90074702,0.16505755\H,0,-2.270785
 31,1.59568813,-1.89790131\H,0,-1.48388175,-2.10296163,0.2111588\H,0,-2
 .05709124,-0.73944061,1.33602789\H,0,-1.71525232,1.62958024,-1.3989688

 Normal termination of Gaussian 16 at Wed Apr  9 16:05:05 2025.
