 Gaussian 16, Revision C.01,

 ----------------------------------------------------------------------
 #t hf aug-cc-pvdz symm=none int=(grid=ultrafine) guess=(read,tcheck) s
 table=(opt,rrhf)
 ----------------------------------------------------------------------
 -----
 title
 -----
 Symbolic Z-matrix:
 Charge =  0 Multiplicity = 1

 SCF Done:  E(RHF) =  -338.539224158     A.U. after   17 cycles
 Normal termination of Gaussian 16 at Wed Apr  9 19:06:53 2025.
 Gaussian 16:  ES64L-G16RevC.01  3-Jul-2019

 ----------------------------------------------------------------------
 #t hf aug-cc-pvdz iop(5/13=1,5/36=2,99/5=2) pseudo=read geom=check gue
 ss=(read,tcheck) scf=(maxcycle=1)
 ----------------------------------------------------------------------
 -----
 title
 -----
 Structure from the checkpoint file:  "Grambow2020_wb97xd3_008568_reverse_mol1.chk"
 Charge =  0 Multiplicity = 1

                         Standard orientation:
 ---------------------------------------------------------------------
 Center     Atomic      Atomic             Coordinates (Angstroms)
 Number     Number       Type             X           Y           Z
 ---------------------------------------------------------------------
      1          7           0        2.449692    0.035038   -0.247387
      2          6           0        1.262343    0.021958    0.165038
      3          8           0        0.514953   -1.075378   -0.159486
      4          6           0       -0.769523   -1.154610    0.416850
      5          6           0       -1.769337   -0.288012   -0.341025
      6          6           0       -1.384163    1.137782   -0.132348
      7          7           0       -0.354251    1.612385    0.199642
      8          1           0        2.933985    0.884831    0.017998
      9          1           0        0.562456    1.872800    0.527252
     10          1           0       -0.737480   -0.848528    1.468228
     11          1           0       -1.065401   -2.203364    0.380042
     12          1           0       -1.719319   -0.485212   -1.414731
     13          1           0       -2.797881   -0.452177   -0.019788
 ---------------------------------------------------------------------

 SCF Done:  E(RHF) =  -338.878492097     A.U. after    2 cycles

 The electronic state is 1-A.
 Alpha  occ. eigenvalues --  -20.55680 -15.63117 -15.44177 -11.35786 -11.31229
 Alpha  occ. eigenvalues --  -11.30527 -11.28049  -1.48796  -1.33224  -1.16734
 Alpha  occ. eigenvalues --   -1.08757  -0.95651  -0.90971  -0.77966  -0.73050
 Alpha  occ. eigenvalues --   -0.69351  -0.66645  -0.63851  -0.60429  -0.58022
 Alpha  occ. eigenvalues --   -0.57910  -0.54435  -0.51236  -0.48989  -0.39567
 Alpha  occ. eigenvalues --   -0.28547
 Alpha virt. eigenvalues --    0.01051   0.02796   0.03737   0.04196   0.05258
 Alpha virt. eigenvalues --    0.05855   0.06571   0.07967   0.08263   0.10532
 Alpha virt. eigenvalues --    0.12188   0.12526   0.13023   0.14241   0.14685

 Mulliken charges:
               1
     1  N    0.671961
     2  C   -0.778964
     3  O   -1.274388
     4  C    0.632662
     5  C   -0.260062
     6  C   -0.906419
     7  N    0.926231
     8  H    0.080163
     9  H    0.227796
    10  H    0.216389
    11  H   -0.006026
    12  H    0.276192
    13  H    0.194466
 Sum of Mulliken charges =  -0.00000

 Dipole moment (field-independent basis, Debye):
    X=             -6.1042    Y=              1.7824    Z=              1.2433  Tot=              6.4795

 Test job not archived.
 1\1\GINC-SE018\SP\RHF\Aug-CC-pVDZ\C4H6N2O1\OHZDE\09-Apr-2025\0\\#t hf
 aug-cc-pvdz iop(5/13=1,5/36=2,99/5=2) pseudo=read geom=check guess=(re
 ad,tcheck) scf=(maxcycle=1)\\title\\0,1\N,0,-2.46113779,0.34715443,-0.
 55324302\C,0,-1.21159331,0.2119392,-0.5737155\O,0,-0.72151078,-0.99917
 362,-0.17236929\C,0,0.66602343,-1.19839234,-0.32527602\C,0,1.44647417,
 -0.54183842,0.80822586\C,0,1.29199341,0.93524451,0.6698205\N,0,0.47721
 572,1.56982614,0.09568688\H,0,-2.74719202,1.27369438,-0.84788253\H,0,-
 0.25354319,1.97748697,-0.46582786\H,0,1.00667269,-0.80058033,-1.287467

 Normal termination of Gaussian 16 at Wed Apr  9 19:06:57 2025.
