 Gaussian 16, Revision C.01,

 ----------------------------------------------------------------------
 #t hf aug-cc-pvdz symm=none int=(grid=ultrafine) guess=(read,tcheck) s
 table=(opt,rrhf)
 ----------------------------------------------------------------------
 -----
 title
 -----
 Symbolic Z-matrix:
 Charge =  0 Multiplicity = 1

 SCF Done:  E(RHF) =  -306.503219808     A.U. after   19 cycles
 Normal termination of Gaussian 16 at Wed Apr  9 19:19:11 2025.
 Gaussian 16:  ES64L-G16RevC.01  3-Jul-2019

 ----------------------------------------------------------------------
 #t hf aug-cc-pvdz iop(5/13=1,5/36=2,99/5=2) pseudo=read geom=check gue
 ss=(read,tcheck) scf=(maxcycle=1)
 ----------------------------------------------------------------------
 -----
 title
 -----
 Structure from the checkpoint file:  "Grambow2020_wb97xd3_009278_forward_mol1.chk"
 Charge =  0 Multiplicity = 1

                         Standard orientation:
 ---------------------------------------------------------------------
 Center     Atomic      Atomic             Coordinates (Angstroms)
 Number     Number       Type             X           Y           Z
 ---------------------------------------------------------------------
      1          6           0        2.000914   -0.999959   -0.019921
      2          6           0        1.011322    0.142811   -0.291906
      3          6           0        1.590380    1.506093    0.059473
      4          6           0       -0.216006   -0.146570    0.509525
      5          8           0       -0.969738   -1.149243   -0.048228
      6          6           0       -1.802686   -0.063432    0.108901
      7          6           0       -2.802562    0.584352   -0.138428
      8          1           0        2.259897   -1.045059    1.039986
      9          1           0        2.917459   -0.831934   -0.586271
     10          1           0        1.587662   -1.964801   -0.315572
     11          1           0        0.730066    0.106957   -1.353994
     12          1           0        1.864230    1.546856    1.115500
     13          1           0        2.484538    1.707824   -0.533294
     14          1           0        0.867690    2.300904   -0.130183
     15          1           0       -3.641808    1.233429   -0.216204
 ---------------------------------------------------------------------

 SCF Done:  E(RHF) =  -306.817039192     A.U. after    2 cycles

 The electronic state is 1-A.
 Alpha  occ. eigenvalues --  -20.63430 -11.33644 -11.33207 -11.26242 -11.25156
 Alpha  occ. eigenvalues --  -11.24236 -11.23193  -1.57792  -1.10291  -1.04408
 Alpha  occ. eigenvalues --   -0.94752  -0.90264  -0.80682  -0.76432  -0.71167
 Alpha  occ. eigenvalues --   -0.66986  -0.65466  -0.61045  -0.58119  -0.55670
 Alpha  occ. eigenvalues --   -0.52715  -0.51137  -0.49900  -0.47111  -0.40449
 Alpha  occ. eigenvalues --   -0.31626
 Alpha virt. eigenvalues --    0.02565   0.03432   0.03885   0.04284   0.04459
 Alpha virt. eigenvalues --    0.06054   0.06903   0.07488   0.07788   0.09728
 Alpha virt. eigenvalues --    0.10979   0.12182   0.12769   0.13096   0.14450

 Mulliken charges:
               1
     1  C   -0.061074
     2  C   -1.200615
     3  C   -0.139190
     4  C    0.397931
     5  O   -1.255952
     6  C    0.971031
     7  C    0.298702
     8  H    0.243205
     9  H    0.152901
    10  H    0.156490
    11  H    0.188886
    12  H    0.275631
    13  H    0.154054
    14  H    0.145209
    15  H   -0.327208
 Sum of Mulliken charges =  -0.00000

 Dipole moment (field-independent basis, Debye):
    X=              0.9361    Y=              0.8107    Z=             -1.0462  Tot=              1.6211

 Test job not archived.
 1\1\GINC-SE207\SP\RHF\Aug-CC-pVDZ\C6H8O1\OHZDE\09-Apr-2025\0\\#t hf au
 g-cc-pvdz iop(5/13=1,5/36=2,99/5=2) pseudo=read geom=check guess=(read
 ,tcheck) scf=(maxcycle=1)\\title\\0,1\C,0,-1.44065232,0.70296703,-1.09
 525512\C,0,-0.36321426,-0.10543809,-0.35714962\C,0,-0.95863263,-1.1951
 808,0.52333374\C,0,0.43215193,0.86813056,0.45026869\O,0,1.2887021,1.60
 447806,-0.32990367\C,0,2.05047081,1.01976818,0.65766881\C,0,3.10069197
 ,0.63128498,1.13376357\H,0,-2.09774074,1.2115498,-0.38667321\H,0,-2.04
 987998,0.03162819,-1.70121342\H,0,-0.99762782,1.45116265,-1.75331182\H

 Normal termination of Gaussian 16 at Wed Apr  9 19:19:16 2025.
