 Gaussian 16, Revision C.01,

 ----------------------------------------------------------------------
 #t hf aug-cc-pvdz symm=none int=(grid=ultrafine) guess=(read,tcheck) s
 table=(opt,rrhf)
 ----------------------------------------------------------------------
 -----
 title
 -----
 Symbolic Z-matrix:
 Charge =  0 Multiplicity = 1

 SCF Done:  E(RHF) =  -271.849456672     A.U. after   15 cycles
 Normal termination of Gaussian 16 at Wed Apr  9 03:39:57 2025.
 Gaussian 16:  ES64L-G16RevC.01  3-Jul-2019

 ----------------------------------------------------------------------
 #t hf aug-cc-pvdz iop(5/13=1,5/36=2,99/5=2) pseudo=read geom=check gue
 ss=(read,tcheck) scf=(maxcycle=1)
 ----------------------------------------------------------------------
 -----
 title
 -----
 Structure from the checkpoint file:  "Grambow2020_wb97xd3_007418_forward_mol1.chk"
 Charge =  0 Multiplicity = 1

                         Standard orientation:
 ---------------------------------------------------------------------
 Center     Atomic      Atomic             Coordinates (Angstroms)
 Number     Number       Type             X           Y           Z
 ---------------------------------------------------------------------
      1          6           0        2.426547   -0.487506    0.271288
      2          6           0        1.154694    0.016817   -0.255259
      3          6           0        0.053226   -0.826591   -0.512912
      4          6           0       -1.225366   -0.033238   -0.469169
      5          6           0       -2.300931   -0.652817    0.425830
      6          6           0       -0.742501    1.305194    0.025478
      7          6           0        0.579434    1.330008    0.156155
      8          1           0        1.327506   -1.437509    1.453530
      9          1           0        2.797422   -1.421616   -0.135841
     10          1           0        3.184835    0.230920    0.569118
     11          1           0        1.918506    0.108509   -1.141402
     12          1           0        0.131572   -1.793241   -0.992769
     13          1           0        0.558132   -1.533231    1.160782
     14          1           0       -1.649148    0.084386   -1.477422
     15          1           0       -1.925078   -0.755603    1.445419
     16          1           0       -2.577928   -1.645028    0.065657
     17          1           0       -3.201035   -0.034357    0.444828
     18          1           0       -1.413516    2.123297    0.255726
     19          1           0        1.178115    2.162274    0.503912
 ---------------------------------------------------------------------

 SCF Done:  E(RHF) =  -272.147338067     A.U. after    2 cycles

 The electronic state is 1-A.
 Alpha  occ. eigenvalues --  -11.27436 -11.26014 -11.23826 -11.23744 -11.23545
 Alpha  occ. eigenvalues --  -11.22690 -11.22218  -1.17117  -1.05906  -0.99539
 Alpha  occ. eigenvalues --   -0.92564  -0.85522  -0.75997  -0.73998  -0.69815
 Alpha  occ. eigenvalues --   -0.64062  -0.62081  -0.59784  -0.58456  -0.56022
 Alpha  occ. eigenvalues --   -0.52655  -0.51853  -0.49360  -0.48347  -0.47061
 Alpha  occ. eigenvalues --   -0.36147  -0.25865
 Alpha virt. eigenvalues --    0.03317   0.03468   0.03641   0.04582   0.05177
 Alpha virt. eigenvalues --    0.05273   0.06148   0.07014   0.07794   0.08158
 Alpha virt. eigenvalues --    0.08416   0.10196   0.11134   0.11947   0.13304

 Mulliken charges:
               1
     1  C   -0.039892
     2  C   -0.761902
     3  C    0.274796
     4  C   -1.280905
     5  C   -0.298155
     6  C    0.514719
     7  C    0.608589
     8  H    0.145097
     9  H   -0.085152
    10  H   -0.070259
    11  H    0.526244
    12  H   -0.132821
    13  H    0.130159
    14  H    0.220562
    15  H    0.246114
    16  H    0.169980
    17  H    0.127148
    18  H   -0.135421
    19  H   -0.158901
 Sum of Mulliken charges =   0.00000

 Dipole moment (field-independent basis, Debye):
    X=              0.5307    Y=              0.8099    Z=             -1.3050  Tot=              1.6250

 Test job not archived.
 1\1\GINC-SE344\SP\RHF\Aug-CC-pVDZ\C7H12\OHZDE\09-Apr-2025\0\\#t hf aug
 -cc-pvdz iop(5/13=1,5/36=2,99/5=2) pseudo=read geom=check guess=(read,
 tcheck) scf=(maxcycle=1)\\title\\0,1\C,0,-2.43117258,-0.17852686,0.024
 92306\C,0,-1.11102194,0.45160951,-0.07168869\C,0,-0.08365939,0.2061573
 5,0.86385055\C,0,1.25876495,0.47699885,0.23882037\C,0,2.26011029,-0.66
 627372,0.41764337\C,0,0.88693509,0.71852787,-1.20084651\C,0,-0.4297604
 6,0.69261386,-1.37647081\H,0,-1.44044227,-1.73365064,0.35376318\H,0,-2
 .87562774,-0.25212585,1.01128363\H,0,-3.12841224,-0.04831498,-0.797719

 Normal termination of Gaussian 16 at Wed Apr  9 03:40:05 2025.
