 Gaussian 16, Revision C.01,

 ----------------------------------------------------------------------
 #t hf aug-cc-pvdz symm=none int=(grid=ultrafine) guess=(read,tcheck) s
 table=(opt,rrhf)
 ----------------------------------------------------------------------
 -----
 title
 -----
 Symbolic Z-matrix:
 Charge =  0 Multiplicity = 1

 SCF Done:  E(RHF) =  -305.593761715     A.U. after   20 cycles
 Normal termination of Gaussian 16 at Wed Apr  9 03:16:09 2025.
 Gaussian 16:  ES64L-G16RevC.01  3-Jul-2019

 ----------------------------------------------------------------------
 #t hf aug-cc-pvdz iop(5/13=1,5/36=2,99/5=2) pseudo=read geom=check gue
 ss=(read,tcheck) scf=(maxcycle=1)
 ----------------------------------------------------------------------
 -----
 title
 -----
 Structure from the checkpoint file:  "Grambow2020_b97d3_006973_reverse_mol1.chk"
 Charge =  0 Multiplicity = 1

                         Standard orientation:
 ---------------------------------------------------------------------
 Center     Atomic      Atomic             Coordinates (Angstroms)
 Number     Number       Type             X           Y           Z
 ---------------------------------------------------------------------
      1          8           0        1.812672   -1.057933   -0.161829
      2          6           0        1.928137    0.226217    0.152108
      3          6           0        0.579468    0.968707   -0.273283
      4          6           0       -0.449793    0.094920    0.429186
      5          6           0       -1.923552    0.440119   -0.030887
      6          8           0       -2.028615   -0.896165   -0.150674
      7          1           0       -0.002181   -0.925045    0.136216
      8          1           0        2.157824    0.469858    1.217258
      9          1           0        2.664098    0.770697   -0.493736
     10          1           0        0.503786    2.034124   -0.004240
     11          1           0        0.497470    0.853266   -1.359577
     12          1           0       -0.445372    0.093760    1.523255
     13          1           0       -1.960421    1.031070   -0.964455
     14          1           0       -2.493222    0.925278    0.782563
 ---------------------------------------------------------------------

 SCF Done:  E(RHF) =  -305.907069730     A.U. after    2 cycles

 The electronic state is 1-A.
 Alpha  occ. eigenvalues --  -20.68383 -20.45368 -11.37949 -11.33521 -11.28430
 Alpha  occ. eigenvalues --  -11.27249  -1.51717  -1.34333  -1.09929  -0.96633
 Alpha  occ. eigenvalues --   -0.89441  -0.81034  -0.73558  -0.69564  -0.66860
 Alpha  occ. eigenvalues --   -0.65148  -0.60453  -0.56531  -0.54206  -0.52297
 Alpha  occ. eigenvalues --   -0.51561  -0.49369  -0.35078  -0.31665
 Alpha virt. eigenvalues --   -0.05734   0.01968   0.03000   0.03608   0.05251
 Alpha virt. eigenvalues --    0.05952   0.06375   0.08131   0.08940   0.09594
 Alpha virt. eigenvalues --    0.11733   0.12472   0.13461   0.14214   0.14430

 Mulliken charges:
               1
     1  O   -1.242059
     2  C    0.655458
     3  C   -0.417136
     4  C   -0.152966
     5  C    0.544082
     6  O   -0.798991
     7  H    0.401107
     8  H    0.147370
     9  H    0.143422
    10  H    0.089444
    11  H    0.190653
    12  H    0.079658
    13  H    0.138879
    14  H    0.221078
 Sum of Mulliken charges =  -0.00000

 Dipole moment (field-independent basis, Debye):
    X=             -5.1257    Y=              5.0833    Z=              0.9099  Tot=              7.2760

 Test job not archived.
 1\1\GINC-SE336\SP\RHF\Aug-CC-pVDZ\C4H8O2\OHZDE\09-Apr-2025\0\\#t hf au
 g-cc-pvdz iop(5/13=1,5/36=2,99/5=2) pseudo=read geom=check guess=(read
 ,tcheck) scf=(maxcycle=1)\\title\\0,1\O,0,2.08835064,0.86312432,0.0799
 894\C,0,1.8264391,-0.40838821,-0.19494082\C,0,0.336136,-0.72714647,0.2
 831246\C,0,-0.42439384,0.38504792,-0.42466386\C,0,-1.92120538,0.483475
 07,0.07799244\O,0,-1.64036385,1.79722014,0.15701764\H,0,0.30198226,1.2
 4309284,-0.17435902\H,0,1.94595616,-0.73339719,-1.2564235\H,0,2.397245
 04,-1.12311694,0.45201891\H,0,-0.04581641,-1.73365638,0.0501554\H,0,0.

 Normal termination of Gaussian 16 at Wed Apr  9 03:16:14 2025.
