 Gaussian 16, Revision C.01,

 ----------------------------------------------------------------------
 #t hf aug-cc-pvdz symm=none int=(grid=ultrafine) guess=(read,tcheck) s
 table=(opt,rrhf)
 ----------------------------------------------------------------------
 -----
 title
 -----
 Symbolic Z-matrix:
 Charge =  0 Multiplicity = 1

 SCF Done:  E(RHF) =  -343.753062272     A.U. after   14 cycles
 Normal termination of Gaussian 16 at Wed Apr  9 18:51:44 2025.
 Gaussian 16:  ES64L-G16RevC.01  3-Jul-2019

 ----------------------------------------------------------------------
 #t hf aug-cc-pvdz iop(5/13=1,5/36=2,99/5=2) pseudo=read geom=check gue
 ss=(read,tcheck) scf=(maxcycle=1)
 ----------------------------------------------------------------------
 -----
 title
 -----
 Structure from the checkpoint file:  "Grambow2020_wb97xd3_008131_reverse_mol2.chk"
 Charge =  0 Multiplicity = 1

                         Standard orientation:
 ---------------------------------------------------------------------
 Center     Atomic      Atomic             Coordinates (Angstroms)
 Number     Number       Type             X           Y           Z
 ---------------------------------------------------------------------
      1          6           0       -0.085318   -0.634720    0.663628
      2          8           0        1.087389    0.136456    0.921946
      3          6           0        2.018458    0.154126   -0.034683
      4          6           0       -1.127230    1.456924   -0.188981
      5          6           0       -1.200335    0.154331    0.035865
      6          6           0       -2.402771   -0.675851   -0.304621
      7          8           0        1.974826   -0.429942   -1.075703
      8          1           0       -0.401892   -1.015290    1.637266
      9          1           0        0.172730   -1.484746    0.028009
     10          1           0        2.851689    0.792132    0.289919
     11          1           0       -1.953195    1.990082   -0.643549
     12          1           0       -0.247237    2.032315    0.067627
     13          1           0       -2.783201   -1.198341    0.577853
     14          1           0       -2.148835   -1.438026   -1.046342
     15          1           0       -3.204609   -0.059093   -0.707981
 ---------------------------------------------------------------------

 SCF Done:  E(RHF) =  -344.104519060     A.U. after    2 cycles

 The electronic state is 1-A.
 Alpha  occ. eigenvalues --  -20.60002 -20.54503 -11.39493 -11.30593 -11.25321
 Alpha  occ. eigenvalues --  -11.24038 -11.22819  -1.55754  -1.46595  -1.10733
 Alpha  occ. eigenvalues --   -0.98274  -0.94824  -0.84115  -0.75152  -0.74054
 Alpha  occ. eigenvalues --   -0.69286  -0.67962  -0.62628  -0.60319  -0.59831
 Alpha  occ. eigenvalues --   -0.57230  -0.54061  -0.53282  -0.51250  -0.46048
 Alpha  occ. eigenvalues --   -0.45486  -0.36957
 Alpha virt. eigenvalues --    0.03522   0.03779   0.04045   0.04847   0.05820
 Alpha virt. eigenvalues --    0.06200   0.07614   0.08852   0.10199   0.10437
 Alpha virt. eigenvalues --    0.11907   0.12547   0.14093   0.14467   0.14858

 Mulliken charges:
               1
     1  C    0.580576
     2  O   -1.174052
     3  C    1.238554
     4  C    0.180925
     5  C    0.136111
     6  C   -0.674373
     7  O   -0.968639
     8  H    0.112473
     9  H    0.282133
    10  H    0.084413
    11  H   -0.184002
    12  H   -0.171433
    13  H    0.230631
    14  H    0.230991
    15  H    0.095691
 Sum of Mulliken charges =  -0.00000

 Dipole moment (field-independent basis, Debye):
    X=             -1.1411    Y=              0.0741    Z=              1.5755  Tot=              1.9468

 Test job not archived.
 1\1\GINC-SE112\SP\RHF\Aug-CC-pVDZ\C5H8O2\OHZDE\09-Apr-2025\0\\#t hf au
 g-cc-pvdz iop(5/13=1,5/36=2,99/5=2) pseudo=read geom=check guess=(read
 ,tcheck) scf=(maxcycle=1)\\title\\0,1\C,0,-0.68066834,0.69309502,0.161
 41104\O,0,-0.97617384,0.95656126,-1.20969922\C,0,-0.06482261,1.6463334
 9,-1.89962189\C,0,0.26998054,-1.48069861,-0.58584111\C,0,0.01802913,-0
 .6187475,0.38689152\C,0,0.39560238,-0.85707538,1.81924083\O,0,0.962943
 02,2.08271529,-1.47532289\H,0,-1.6468793,0.69178517,0.67078124\H,0,-0.
 07840639,1.50979146,0.56568\H,0,-0.41351021,1.76248982,-2.93481116\H,0

 Normal termination of Gaussian 16 at Wed Apr  9 18:51:49 2025.
