 Gaussian 16, Revision C.01,

 ----------------------------------------------------------------------
 #t hf aug-cc-pvdz symm=none int=(grid=ultrafine) guess=(read,tcheck) s
 table=(opt,rrhf)
 ----------------------------------------------------------------------
 -----
 title
 -----
 Symbolic Z-matrix:
 Charge =  0 Multiplicity = 1

 SCF Done:  E(RHF) =  -317.654656939     A.U. after   16 cycles
 Normal termination of Gaussian 16 at Wed Apr  9 19:14:44 2025.
 Gaussian 16:  ES64L-G16RevC.01  3-Jul-2019

 ----------------------------------------------------------------------
 #t hf aug-cc-pvdz iop(5/13=1,5/36=2,99/5=2) pseudo=read geom=check gue
 ss=(read,tcheck) scf=(maxcycle=1)
 ----------------------------------------------------------------------
 -----
 title
 -----
 Structure from the checkpoint file:  "Grambow2020_wb97xd3_008982_reverse_mol2.chk"
 Charge =  0 Multiplicity = 1

                         Standard orientation:
 ---------------------------------------------------------------------
 Center     Atomic      Atomic             Coordinates (Angstroms)
 Number     Number       Type             X           Y           Z
 ---------------------------------------------------------------------
      1          7           0        2.195933    0.010287    0.028551
      2          6           0        0.808690    0.095971   -0.003641
      3          6           0        0.093898   -1.244305    0.225346
      4          7           0       -1.319717   -1.145356   -0.284602
      5          6           0       -1.564443    0.030199   -0.058442
      6          7           0       -1.332862    1.206660    0.195786
      7          6           0        0.107559    1.236281   -0.094811
      8          1           0        2.589398   -0.738829   -0.518658
      9          1           0        2.681215    0.878257   -0.130439
     10          1           0        0.563985   -2.035156   -0.359987
     11          1           0        0.154054   -1.529030    1.282137
     12          1           0        0.533652    2.214745   -0.261908
 ---------------------------------------------------------------------

 SCF Done:  E(RHF) =  -317.984292553     A.U. after    2 cycles

 The electronic state is 1-A.
 Alpha  occ. eigenvalues --  -15.52614 -15.51538 -15.51436 -11.36778 -11.31018
 Alpha  occ. eigenvalues --  -11.29593 -11.27981  -1.33741  -1.23390  -1.23330
 Alpha  occ. eigenvalues --   -1.03855  -0.95761  -0.83834  -0.75545  -0.74103
 Alpha  occ. eigenvalues --   -0.69582  -0.67677  -0.66261  -0.59838  -0.58317
 Alpha  occ. eigenvalues --   -0.56400  -0.54355  -0.48471  -0.44247  -0.33335
 Alpha virt. eigenvalues --    0.02501   0.04244   0.04617   0.05233   0.05985
 Alpha virt. eigenvalues --    0.07179   0.09407   0.10125   0.10824   0.11054
 Alpha virt. eigenvalues --    0.11719   0.11753   0.13575   0.14151   0.14984

 Mulliken charges:
               1
     1  N    0.740762
     2  C   -0.861808
     3  C   -0.277803
     4  N    0.759644
     5  C   -1.492036
     6  N    0.690543
     7  C    0.083926
     8  H    0.104863
     9  H    0.051959
    10  H    0.160685
    11  H    0.202726
    12  H   -0.163460
 Sum of Mulliken charges =  -0.00000

 Dipole moment (field-independent basis, Debye):
    X=              3.4204    Y=             -0.4436    Z=             -0.6433  Tot=              3.5085

 Test job not archived.
 1\1\GINC-SE114\SP\RHF\Aug-CC-pVDZ\C4H5N3\OHZDE\09-Apr-2025\0\\#t hf au
 g-cc-pvdz iop(5/13=1,5/36=2,99/5=2) pseudo=read geom=check guess=(read
 ,tcheck) scf=(maxcycle=1)\\title\\0,1\N,0,-1.71368513,0.15014157,0.314
 35804\C,0,-0.37739937,-0.12096547,0.04294979\C,0,0.56664258,1.06190654
 ,0.30619699\N,0,1.85673817,0.84151115,-0.43893804\C,0,1.94228596,-0.37
 660948,-0.39613291\N,0,1.56669987,-1.5337741,-0.24704348\C,0,0.1130126
 4,-1.32284652,-0.29643295\H,0,-2.05904654,1.01602655,-0.06825954\H,0,-
 2.34846801,-0.61129352,0.13711211\H,0,0.14751152,1.98466609,-0.0961541

 Normal termination of Gaussian 16 at Wed Apr  9 19:14:49 2025.
