 Gaussian 16, Revision C.01,

 ----------------------------------------------------------------------
 #t hf aug-cc-pvdz symm=none int=(grid=ultrafine) guess=(read,tcheck) s
 table=(opt,rrhf)
 ----------------------------------------------------------------------
 -----
 title
 -----
 Symbolic Z-matrix:
 Charge =  0 Multiplicity = 1

 SCF Done:  E(RHF) =  -359.633365612     A.U. after   16 cycles
 Normal termination of Gaussian 16 at Wed Apr  9 04:05:47 2025.
 Gaussian 16:  ES64L-G16RevC.01  3-Jul-2019

 ----------------------------------------------------------------------
 #t hf aug-cc-pvdz iop(5/13=1,5/36=2,99/5=2) pseudo=read geom=check gue
 ss=(read,tcheck) scf=(maxcycle=1)
 ----------------------------------------------------------------------
 -----
 title
 -----
 Structure from the checkpoint file:  "Grambow2020_wb97xd3_009244_forward_mol1.chk"
 Charge =  0 Multiplicity = 1

                         Standard orientation:
 ---------------------------------------------------------------------
 Center     Atomic      Atomic             Coordinates (Angstroms)
 Number     Number       Type             X           Y           Z
 ---------------------------------------------------------------------
      1          6           0       -0.523212    1.684781    0.010504
      2          6           0       -0.194771    0.366347    0.586703
      3          6           0       -1.354322   -0.539549    0.424745
      4          8           0       -2.130938   -0.489949   -0.595954
      5          6           0        1.071659   -0.333046    0.052215
      6          8           0        1.137957   -1.541627   -0.060833
      7          7           0        2.049515    0.537598   -0.231459
      8          1           0       -1.804020    0.278076   -1.131981
      9          1           0       -1.198075    2.336388    0.547357
     10          1           0       -0.381866    1.860349   -1.052819
     11          1           0       -0.051989    0.439948    1.674543
     12          1           0       -1.698951   -1.230481    1.190817
     13          1           0        1.818608    1.521186   -0.182352
     14          1           0        2.917418    0.212757   -0.616059
 ---------------------------------------------------------------------

 SCF Done:  E(RHF) =  -359.997115265     A.U. after    2 cycles

 The electronic state is 1-A.
 Alpha  occ. eigenvalues --  -20.66969 -20.51796 -15.52373 -11.42715 -11.36760
 Alpha  occ. eigenvalues --  -11.27886 -11.16987  -1.60199  -1.46942  -1.23256
 Alpha  occ. eigenvalues --   -1.10269  -0.95240  -0.86677  -0.82692  -0.77930
 Alpha  occ. eigenvalues --   -0.75800  -0.72098  -0.68682  -0.64369  -0.61727
 Alpha  occ. eigenvalues --   -0.60318  -0.56690  -0.54314  -0.51345  -0.43986
 Alpha  occ. eigenvalues --   -0.42829  -0.25406
 Alpha virt. eigenvalues --    0.02898   0.03520   0.03934   0.04427   0.05143
 Alpha virt. eigenvalues --    0.06269   0.06875   0.07826   0.10168   0.11014
 Alpha virt. eigenvalues --    0.12184   0.12901   0.13370   0.13923   0.14757

 Mulliken charges:
               1
     1  C   -0.056866
     2  C   -0.554898
     3  C    1.529875
     4  O   -1.307940
     5  C    0.230143
     6  O   -1.307000
     7  N    0.718806
     8  H    0.482307
     9  H   -0.163480
    10  H   -0.094063
    11  H    0.263488
    12  H    0.053343
    13  H    0.133425
    14  H    0.072860
 Sum of Mulliken charges =   0.00000

 Dipole moment (field-independent basis, Debye):
    X=             -1.4302    Y=             -0.4796    Z=              0.5949  Tot=              1.6216

 Test job not archived.
 1\1\GINC-SE345\SP\RHF\Aug-CC-pVDZ\C4H7N1O2\OHZDE\09-Apr-2025\0\\#t hf
 aug-cc-pvdz iop(5/13=1,5/36=2,99/5=2) pseudo=read geom=check guess=(re
 ad,tcheck) scf=(maxcycle=1)\\title\\0,1\C,0,-0.79456152,-1.14950387,-0
 .19989199\C,0,-0.30986221,0.22205663,-0.44896081\C,0,-1.11602689,1.176
 2923,0.34537599\O,0,-1.57817095,0.88821974,1.50763984\C,0,1.18734121,0
 .49031428,-0.19382602\O,0,1.58458353,1.55741432,0.23201524\N,0,1.95246
 353,-0.56073056,-0.51722005\H,0,-1.32506169,-0.05899487,1.65858038\H,0
 ,-1.73019077,-1.4615809,-0.64198848\H,0,-0.423489,-1.70676805,0.656390

 Normal termination of Gaussian 16 at Wed Apr  9 04:05:51 2025.
