 Gaussian 16, Revision C.01,

 ----------------------------------------------------------------------
 #t hf aug-cc-pvdz symm=none int=(grid=ultrafine) guess=(read,tcheck) s
 table=(opt,rrhf)
 ----------------------------------------------------------------------
 -----
 title
 -----
 Symbolic Z-matrix:
 Charge =  0 Multiplicity = 1

 SCF Done:  E(RHF) =  -322.696691437     A.U. after   15 cycles
 Normal termination of Gaussian 16 at Wed Apr  9 03:52:37 2025.
 Gaussian 16:  ES64L-G16RevC.01  3-Jul-2019

 ----------------------------------------------------------------------
 #t hf aug-cc-pvdz iop(5/13=1,5/36=2,99/5=2) pseudo=read geom=check gue
 ss=(read,tcheck) scf=(maxcycle=1)
 ----------------------------------------------------------------------
 -----
 title
 -----
 Structure from the checkpoint file:  "Grambow2020_wb97xd3_008245_forward_mol2.chk"
 Charge =  0 Multiplicity = 1

                         Standard orientation:
 ---------------------------------------------------------------------
 Center     Atomic      Atomic             Coordinates (Angstroms)
 Number     Number       Type             X           Y           Z
 ---------------------------------------------------------------------
      1          6           0        1.815284    0.917427   -0.295858
      2          6           0        0.618825    0.089556    0.027616
      3          7           0        0.749943   -1.132556    0.821421
      4          6           0        0.108153   -1.248706   -0.458701
      5          6           0       -1.357176   -0.832550   -0.346348
      6          6           0       -0.815970    0.544182    0.094031
      7          8           0       -1.327872    1.614737    0.225166
      8          1           0        1.624678    1.552403   -1.162139
      9          1           0        2.670627    0.274964   -0.503496
     10          1           0        2.068321    1.562625    0.547165
     11          1           0        0.100881   -1.187917    1.599015
     12          1           0        0.551674   -1.880553   -1.215374
     13          1           0       -1.969529   -1.404065    0.353153
     14          1           0       -1.887973   -0.726920   -1.294043
 ---------------------------------------------------------------------

 SCF Done:  E(RHF) =  -323.032267446     A.U. after    2 cycles

 The electronic state is 1-A.
 Alpha  occ. eigenvalues --  -20.54693 -15.52700 -11.34745 -11.29151 -11.28661
 Alpha  occ. eigenvalues --  -11.26223 -11.24054  -1.48554  -1.32167  -1.06185
 Alpha  occ. eigenvalues --   -1.01745  -0.88718  -0.87633  -0.74176  -0.70093
 Alpha  occ. eigenvalues --   -0.69160  -0.64954  -0.60481  -0.59436  -0.57727
 Alpha  occ. eigenvalues --   -0.55198  -0.54313  -0.50385  -0.49310  -0.42792
 Alpha  occ. eigenvalues --   -0.40021
 Alpha virt. eigenvalues --    0.03339   0.03957   0.04134   0.04639   0.05906
 Alpha virt. eigenvalues --    0.06101   0.06762   0.08695   0.10194   0.12266
 Alpha virt. eigenvalues --    0.12455   0.12981   0.13337   0.14160   0.15044

 Mulliken charges:
               1
     1  C   -0.677173
     2  C   -1.069283
     3  N    0.618993
     4  C    0.290500
     5  C   -0.228876
     6  C    1.420617
     7  O   -1.366412
     8  H    0.238384
     9  H    0.203652
    10  H    0.252997
    11  H    0.265330
    12  H   -0.187495
    13  H    0.089194
    14  H    0.149571
 Sum of Mulliken charges =   0.00000

 Dipole moment (field-independent basis, Debye):
    X=              0.1769    Y=             -2.0585    Z=             -1.1416  Tot=              2.3605

 Test job not archived.
 1\1\GINC-SE162\SP\RHF\Aug-CC-pVDZ\C5H7N1O1\OHZDE\09-Apr-2025\0\\#t hf
 aug-cc-pvdz iop(5/13=1,5/36=2,99/5=2) pseudo=read geom=check guess=(re
 ad,tcheck) scf=(maxcycle=1)\\title\\0,1\C,0,-1.92446524,-0.0120517,0.0
 801123\C,0,-0.44582315,-0.19176906,0.02681782\N,0,0.23104836,-1.086746
 32,0.96582598\C,0,0.69800817,0.27045453,0.90216561\C,0,1.65307976,0.43
 78291,-0.27801369\C,0,0.45792909,0.0185448,-1.16008262\O,0,0.26366873,
 0.05691989,-2.33741831\H,0,-2.21949597,0.91959566,-0.40461306\H,0,-2.2
 635587,-0.000454,1.11566329\H,0,-2.42450606,-0.83417371,-0.43473718\H,

 Normal termination of Gaussian 16 at Wed Apr  9 03:52:42 2025.
