 Gaussian 16, Revision C.01,

 ----------------------------------------------------------------------
 #t hf aug-cc-pvdz symm=none int=(grid=ultrafine) guess=(read,tcheck) s
 table=(opt,rrhf)
 ----------------------------------------------------------------------
 -----
 title
 -----
 Symbolic Z-matrix:
 Charge =  0 Multiplicity = 1

 SCF Done:  E(RHF) =  -323.809766619     A.U. after   15 cycles
 Normal termination of Gaussian 16 at Wed Apr  9 18:16:26 2025.
 Gaussian 16:  ES64L-G16RevC.01  3-Jul-2019

 ----------------------------------------------------------------------
 #t hf aug-cc-pvdz iop(5/13=1,5/36=2,99/5=2) pseudo=read geom=check gue
 ss=(read,tcheck) scf=(maxcycle=1)
 ----------------------------------------------------------------------
 -----
 title
 -----
 Structure from the checkpoint file:  "Grambow2020_wb97xd3_007261_reverse_mol2.chk"
 Charge =  0 Multiplicity = 1

                         Standard orientation:
 ---------------------------------------------------------------------
 Center     Atomic      Atomic             Coordinates (Angstroms)
 Number     Number       Type             X           Y           Z
 ---------------------------------------------------------------------
      1          6           0       -1.101444    0.814912    1.171825
      2          6           0       -0.595527    0.032571   -0.051505
      3          6           0       -1.759394   -0.594343   -0.804494
      4          6           0        0.364263    0.788863   -0.978265
      5          8           0        1.677777    0.513926   -0.372553
      6          6           0        1.595798   -0.537455    0.317803
      7          7           0        0.363713   -1.014089    0.401612
      8          1           0       -1.660897    0.180488    1.868452
      9          1           0       -1.763964    1.616698    0.840950
     10          1           0       -0.264403    1.266154    1.709963
     11          1           0       -2.369600    0.195594   -1.245485
     12          1           0       -1.385576   -1.220451   -1.612616
     13          1           0       -2.402373   -1.185492   -0.143911
     14          1           0        0.119228   -1.747152    1.045690
     15          1           0        0.256688    1.873332   -0.937270
     16          1           0        2.480519   -1.019241    0.711183
 ---------------------------------------------------------------------

 SCF Done:  E(RHF) =  -324.147071508     A.U. after    2 cycles

 The electronic state is 1-A.
 Alpha  occ. eigenvalues --  -20.61225 -15.56243 -11.39724 -11.27627 -11.22392
 Alpha  occ. eigenvalues --  -11.21617 -11.19354  -1.56610  -1.27934  -1.07592
 Alpha  occ. eigenvalues --   -0.94536  -0.93854  -0.88260  -0.82187  -0.77305
 Alpha  occ. eigenvalues --   -0.67712  -0.66481  -0.63050  -0.59423  -0.56767
 Alpha  occ. eigenvalues --   -0.55416  -0.54559  -0.53503  -0.50666  -0.46831
 Alpha  occ. eigenvalues --   -0.46645  -0.24988
 Alpha virt. eigenvalues --    0.02040   0.03653   0.04214   0.04800   0.05622
 Alpha virt. eigenvalues --    0.06139   0.06796   0.07240   0.07788   0.09602
 Alpha virt. eigenvalues --    0.11003   0.12652   0.12957   0.13636   0.14475

 Mulliken charges:
               1
     1  C    0.024640
     2  C   -2.971160
     3  C    0.362770
     4  C    0.658021
     5  O   -1.157520
     6  C    0.671009
     7  N    1.180249
     8  H    0.164357
     9  H    0.232949
    10  H    0.127609
    11  H    0.253702
    12  H    0.206267
    13  H    0.213120
    14  H    0.083150
    15  H   -0.068495
    16  H    0.019330
 Sum of Mulliken charges =   0.00000

 Dipole moment (field-independent basis, Debye):
    X=              0.5754    Y=             -2.7945    Z=              4.6037  Tot=              5.4162

 Test job not archived.
 1\1\GINC-SE115\SP\RHF\Aug-CC-pVDZ\C5H9N1O1\OHZDE\09-Apr-2025\0\\#t hf
 aug-cc-pvdz iop(5/13=1,5/36=2,99/5=2) pseudo=read geom=check guess=(re
 ad,tcheck) scf=(maxcycle=1)\\title\\0,1\C,0,0.83333545,1.17191108,0.42
 47581\C,0,0.18281285,-0.16530911,0.03334013\C,0,1.22840767,-1.13305697
 ,-0.50032031\C,0,-0.72157217,-0.8043954,1.0943365\O,0,-2.02945842,-0.1
 8948591,0.81305674\C,0,-2.04158382,0.2134427,-0.38118554\N,0,-0.872321
 47,0.08637202,-0.98857052\H,0,1.34462443,1.64806642,-0.419416\H,0,1.57
 064231,1.00014142,1.21098032\H,0,0.0812427,1.86470808,0.80977789\H,0,1

 Normal termination of Gaussian 16 at Wed Apr  9 18:16:32 2025.
