 Gaussian 16, Revision C.01,

 ----------------------------------------------------------------------
 #t hf aug-cc-pvdz symm=none int=(grid=ultrafine) guess=(read,tcheck) s
 table=(opt,rrhf)
 ----------------------------------------------------------------------
 -----
 title
 -----
 Symbolic Z-matrix:
 Charge =  0 Multiplicity = 1

 SCF Done:  E(RHF) =  -354.572909757     A.U. after   17 cycles
 Normal termination of Gaussian 16 at Wed Apr  9 18:20:05 2025.
 Gaussian 16:  ES64L-G16RevC.01  3-Jul-2019

 ----------------------------------------------------------------------
 #t hf aug-cc-pvdz iop(5/13=1,5/36=2,99/5=2) pseudo=read geom=check gue
 ss=(read,tcheck) scf=(maxcycle=1)
 ----------------------------------------------------------------------
 -----
 title
 -----
 Structure from the checkpoint file:  "Grambow2020_wb97xd3_007325_forward_mol1.chk"
 Charge =  0 Multiplicity = 1

                         Standard orientation:
 ---------------------------------------------------------------------
 Center     Atomic      Atomic             Coordinates (Angstroms)
 Number     Number       Type             X           Y           Z
 ---------------------------------------------------------------------
      1          8           0       -2.439755    0.425598   -0.158177
      2          6           0       -1.583115   -0.648843    0.119511
      3          6           0       -0.140326   -0.259415    0.029669
      4          7           0        0.271703    0.970446    0.030896
      5          7           0        1.544113    1.170322    0.110096
      6          6           0        2.043644   -0.905399   -0.026762
      7          7           0        0.867701   -1.194560   -0.050784
      8          1           0       -1.968059    1.241060    0.033993
      9          1           0       -1.781711   -1.447844   -0.599698
     10          1           0       -1.779086   -1.057523    1.120685
     11          1           0        1.779797    2.119170   -0.168802
     12          1           0        2.561265   -0.001158   -0.486730
 ---------------------------------------------------------------------

 SCF Done:  E(RHF) =  -354.928590493     A.U. after    2 cycles

 The electronic state is 1-A.
 Alpha  occ. eigenvalues --  -20.55460 -15.57730 -15.57050 -15.55837 -11.34434
 Alpha  occ. eigenvalues --  -11.32316 -11.30828  -1.46482  -1.39315  -1.29138
 Alpha  occ. eigenvalues --   -1.12129  -0.98606  -0.90534  -0.82861  -0.79203
 Alpha  occ. eigenvalues --   -0.71677  -0.69128  -0.63835  -0.62633  -0.61403
 Alpha  occ. eigenvalues --   -0.56885  -0.54327  -0.52993  -0.45834  -0.45288
 Alpha  occ. eigenvalues --   -0.35522
 Alpha virt. eigenvalues --    0.01765   0.03296   0.04980   0.05320   0.05483
 Alpha virt. eigenvalues --    0.06096   0.07185   0.08147   0.09281   0.10336
 Alpha virt. eigenvalues --    0.12919   0.13869   0.14092   0.14489   0.15479

 Mulliken charges:
               1
     1  O   -1.222111
     2  C    1.403826
     3  C   -2.045828
     4  N    0.114723
     5  N    0.059075
     6  C   -0.395938
     7  N    0.904108
     8  H    0.349506
     9  H    0.146742
    10  H    0.211387
    11  H    0.071559
    12  H    0.402951
 Sum of Mulliken charges =  -0.00000

 Dipole moment (field-independent basis, Debye):
    X=              2.0579    Y=             -0.1486    Z=             -0.4924  Tot=              2.1212

 Test job not archived.
 1\1\GINC-SE045\SP\RHF\Aug-CC-pVDZ\C3H5N3O1\OHZDE\09-Apr-2025\0\\#t hf
 aug-cc-pvdz iop(5/13=1,5/36=2,99/5=2) pseudo=read geom=check guess=(re
 ad,tcheck) scf=(maxcycle=1)\\title\\0,1\O,0,-2.18243393,0.87933718,-0.
 74717729\C,0,-1.66282688,-0.18091098,0.0086316\C,0,-0.16692214,-0.2248
 0614,-0.03269577\N,0,0.56882701,0.76811293,-0.42654059\N,0,1.84471313,
 0.6626119,-0.26456833\C,0,1.75413398,-1.35969103,0.42750486\N,0,0.5449
 6851,-1.33618547,0.36117571\H,0,-1.50833742,1.56232903,-0.80652268\H,0
 ,-2.05771878,-1.11926176,-0.38969307\H,0,-1.98736872,-0.11115973,1.056

 Normal termination of Gaussian 16 at Wed Apr  9 18:20:09 2025.
