 Gaussian 16, Revision C.01,

 ----------------------------------------------------------------------
 #t hf aug-cc-pvdz symm=none int=(grid=ultrafine) guess=(read,tcheck) s
 table=(opt,rrhf)
 ----------------------------------------------------------------------
 -----
 title
 -----
 Symbolic Z-matrix:
 Charge =  0 Multiplicity = 1

 SCF Done:  E(RHF) =  -266.770561612     A.U. after   14 cycles
 Normal termination of Gaussian 16 at Wed Apr  9 03:05:15 2025.
 Gaussian 16:  ES64L-G16RevC.01  3-Jul-2019

 ----------------------------------------------------------------------
 #t hf aug-cc-pvdz iop(5/13=1,5/36=2,99/5=2) pseudo=read geom=check gue
 ss=(read,tcheck) scf=(maxcycle=1)
 ----------------------------------------------------------------------
 -----
 title
 -----
 Structure from the checkpoint file:  "Grambow2020_b97d3_006474_reverse_mol2.chk"
 Charge =  0 Multiplicity = 1

                         Standard orientation:
 ---------------------------------------------------------------------
 Center     Atomic      Atomic             Coordinates (Angstroms)
 Number     Number       Type             X           Y           Z
 ---------------------------------------------------------------------
      1          8           0        2.250669   -0.549056   -0.099551
      2          6           0       -1.495952   -1.194226   -0.093514
      3          6           0       -0.861895   -0.026065   -0.046371
      4          6           0       -0.293831    1.185546   -0.579986
      5          8           0       -0.215512    0.766066    0.860991
      6          1           0        1.768587   -0.114651    0.629718
      7          1           0       -1.908466   -1.549299   -1.034796
      8          1           0       -1.633010   -1.795117    0.803541
      9          1           0        1.651029   -1.279163   -0.337568
     10          1           0       -0.920826    2.063930   -0.745545
     11          1           0        0.671496    1.146696   -1.087650
 ---------------------------------------------------------------------

 SCF Done:  E(RHF) =  -267.043249547     A.U. after    2 cycles

 The electronic state is 1-A.
 Alpha  occ. eigenvalues --  -20.60106 -20.54724 -11.33664 -11.33016 -11.25250
 Alpha  occ. eigenvalues --   -1.53131  -1.42212  -1.03891  -0.96119  -0.79067
 Alpha  occ. eigenvalues --   -0.70822  -0.68517  -0.68138  -0.63943  -0.57252
 Alpha  occ. eigenvalues --   -0.56423  -0.51622  -0.48817  -0.48575  -0.37780
 Alpha virt. eigenvalues --    0.03322   0.03789   0.04663   0.05513   0.07132
 Alpha virt. eigenvalues --    0.07501   0.09044   0.10356   0.11494   0.12779
 Alpha virt. eigenvalues --    0.14483   0.15335   0.15872   0.16791   0.17663

 Mulliken charges:
               1
     1  O   -0.926594
     2  C   -0.129896
     3  C    0.993610
     4  C    0.363222
     5  O   -1.240500
     6  H    0.508283
     7  H   -0.046311
     8  H   -0.065440
     9  H    0.408460
    10  H    0.035234
    11  H    0.099931
 Sum of Mulliken charges =  -0.00000

 Dipole moment (field-independent basis, Debye):
    X=             -2.1926    Y=              0.1550    Z=             -1.1874  Tot=              2.4983

 Test job not archived.
 1\1\GINC-SE273\SP\RHF\Aug-CC-pVDZ\C3H6O2\OHZDE\09-Apr-2025\0\\#t hf au
 g-cc-pvdz iop(5/13=1,5/36=2,99/5=2) pseudo=read geom=check guess=(read
 ,tcheck) scf=(maxcycle=1)\\title\\0,1\O,0,0.11275093,0.48668863,-2.338
 43322\C,0,-1.04958008,0.5884672,1.27986436\C,0,-0.14512974,-0.21562271
 ,0.72826816\C,0,1.17748001,-0.65235419,0.36028439\O,0,-0.09423811,-1.3
 5018078,-0.03250546\H,0,-0.17679615,-0.37566979,-1.98425102\H,0,-0.727
 18317,1.45777453,1.84786348\H,0,-2.11403191,0.37823019,1.19439563\H,0,
 -0.34717953,1.11534376,-1.75317086\H,0,1.78787175,-1.22096872,1.064692

 Normal termination of Gaussian 16 at Wed Apr  9 03:05:18 2025.
