 Gaussian 16, Revision C.01,

 ----------------------------------------------------------------------
 #t hf aug-cc-pvdz symm=none int=(grid=ultrafine) guess=(read,tcheck) s
 table=(opt,rrhf)
 ----------------------------------------------------------------------
 -----
 title
 -----
 Symbolic Z-matrix:
 Charge =  0 Multiplicity = 1

 SCF Done:  E(RHF) =  -306.885362229     A.U. after   16 cycles

 1\1\GINC-SE114\Stability\RHF\Aug-CC-pVDZ\C4H10O2\OHZDE\09-Apr-2025\0\\
 #t hf aug-cc-pvdz symm=none int=(grid=ultrafine) guess=(read,tcheck) s
 table=(opt,rrhf)\\title\\0,1\C,0,2.56568973,-0.91693926,-0.14604151\O,
 0,1.7442387,0.07755932,0.43951083\C,0,-0.25052054,0.51753631,-1.033376
 27\C,0,-0.99158275,0.2530843,0.20578483\C,0,-2.52652275,0.5312784,0.08
 675855\O,0,-0.62902686,-0.74362058,0.98612618\H,0,2.03125764,-1.523503
 ,-0.90365495\H,0,3.41224798,-0.41849363,-0.63657801\H,0,2.95828945,-1.
 61592716,0.61327116\H,0,0.41875499,-0.20055189,-1.49989229\H,0,-0.3327

 Normal termination of Gaussian 16 at Wed Apr  9 03:08:02 2025.
 Gaussian 16:  ES64L-G16RevC.01  3-Jul-2019

 ----------------------------------------------------------------------
 #t hf aug-cc-pvdz iop(5/13=1,5/36=2,99/5=2) pseudo=read geom=check gue
 ss=(read,tcheck) scf=(maxcycle=1)
 ----------------------------------------------------------------------
 -----
 title
 -----
 Structure from the checkpoint file:  "Grambow2020_b97d3_006574_forward_mol1.chk"
 Charge =  0 Multiplicity = 1

                         Standard orientation:
 ---------------------------------------------------------------------
 Center     Atomic      Atomic             Coordinates (Angstroms)
 Number     Number       Type             X           Y           Z
 ---------------------------------------------------------------------
      1          6           0       -2.663958    0.012125    0.301949
      2          8           0       -1.621966   -0.051941   -0.655563
      3          6           0        0.391693    1.205949    0.184038
      4          6           0        1.074241   -0.060485   -0.107340
      5          6           0        2.629136    0.018514    0.046477
      6          8           0        0.504126   -1.202038    0.217661
      7          1           0       -2.300536    0.276932    1.314528
      8          1           0       -3.380058    0.779713   -0.020146
      9          1           0       -3.194194   -0.952619    0.387934
     10          1           0       -0.435549    1.297446    0.882977
     11          1           0        0.691732    2.108673   -0.351827
     12          1           0        0.920130    0.147712   -1.237784
     13          1           0        3.055375   -0.850090   -0.467002
     14          1           0        2.870162   -0.044437    1.114025
     15          1           0        3.057880    0.941429   -0.366938
     16          1           0       -0.928897   -0.729531   -0.303289
 ---------------------------------------------------------------------

 SCF Done:  E(RHF) =  -307.207283665     A.U. after    2 cycles

 The electronic state is 1-A.
 Alpha  occ. eigenvalues --  -20.52142 -20.44509 -11.38908 -11.31245 -11.27528
 Alpha  occ. eigenvalues --  -11.25266  -1.41881  -1.36104  -1.07950  -0.96761
 Alpha  occ. eigenvalues --   -0.91065  -0.81365  -0.70751  -0.68133  -0.64356
 Alpha  occ. eigenvalues --   -0.61665  -0.59767  -0.58053  -0.55848  -0.53873
 Alpha  occ. eigenvalues --   -0.51822  -0.48996  -0.42411  -0.36802  -0.35082
 Alpha virt. eigenvalues --   -0.00742   0.02620   0.03570   0.04476   0.04843
 Alpha virt. eigenvalues --    0.06101   0.06333   0.06798   0.07610   0.08560
 Alpha virt. eigenvalues --    0.10845   0.11469   0.13150   0.13901   0.14723

 Mulliken charges:
               1
     1  C    0.317269
     2  O   -1.212327
     3  C    0.086194
     4  C    0.685200
     5  C   -0.405334
     6  O   -1.536613
     7  H    0.120016
     8  H    0.027137
     9  H    0.084126
    10  H    0.020120
    11  H    0.019428
    12  H    0.469373
    13  H    0.191405
    14  H    0.244908
    15  H    0.164674
    16  H    0.724423
 Sum of Mulliken charges =  -0.00000

 Dipole moment (field-independent basis, Debye):
    X=              1.2159    Y=              5.4847    Z=              0.8087  Tot=              5.6758

 Test job not archived.
 1\1\GINC-SE114\SP\RHF\Aug-CC-pVDZ\C4H10O2\OHZDE\09-Apr-2025\0\\#t hf a
 ug-cc-pvdz iop(5/13=1,5/36=2,99/5=2) pseudo=read geom=check guess=(rea
 d,tcheck) scf=(maxcycle=1)\\title\\0,1\C,0,2.56568973,-0.91693926,-0.1
 4604151\O,0,1.7442387,0.07755932,0.43951083\C,0,-0.25052054,0.51753631
 ,-1.03337627\C,0,-0.99158275,0.2530843,0.20578483\C,0,-2.52652275,0.53
 12784,0.08675855\O,0,-0.62902686,-0.74362058,0.98612618\H,0,2.03125764
 ,-1.523503,-0.90365495\H,0,3.41224798,-0.41849363,-0.63657801\H,0,2.95
 828945,-1.61592716,0.61327116\H,0,0.41875499,-0.20055189,-1.49989229\H

 Normal termination of Gaussian 16 at Wed Apr  9 03:08:07 2025.
