 Gaussian 16, Revision C.01,

 ----------------------------------------------------------------------
 #t hf aug-cc-pvdz symm=none int=(grid=ultrafine) guess=(read,tcheck) s
 table=(opt,rrhf)
 ----------------------------------------------------------------------
 -----
 title
 -----
 Symbolic Z-matrix:
 Charge =  0 Multiplicity = 1

 SCF Done:  E(RHF) =  -268.647857911     A.U. after   16 cycles
 Normal termination of Gaussian 16 at Wed Apr  9 17:08:20 2025.
 Gaussian 16:  ES64L-G16RevC.01  3-Jul-2019

 ----------------------------------------------------------------------
 #t hf aug-cc-pvdz iop(5/13=1,5/36=2,99/5=2) pseudo=read geom=check gue
 ss=(read,tcheck) scf=(maxcycle=1)
 ----------------------------------------------------------------------
 -----
 title
 -----
 Structure from the checkpoint file:  "Grambow2020_wb97xd3_006260_forward_mol1.chk"
 Charge =  0 Multiplicity = 1

                         Standard orientation:
 ---------------------------------------------------------------------
 Center     Atomic      Atomic             Coordinates (Angstroms)
 Number     Number       Type             X           Y           Z
 ---------------------------------------------------------------------
      1          6           0       -1.612843   -1.016780    0.244710
      2          6           0       -1.029574    0.186898   -0.449450
      3          6           0       -0.507084    1.353022    0.337746
      4          6           0        0.429828    0.434672   -0.491039
      5          6           0        1.403281   -0.234038    0.774405
      6          8           0        1.586960   -0.727959   -0.425381
      7          1           0       -1.062976   -1.234686    1.158181
      8          1           0       -2.661588   -0.839225    0.490330
      9          1           0       -1.557781   -1.891948   -0.404684
     10          1           0       -1.521986    0.444948   -1.382045
     11          1           0       -0.482411    1.270087    1.411816
     12          1           0       -0.623251    2.354878   -0.060790
     13          1           0        0.849211    0.939976   -1.349461
     14          1           0        2.263457    0.436999    1.041469
 ---------------------------------------------------------------------

 SCF Done:  E(RHF) =  -268.925263845     A.U. after    2 cycles

 The electronic state is 1-A.
 Alpha  occ. eigenvalues --  -20.60026 -11.32536 -11.28620 -11.27657 -11.26320
 Alpha  occ. eigenvalues --  -11.22973  -1.50104  -1.17725  -0.97912  -0.85390
 Alpha  occ. eigenvalues --   -0.83405  -0.79048  -0.72148  -0.65199  -0.64023
 Alpha  occ. eigenvalues --   -0.59021  -0.56050  -0.55041  -0.53627  -0.51436
 Alpha  occ. eigenvalues --   -0.45908  -0.45001  -0.31310
 Alpha virt. eigenvalues --    0.02927   0.03815   0.03886   0.04817   0.06099
 Alpha virt. eigenvalues --    0.06521   0.06924   0.07467   0.09102   0.10560
 Alpha virt. eigenvalues --    0.13038   0.13367   0.13880   0.14397   0.14615

 Mulliken charges:
               1
     1  C   -0.533855
     2  C    0.157882
     3  C    0.318457
     4  C    0.748924
     5  C    0.172564
     6  O   -1.049569
     7  H    0.221636
     8  H    0.189475
     9  H    0.218529
    10  H   -0.136295
    11  H   -0.013246
    12  H   -0.084294
    13  H   -0.237423
    14  H    0.027215
 Sum of Mulliken charges =   0.00000

 Dipole moment (field-independent basis, Debye):
    X=             -1.5967    Y=              2.0600    Z=             -0.9667  Tot=              2.7798

 Test job not archived.
 1\1\GINC-SE114\SP\RHF\Aug-CC-pVDZ\C5H8O1\OHZDE\09-Apr-2025\0\\#t hf au
 g-cc-pvdz iop(5/13=1,5/36=2,99/5=2) pseudo=read geom=check guess=(read
 ,tcheck) scf=(maxcycle=1)\\title\\0,1\C,0,-1.33785952,-0.92229732,-0.5
 3712543\C,0,-0.53821212,0.35415126,-0.58344775\C,0,-0.17741654,1.08417
 703,0.67727002\C,0,0.89377155,0.39381944,-0.20817798\C,0,1.47767566,-0
 .80590627,0.89447486\O,0,1.93716364,-0.86759859,-0.33118659\H,0,-1.050
 91437,-1.5217744,0.32459089\H,0,-2.40451554,-0.69733544,-0.47917476\H,
 0,-1.16186663,-1.51220484,-1.43806905\H,0,-0.76282145,0.98946507,-1.43

 Normal termination of Gaussian 16 at Wed Apr  9 17:08:24 2025.
