 Gaussian 16, Revision C.01,

 ----------------------------------------------------------------------
 #t hf aug-cc-pvdz symm=none int=(grid=ultrafine) guess=(read,tcheck) s
 table=(opt,rrhf)
 ----------------------------------------------------------------------
 -----
 title
 -----
 Symbolic Z-matrix:
 Charge =  0 Multiplicity = 1

 SCF Done:  E(RHF) =  -267.488683871     A.U. after   17 cycles
 Normal termination of Gaussian 16 at Wed Apr  9 03:20:57 2025.
 Gaussian 16:  ES64L-G16RevC.01  3-Jul-2019

 ----------------------------------------------------------------------
 #t hf aug-cc-pvdz iop(5/13=1,5/36=2,99/5=2) pseudo=read geom=check gue
 ss=(read,tcheck) scf=(maxcycle=1)
 ----------------------------------------------------------------------
 -----
 title
 -----
 Structure from the checkpoint file:  "Grambow2020_wb97xd3_006080_forward_mol1.chk"
 Charge =  0 Multiplicity = 1

                         Standard orientation:
 ---------------------------------------------------------------------
 Center     Atomic      Atomic             Coordinates (Angstroms)
 Number     Number       Type             X           Y           Z
 ---------------------------------------------------------------------
      1          8           0       -2.324924   -0.827271   -0.244775
      2          6           0       -2.273905    0.298799    0.042666
      3          6           0       -0.330172    0.940225   -0.114661
      4          6           0        0.454661   -0.213175    0.471612
      5          6           0        1.864024   -0.202804    0.081746
      6          6           0        3.014206   -0.170233   -0.251346
      7          1           0       -1.895828    1.300723    0.295373
      8          1           0       -0.061793    1.907081    0.322433
      9          1           0       -0.258231    0.999122   -1.202393
     10          1           0        0.394815   -0.200237    1.564160
     11          1           0        0.011139   -1.160388    0.144208
     12          1           0        4.036403   -0.144997   -0.545684
 ---------------------------------------------------------------------

 SCF Done:  E(RHF) =  -267.762139438     A.U. after    2 cycles

 The electronic state is 1-A.
 Alpha  occ. eigenvalues --  -20.62002 -11.39440 -11.26267 -11.24202 -11.23921
 Alpha  occ. eigenvalues --  -11.22607  -1.55873  -1.08493  -1.00231  -0.91823
 Alpha  occ. eigenvalues --   -0.81683  -0.72510  -0.72213  -0.66652  -0.64663
 Alpha  occ. eigenvalues --   -0.60481  -0.59612  -0.56053  -0.52718  -0.39946
 Alpha  occ. eigenvalues --   -0.39163  -0.31265
 Alpha virt. eigenvalues --    0.03295   0.03855   0.04269   0.05152   0.05666
 Alpha virt. eigenvalues --    0.07144   0.08008   0.09333   0.11128   0.11238
 Alpha virt. eigenvalues --    0.11949   0.12368   0.13787   0.14481   0.14850

 Mulliken charges:
               1
     1  O   -0.758861
     2  C    0.586951
     3  C   -0.611346
     4  C   -0.751926
     5  C    0.439710
     6  C    0.261689
     7  H    0.684487
     8  H   -0.001111
     9  H    0.128590
    10  H    0.198733
    11  H    0.244942
    12  H   -0.421858
 Sum of Mulliken charges =  -0.00000

 Dipole moment (field-independent basis, Debye):
    X=             -0.6947    Y=              1.7712    Z=              0.5677  Tot=              1.9855

 Test job not archived.
 1\1\GINC-SE461\SP\RHF\Aug-CC-pVDZ\C5H6O1\OHZDE\09-Apr-2025\0\\#t hf au
 g-cc-pvdz iop(5/13=1,5/36=2,99/5=2) pseudo=read geom=check guess=(read
 ,tcheck) scf=(maxcycle=1)\\title\\0,1\O,0,-2.52044909,0.7195499,-0.712
 53866\C,0,-2.49434064,-0.03994695,0.16822362\C,0,-0.57043185,-0.181833
 01,0.87016405\C,0,0.25265561,-0.19062292,-0.39966204\C,0,1.65531534,0.
 15617281,-0.17453068\C,0,2.79918057,0.44179354,0.03741925\H,0,-2.13862
 171,-0.71239767,0.9631627\H,0,-0.32070747,-1.00385781,1.5482517\H,0,-0
 .51624458,0.76552396,1.40996354\H,0,0.20876859,-1.17431499,-0.87698327

 Normal termination of Gaussian 16 at Wed Apr  9 03:21:00 2025.
