 Gaussian 16, Revision C.01,

 ----------------------------------------------------------------------
 #t hf aug-cc-pvdz symm=none int=(grid=ultrafine) guess=(read,tcheck) s
 table=(opt,rrhf)
 ----------------------------------------------------------------------
 -----
 title
 -----
 Symbolic Z-matrix:
 Charge =  0 Multiplicity = 1

 SCF Done:  E(RHF) =  -184.604805539     A.U. after   11 cycles
 Normal termination of Gaussian 16 at Wed Apr  9 15:50:30 2025.
 Gaussian 16:  ES64L-G16RevC.01  3-Jul-2019

 ----------------------------------------------------------------------
 #t hf aug-cc-pvdz iop(5/13=1,5/36=2,99/5=2) pseudo=read geom=check gue
 ss=(read,tcheck) scf=(maxcycle=1)
 ----------------------------------------------------------------------
 -----
 title
 -----
 Structure from the checkpoint file:  "Grambow2020_b97d3_006823_forward_mol2.chk"
 Charge =  0 Multiplicity = 1

                         Standard orientation:
 ---------------------------------------------------------------------
 Center     Atomic      Atomic             Coordinates (Angstroms)
 Number     Number       Type             X           Y           Z
 ---------------------------------------------------------------------
      1          7           0       -0.009090   -0.061450    1.862814
      2          6           0       -0.003361   -0.022674    0.688643
      3          6           0        0.003360    0.022658   -0.688647
      4          7           0        0.009091    0.061464   -1.862810
 ---------------------------------------------------------------------

 SCF Done:  E(RHF) =  -184.773627393     A.U. after    2 cycles

 The electronic state is 1-A.
 Alpha  occ. eigenvalues --  -15.60638 -15.60561 -11.36923 -11.36823  -1.30436
 Alpha  occ. eigenvalues --   -1.28329  -1.00198  -0.69059  -0.67343  -0.62585
 Alpha  occ. eigenvalues --   -0.62585  -0.53055  -0.53055
 Alpha virt. eigenvalues --    0.01350   0.01350   0.04873   0.07135   0.10477
 Alpha virt. eigenvalues --    0.10477   0.13008   0.13008   0.13950   0.18782
 Alpha virt. eigenvalues --    0.20850   0.22973   0.22973   0.24639   0.24639

 Mulliken charges:
               1
     1  N    0.849209
     2  C   -0.849215
     3  C   -0.849209
     4  N    0.849215
 Sum of Mulliken charges =  -0.00000

 Dipole moment (field-independent basis, Debye):
    X=             -0.0000    Y=             -0.0001    Z=             -0.0000  Tot=              0.0001

 Test job not archived.
 1\1\GINC-SE141\SP\RHF\Aug-CC-pVDZ\C2N2\OHZDE\09-Apr-2025\0\\#t hf aug-
 cc-pvdz iop(5/13=1,5/36=2,99/5=2) pseudo=read geom=check guess=(read,t
 check) scf=(maxcycle=1)\\title\\0,1\N,0,-1.8247136,-0.22906728,0.00705
 072\C,0,-0.6745655,0.0104186,0.00260448\C,0,0.6745719,0.29118373,-0.00
 260469\N,0,1.82470719,0.53069761,-0.00705051\\Version=ES64L-G16RevC.01
 \State=1-A\HF=-184.7736274\RMSD=1.256e-01\Dipole=0.0000096,-0.00002,-0
 .0000003\Quadrupole=-5.1495957,2.4037539,2.7458418,-1.6437471,0.030507
 7,0.0063513\PG=C01 [X(C2N2)]\\@

 Normal termination of Gaussian 16 at Wed Apr  9 15:50:32 2025.
