 Gaussian 16, Revision C.01,

 ----------------------------------------------------------------------
 #t hf aug-cc-pvdz symm=none int=(grid=ultrafine) guess=(read,tcheck) s
 table=(opt,rrhf)
 ----------------------------------------------------------------------
 -----
 title
 -----
 Symbolic Z-matrix:
 Charge =  0 Multiplicity = 1

 SCF Done:  E(RHF) =  -286.705824967     A.U. after   18 cycles
 Normal termination of Gaussian 16 at Wed Apr  9 18:29:40 2025.
 Gaussian 16:  ES64L-G16RevC.01  3-Jul-2019

 ----------------------------------------------------------------------
 #t hf aug-cc-pvdz iop(5/13=1,5/36=2,99/5=2) pseudo=read geom=check gue
 ss=(read,tcheck) scf=(maxcycle=1)
 ----------------------------------------------------------------------
 -----
 title
 -----
 Structure from the checkpoint file:  "Grambow2020_wb97xd3_007625_forward_mol1.chk"
 Charge =  0 Multiplicity = 1

                         Standard orientation:
 ---------------------------------------------------------------------
 Center     Atomic      Atomic             Coordinates (Angstroms)
 Number     Number       Type             X           Y           Z
 ---------------------------------------------------------------------
      1          6           0        2.352668   -0.379316   -0.087507
      2          6           0        0.875288   -0.146549   -0.084663
      3          6           0        0.312972    1.226721   -0.425029
      4          6           0       -0.420636    0.886712    0.776496
      5          6           0       -1.299558   -0.326100    0.486333
      6          7           0       -2.035468   -0.099818   -0.702113
      7          6           0       -0.118425   -1.106245    0.070958
      8          1           0        2.602138   -1.385268    0.249458
      9          1           0        2.849876    0.331294    0.575443
     10          1           0        2.762019   -0.231068   -1.090192
     11          1           0        1.040038    2.028128   -0.334819
     12          1           0       -0.272670    1.222070   -1.341774
     13          1           0       -0.309971    1.397992    1.725646
     14          1           0       -1.814712   -0.693346    1.381990
     15          1           0       -2.842258   -0.720791   -0.711685
     16          1           0        0.019960   -2.181624    0.041192
 ---------------------------------------------------------------------

 SCF Done:  E(RHF) =  -287.004651823     A.U. after    2 cycles

 The electronic state is 1-A.
 Alpha  occ. eigenvalues --  -15.39015 -11.32193 -11.29267 -11.28409 -11.26343
 Alpha  occ. eigenvalues --  -11.26023 -11.25775  -1.23361  -1.08353  -1.02072
 Alpha  occ. eigenvalues --   -0.97686  -0.88982  -0.78437  -0.75976  -0.70564
 Alpha  occ. eigenvalues --   -0.65432  -0.61384  -0.60727  -0.59815  -0.58212
 Alpha  occ. eigenvalues --   -0.54674  -0.53149  -0.49925  -0.39730  -0.37328
 Alpha  occ. eigenvalues --   -0.28314
 Alpha virt. eigenvalues --    0.02485   0.03160   0.03247   0.04233   0.05125
 Alpha virt. eigenvalues --    0.05176   0.05754   0.07074   0.07271   0.08358
 Alpha virt. eigenvalues --    0.09973   0.12353   0.12717   0.12972   0.13247

 Mulliken charges:
               1
     1  C   -0.780993
     2  C    0.239530
     3  C   -0.197535
     4  C    0.850759
     5  C   -1.482438
     6  N    0.445275
     7  C    0.242503
     8  H    0.174749
     9  H    0.234089
    10  H    0.274716
    11  H   -0.010259
    12  H    0.232250
    13  H   -0.151417
    14  H   -0.054703
    15  H    0.076019
    16  H   -0.092544
 Sum of Mulliken charges =  -0.00000

 Dipole moment (field-independent basis, Debye):
    X=              5.2469    Y=             -0.3597    Z=              3.4855  Tot=              6.3094

 Test job not archived.
 1\1\GINC-SE220\SP\RHF\Aug-CC-pVDZ\C6H9N1\OHZDE\09-Apr-2025\0\\#t hf au
 g-cc-pvdz iop(5/13=1,5/36=2,99/5=2) pseudo=read geom=check guess=(read
 ,tcheck) scf=(maxcycle=1)\\title\\0,1\C,0,1.74555688,-0.78097004,0.993
 65513\C,0,0.538222,-0.31048561,0.24677785\C,0,0.68020143,0.69202128,-0
 .89021006\C,0,-0.41042108,1.25565528,-0.12189631\C,0,-1.59379012,0.294
 13701,-0.17415496\N,0,-1.84474761,-0.0698038,-1.51942047\C,0,-0.759700
 49,-0.79193514,0.37446135\H,0,1.47609276,-1.43358283,1.82383988\H,0,2.
 29637818,0.06998414,1.39881985\H,0,2.42307368,-1.31994199,0.32626975\H

 Normal termination of Gaussian 16 at Wed Apr  9 18:29:45 2025.
