 Gaussian 16, Revision C.01,

 ----------------------------------------------------------------------
 #t hf aug-cc-pvdz symm=none int=(grid=ultrafine) guess=(read,tcheck) s
 table=(opt,rrhf)
 ----------------------------------------------------------------------
 -----
 title
 -----
 Symbolic Z-matrix:
 Charge =  0 Multiplicity = 1

 SCF Done:  E(RHF) =  -338.691066385     A.U. after   15 cycles
 Normal termination of Gaussian 16 at Wed Apr  9 19:09:51 2025.
 Gaussian 16:  ES64L-G16RevC.01  3-Jul-2019

 ----------------------------------------------------------------------
 #t hf aug-cc-pvdz iop(5/13=1,5/36=2,99/5=2) pseudo=read geom=check gue
 ss=(read,tcheck) scf=(maxcycle=1)
 ----------------------------------------------------------------------
 -----
 title
 -----
 Structure from the checkpoint file:  "Grambow2020_wb97xd3_008831_reverse_mol2.chk"
 Charge =  0 Multiplicity = 1

                         Standard orientation:
 ---------------------------------------------------------------------
 Center     Atomic      Atomic             Coordinates (Angstroms)
 Number     Number       Type             X           Y           Z
 ---------------------------------------------------------------------
      1          6           0        2.486043   -0.487280    0.072679
      2          6           0        1.191053   -0.169248   -0.019643
      3          6           0        0.016730   -1.030517   -0.040814
      4          6           0       -1.055818   -0.237971   -0.001526
      5          8           0       -2.352374   -0.568791    0.057073
      6          7           0       -0.734533    1.130388   -0.020453
      7          7           0        0.684492    1.135696   -0.192291
      8          1           0       -0.993065    1.555259    0.868664
      9          1           0        3.258528    0.270081    0.062713
     10          1           0        2.786926   -1.522487    0.134276
     11          1           0        0.022538   -2.105623   -0.094470
     12          1           0       -2.870132    0.155698   -0.307064
     13          1           0        1.136433    1.884902    0.304325
 ---------------------------------------------------------------------

 SCF Done:  E(RHF) =  -339.041006678     A.U. after    2 cycles

 The electronic state is 1-A.
 Alpha  occ. eigenvalues --  -20.60549 -15.56013 -15.54082 -11.34979 -11.28223
 Alpha  occ. eigenvalues --  -11.22714 -11.19861  -1.53081  -1.34277  -1.13033
 Alpha  occ. eigenvalues --   -1.07642  -0.96930  -0.84359  -0.82478  -0.76740
 Alpha  occ. eigenvalues --   -0.72860  -0.69303  -0.64299  -0.61645  -0.60280
 Alpha  occ. eigenvalues --   -0.58141  -0.56296  -0.53190  -0.47136  -0.40519
 Alpha  occ. eigenvalues --   -0.29381
 Alpha virt. eigenvalues --    0.02687   0.04321   0.04756   0.05012   0.05643
 Alpha virt. eigenvalues --    0.07386   0.10334   0.10721   0.11563   0.12473
 Alpha virt. eigenvalues --    0.12795   0.13251   0.14774   0.15344   0.15456

 Mulliken charges:
               1
     1  C    0.286351
     2  C   -0.428186
     3  C    0.382763
     4  C    0.558320
     5  O   -1.416754
     6  N    0.171469
     7  N    0.330611
     8  H    0.232897
     9  H   -0.213030
    10  H   -0.121470
    11  H   -0.166707
    12  H    0.287105
    13  H    0.096632
 Sum of Mulliken charges =  -0.00000

 Dipole moment (field-independent basis, Debye):
    X=             -1.6410    Y=              1.5913    Z=              1.4866  Tot=              2.7267

 Test job not archived.
 1\1\GINC-SE118\SP\RHF\Aug-CC-pVDZ\C4H6N2O1\OHZDE\09-Apr-2025\0\\#t hf
 aug-cc-pvdz iop(5/13=1,5/36=2,99/5=2) pseudo=read geom=check guess=(re
 ad,tcheck) scf=(maxcycle=1)\\title\\0,1\C,0,-2.16418055,-0.48579243,-0
 .30316167\C,0,-0.8669727,-0.26165307,-0.07146823\C,0,0.27081146,-0.338
 62656,-0.97744191\C,0,1.33653898,0.11195611,-0.31318989\O,0,2.59241207
 ,0.28696506,-0.74456913\N,0,1.05649149,0.44383297,1.02375393\N,0,-0.30
 675495,0.0457608,1.18588771\H,0,1.15823896,1.44887798,1.15571785\H,0,-
 2.90376356,-0.40135917,0.48189531\H,0,-2.49559139,-0.7836219,-1.286748

 Normal termination of Gaussian 16 at Wed Apr  9 19:09:55 2025.
