 Gaussian 16, Revision C.01,

 ----------------------------------------------------------------------
 #t hf aug-cc-pvdz symm=none int=(grid=ultrafine) guess=(read,tcheck) s
 table=(opt,rrhf)
 ----------------------------------------------------------------------
 -----
 title
 -----
 Symbolic Z-matrix:
 Charge =  0 Multiplicity = 1

 SCF Done:  E(RHF) =  -268.832749153     A.U. after   14 cycles
 Normal termination of Gaussian 16 at Wed Apr  9 15:56:52 2025.
 Gaussian 16:  ES64L-G16RevC.01  3-Jul-2019

 ----------------------------------------------------------------------
 #t hf aug-cc-pvdz iop(5/13=1,5/36=2,99/5=2) pseudo=read geom=check gue
 ss=(read,tcheck) scf=(maxcycle=1)
 ----------------------------------------------------------------------
 -----
 title
 -----
 Structure from the checkpoint file:  "Grambow2020_b97d3_007033_reverse_mol2.chk"
 Charge =  0 Multiplicity = 1

                         Standard orientation:
 ---------------------------------------------------------------------
 Center     Atomic      Atomic             Coordinates (Angstroms)
 Number     Number       Type             X           Y           Z
 ---------------------------------------------------------------------
      1          6           0        2.453608    0.307797    0.007034
      2          6           0        1.281142   -0.631883   -0.000635
      3          6           0        0.010475   -0.217453   -0.017725
      4          6           0       -0.760150    1.091312   -0.010907
      5          6           0       -1.999602    0.170153    0.019257
      6          8           0       -1.142269   -1.016118   -0.008536
      7          1           0        3.107554    0.147614   -0.864950
      8          1           0        2.121120    1.355680   -0.011283
      9          1           0        3.075122    0.169804    0.906456
     10          1           0       -0.621322    1.721972    0.876598
     11          1           0       -0.660263    1.707166   -0.913782
     12          1           0       -2.601294    0.205659    0.938123
     13          1           0       -2.654798    0.210223   -0.861636
     14          1           0        1.459198   -1.708722    0.016617
 ---------------------------------------------------------------------

 SCF Done:  E(RHF) =  -269.115774106     A.U. after    2 cycles

 The electronic state is 1-A.
 Alpha  occ. eigenvalues --  -20.55710 -11.30156 -11.29645 -11.25483 -11.23425
 Alpha  occ. eigenvalues --  -11.22184  -1.48028  -1.06191  -1.02472  -0.93203
 Alpha  occ. eigenvalues --   -0.84457  -0.72678  -0.68054  -0.66944  -0.64082
 Alpha  occ. eigenvalues --   -0.56861  -0.55061  -0.54326  -0.53400  -0.49864
 Alpha  occ. eigenvalues --   -0.49524  -0.47598  -0.32456
 Alpha virt. eigenvalues --    0.03485   0.03791   0.04131   0.04575   0.05986
 Alpha virt. eigenvalues --    0.06179   0.07340   0.07765   0.08945   0.12464
 Alpha virt. eigenvalues --    0.12958   0.13456   0.13787   0.15421   0.15597

 Mulliken charges:
               1
     1  C   -0.626666
     2  C    0.135559
     3  C    1.397727
     4  C   -0.686217
     5  C    0.485806
     6  O   -1.508695
     7  H    0.238826
     8  H    0.123844
     9  H    0.240101
    10  H    0.128536
    11  H    0.137619
    12  H    0.061444
    13  H    0.063621
    14  H   -0.191504
 Sum of Mulliken charges =   0.00000

 Dipole moment (field-independent basis, Debye):
    X=             -0.4137    Y=              2.1834    Z=              0.0466  Tot=              2.2227

 Test job not archived.
 1\1\GINC-SE100\SP\RHF\Aug-CC-pVDZ\C5H8O1\OHZDE\09-Apr-2025\0\\#t hf au
 g-cc-pvdz iop(5/13=1,5/36=2,99/5=2) pseudo=read geom=check guess=(read
 ,tcheck) scf=(maxcycle=1)\\title\\0,1\C,0,2.16625058,0.38990789,-0.372
 69035\C,0,0.96377655,0.92152834,0.35475134\C,0,-0.2334647,0.32806742,0
 .32224985\C,0,-0.88695612,-0.88203755,-0.32224131\C,0,-2.1619282,-0.35
 773739,0.37434947\O,0,-1.41058364,0.75814167,0.95169249\H,0,2.99415871
 ,0.16869982,0.31962051\H,0,1.92434947,-0.53668603,-0.91292192\H,0,2.54
 621333,1.11668029,-1.1087003\H,0,-0.9161944,-0.88056598,-1.4194255\H,0

 Normal termination of Gaussian 16 at Wed Apr  9 15:56:56 2025.
