 Gaussian 16, Revision C.01,

 ----------------------------------------------------------------------
 #t hf aug-cc-pvdz symm=none int=(grid=ultrafine) guess=(read,tcheck) s
 table=(opt,rrhf)
 ----------------------------------------------------------------------
 -----
 title
 -----
 Symbolic Z-matrix:
 Charge =  0 Multiplicity = 1

 SCF Done:  E(RHF) =  -302.807034105     A.U. after   15 cycles
 Normal termination of Gaussian 16 at Wed Apr  9 18:45:38 2025.
 Gaussian 16:  ES64L-G16RevC.01  3-Jul-2019

 ----------------------------------------------------------------------
 #t hf aug-cc-pvdz iop(5/13=1,5/36=2,99/5=2) pseudo=read geom=check gue
 ss=(read,tcheck) scf=(maxcycle=1)
 ----------------------------------------------------------------------
 -----
 title
 -----
 Structure from the checkpoint file:  "Grambow2020_wb97xd3_008041_reverse_mol1.chk"
 Charge =  0 Multiplicity = 1

                         Standard orientation:
 ---------------------------------------------------------------------
 Center     Atomic      Atomic             Coordinates (Angstroms)
 Number     Number       Type             X           Y           Z
 ---------------------------------------------------------------------
      1          6           0       -1.138235    1.700176   -0.001606
      2          6           0       -1.079051    0.243310    0.386298
      3          6           0       -1.168241   -0.891437   -0.677250
      4          7           0       -0.107007   -1.543258    0.095145
      5          6           0        0.189935   -0.474091    0.792801
      6          6           0        1.644229    0.594478   -0.738191
      7          7           0        2.409637    0.328986    0.105291
      8          1           0       -0.461559    1.904225   -0.827747
      9          1           0       -2.160592    1.962127   -0.280977
     10          1           0       -0.845918    2.329049    0.840399
     11          1           0       -1.800351    0.034812    1.184396
     12          1           0       -0.795442   -0.563374   -1.649801
     13          1           0       -2.093470   -1.459498   -0.756786
     14          1           0        0.467239   -2.347376   -0.100690
     15          1           0        0.879868   -0.394674    1.615846
 ---------------------------------------------------------------------

 SCF Done:  E(RHF) =  -303.118442331     A.U. after    2 cycles

 The electronic state is 1-A.
 Alpha  occ. eigenvalues --  -15.58620 -15.42834 -11.38463 -11.31403 -11.29482
 Alpha  occ. eigenvalues --  -11.24208 -11.16741  -1.36282  -1.15013  -1.08811
 Alpha  occ. eigenvalues --   -0.98993  -0.96145  -0.81358  -0.79736  -0.72003
 Alpha  occ. eigenvalues --   -0.69410  -0.61759  -0.60323  -0.57226  -0.55901
 Alpha  occ. eigenvalues --   -0.54060  -0.52613  -0.51379  -0.43068  -0.41907
 Alpha  occ. eigenvalues --   -0.40322
 Alpha virt. eigenvalues --    0.01921   0.02955   0.03194   0.04467   0.05012
 Alpha virt. eigenvalues --    0.05981   0.06423   0.07370   0.07787   0.09965
 Alpha virt. eigenvalues --    0.11283   0.11785   0.12161   0.12941   0.14165

 Mulliken charges:
               1
     1  C   -0.332170
     2  C    0.007608
     3  C    0.000969
     4  N    0.844235
     5  C   -0.496334
     6  C   -1.264028
     7  N    0.366727
     8  H    0.262868
     9  H    0.207155
    10  H    0.251561
    11  H    0.100567
    12  H    0.100323
    13  H   -0.014649
    14  H    0.046201
    15  H   -0.081034
 Sum of Mulliken charges =  -0.00000

 Dipole moment (field-independent basis, Debye):
    X=             -7.4110    Y=             -3.3700    Z=              1.6915  Tot=              8.3151

 Test job not archived.
 1\1\GINC-SE362\SP\RHF\Aug-CC-pVDZ\C5H8N2\OHZDE\09-Apr-2025\0\\#t hf au
 g-cc-pvdz iop(5/13=1,5/36=2,99/5=2) pseudo=read geom=check guess=(read
 ,tcheck) scf=(maxcycle=1)\\title\\0,1\C,0,1.64751691,-0.44093803,-0.46
 926273\C,0,0.6344978,0.35798024,0.31301095\C,0,-0.37815661,1.30959947,
 -0.39104306\N,0,-1.36221376,0.77727342,0.55549959\C,0,-0.61463727,-0.2
 3166726,0.93124539\C,0,-1.12091367,-1.75585143,-0.80694262\N,0,-1.6161
 4287,-2.31475707,0.09315152\H,0,1.17212446,-0.94853392,-1.30495524\H,0
 ,2.43421663,0.22318093,-0.83248393\H,0,2.10962496,-1.19571428,0.168446

 Normal termination of Gaussian 16 at Wed Apr  9 18:45:43 2025.
