 Gaussian 16, Revision C.01,

 ----------------------------------------------------------------------
 #t hf aug-cc-pvdz symm=none int=(grid=ultrafine) guess=(read,tcheck) s
 table=(opt,rrhf)
 ----------------------------------------------------------------------
 -----
 title
 -----
 Symbolic Z-matrix:
 Charge =  0 Multiplicity = 1

 SCF Done:  E(RHF) =  -302.809452915     A.U. after   14 cycles
 Normal termination of Gaussian 16 at Wed Apr  9 19:11:00 2025.
 Gaussian 16:  ES64L-G16RevC.01  3-Jul-2019

 ----------------------------------------------------------------------
 #t hf aug-cc-pvdz iop(5/13=1,5/36=2,99/5=2) pseudo=read geom=check gue
 ss=(read,tcheck) scf=(maxcycle=1)
 ----------------------------------------------------------------------
 -----
 title
 -----
 Structure from the checkpoint file:  "Grambow2020_wb97xd3_008840_reverse_mol2.chk"
 Charge =  0 Multiplicity = 1

                         Standard orientation:
 ---------------------------------------------------------------------
 Center     Atomic      Atomic             Coordinates (Angstroms)
 Number     Number       Type             X           Y           Z
 ---------------------------------------------------------------------
      1          6           0        0.424023    1.580938   -0.136908
      2          6           0        0.516549    0.083937    0.003180
      3          6           0       -0.778043   -0.656890    0.158093
      4          6           0       -2.026502   -0.016672    0.500241
      5          7           0       -1.958325   -0.273983   -0.718229
      6          6           0        1.643799   -0.628247   -0.636275
      7          7           0        1.586708   -0.491312    0.818692
      8          1           0       -0.184609    1.854956   -1.000115
      9          1           0       -0.030343    2.029365    0.751244
     10          1           0        1.415228    2.018355   -0.268587
     11          1           0       -0.651646   -1.720083    0.347436
     12          1           0       -2.718396    0.437913    1.196412
     13          1           0        2.365863   -0.036658   -1.188975
     14          1           0        1.506215   -1.638095   -1.006213
     15          1           0        2.220060    0.232911    1.135570
 ---------------------------------------------------------------------

 SCF Done:  E(RHF) =  -303.132515994     A.U. after    2 cycles

 The electronic state is 1-A.
 Alpha  occ. eigenvalues --  -15.52746 -15.49979 -11.29864 -11.28094 -11.27204
 Alpha  occ. eigenvalues --  -11.26039 -11.23748  -1.32591  -1.27268  -1.01076
 Alpha  occ. eigenvalues --   -0.92889  -0.89037  -0.81092  -0.78172  -0.70427
 Alpha  occ. eigenvalues --   -0.68667  -0.66714  -0.60361  -0.58181  -0.55960
 Alpha  occ. eigenvalues --   -0.54774  -0.51342  -0.50171  -0.45789  -0.43413
 Alpha  occ. eigenvalues --   -0.39668
 Alpha virt. eigenvalues --    0.03358   0.03643   0.04448   0.04775   0.05263
 Alpha virt. eigenvalues --    0.05528   0.07363   0.08208   0.09342   0.09905
 Alpha virt. eigenvalues --    0.10639   0.13363   0.13489   0.13961   0.14400

 Mulliken charges:
               1
     1  C   -0.554386
     2  C   -1.494711
     3  C   -0.088008
     4  C   -0.010365
     5  N    0.576653
     6  C    0.537660
     7  N    0.618748
     8  H    0.333396
     9  H    0.305796
    10  H    0.035462
    11  H   -0.201311
    12  H   -0.112266
    13  H   -0.095578
    14  H   -0.088291
    15  H    0.237202
 Sum of Mulliken charges =   0.00000

 Dipole moment (field-independent basis, Debye):
    X=              0.7000    Y=              1.8481    Z=              1.2693  Tot=              2.3488

 Test job not archived.
 1\1\GINC-SE168\SP\RHF\Aug-CC-pVDZ\C5H8N2\OHZDE\09-Apr-2025\0\\#t hf au
 g-cc-pvdz iop(5/13=1,5/36=2,99/5=2) pseudo=read geom=check guess=(read
 ,tcheck) scf=(maxcycle=1)\\title\\0,1\C,0,-0.72152748,1.23872876,0.217
 19811\C,0,-0.1901834,-0.16039746,0.04597902\C,0,1.2720921,-0.29015901,
 -0.26013088\C,0,2.0927989,0.80983482,-0.70962802\N,0,2.26600882,0.5695
 3423,0.50189101\C,0,-0.84051475,-1.26933456,0.77681948\N,0,-0.99766888
 ,-1.14709662,-0.6720761\H,0,-0.19848135,1.75882942,1.02128862\H,0,-0.5
 9267461,1.82080228,-0.69982819\H,0,-1.78519972,1.22059729,0.46098546\H

 Normal termination of Gaussian 16 at Wed Apr  9 19:11:05 2025.
