 Gaussian 16, Revision C.01,

 ----------------------------------------------------------------------
 #t hf aug-cc-pvdz symm=none int=(grid=ultrafine) guess=(read,tcheck) s
 table=(opt,rrhf)
 ----------------------------------------------------------------------
 -----
 title
 -----
 Symbolic Z-matrix:
 Charge =  0 Multiplicity = 1

 SCF Done:  E(RHF) =  -268.751171329     A.U. after   15 cycles
 Normal termination of Gaussian 16 at Wed Apr  9 03:21:19 2025.
 Gaussian 16:  ES64L-G16RevC.01  3-Jul-2019

 ----------------------------------------------------------------------
 #t hf aug-cc-pvdz iop(5/13=1,5/36=2,99/5=2) pseudo=read geom=check gue
 ss=(read,tcheck) scf=(maxcycle=1)
 ----------------------------------------------------------------------
 -----
 title
 -----
 Structure from the checkpoint file:  "Grambow2020_wb97xd3_006051_reverse_mol2.chk"
 Charge =  0 Multiplicity = 1

                         Standard orientation:
 ---------------------------------------------------------------------
 Center     Atomic      Atomic             Coordinates (Angstroms)
 Number     Number       Type             X           Y           Z
 ---------------------------------------------------------------------
      1          6           0        1.993048    0.060687   -0.610173
      2          8           0        1.180238   -0.673313    0.278588
      3          6           0        0.218244    0.103061    0.929290
      4          6           0       -1.061016    1.588480   -0.242343
      5          6           0       -1.017637    0.330431    0.039153
      6          6           0       -1.864532   -0.836442   -0.354946
      7          1           0        2.576537    0.816971   -0.071954
      8          1           0        2.671150   -0.648398   -1.081164
      9          1           0        1.395151    0.560569   -1.379918
     10          1           0       -0.115358   -0.457594    1.805220
     11          1           0        0.636905    1.054900    1.277248
     12          1           0       -2.325365   -1.279067    0.530565
     13          1           0       -2.650294   -0.542453   -1.047973
     14          1           0       -1.239270   -1.595726   -0.826616
 ---------------------------------------------------------------------

 SCF Done:  E(RHF) =  -269.029708874     A.U. after    2 cycles

 The electronic state is 1-A.
 Alpha  occ. eigenvalues --  -20.55759 -11.31523 -11.28459 -11.28339 -11.25785
 Alpha  occ. eigenvalues --  -11.24155  -1.48179  -1.11463  -0.98045  -0.95624
 Alpha  occ. eigenvalues --   -0.87210  -0.71486  -0.68060  -0.66097  -0.63138
 Alpha  occ. eigenvalues --   -0.59623  -0.59325  -0.55336  -0.54083  -0.49112
 Alpha  occ. eigenvalues --   -0.45701  -0.42505  -0.39457
 Alpha virt. eigenvalues --    0.03327   0.03811   0.04046   0.05014   0.06457
 Alpha virt. eigenvalues --    0.06607   0.06964   0.07713   0.08011   0.09842
 Alpha virt. eigenvalues --    0.11665   0.12197   0.13499   0.14092   0.14767

 Mulliken charges:
               1
     1  C    0.216539
     2  O   -1.223974
     3  C    0.316832
     4  C   -0.557460
     5  C    0.443293
     6  C   -0.416652
     7  H    0.158276
     8  H   -0.033412
     9  H    0.243012
    10  H    0.009037
    11  H    0.190803
    12  H    0.251257
    13  H    0.150408
    14  H    0.252042
 Sum of Mulliken charges =   0.00000

 Dipole moment (field-independent basis, Debye):
    X=              0.1451    Y=             -1.6718    Z=              0.2256  Tot=              1.6932

 Test job not archived.
 1\1\GINC-SE195\SP\RHF\Aug-CC-pVDZ\C5H8O1\OHZDE\09-Apr-2025\0\\#t hf au
 g-cc-pvdz iop(5/13=1,5/36=2,99/5=2) pseudo=read geom=check guess=(read
 ,tcheck) scf=(maxcycle=1)\\title\\0,1\C,0,-1.9944836,0.64254112,-0.210
 13263\O,0,-1.12618251,-0.22815333,0.48070411\C,0,-0.33088846,-1.010193
 39,-0.36043932\C,0,0.76406468,-0.06768378,-2.12918219\C,0,0.90029954,-
 0.22963656,-0.8567752\C,0,1.93642585,0.21147327,0.12607951\H,0,-2.7150
 3513,0.07800236,-0.81362629\H,0,-2.52949761,1.22080012,0.54075491\H,0,
 -1.44108915,1.32150604,-0.86788106\H,0,0.0385635,-1.85174104,0.2296289

 Normal termination of Gaussian 16 at Wed Apr  9 03:21:26 2025.
