 Gaussian 16, Revision C.01,

 ----------------------------------------------------------------------
 #t hf aug-cc-pvdz symm=none int=(grid=ultrafine) guess=(read,tcheck) s
 table=(opt,rrhf)
 ----------------------------------------------------------------------
 -----
 title
 -----
 Symbolic Z-matrix:
 Charge =  0 Multiplicity = 1

 SCF Done:  E(RHF) =  -224.726593697     A.U. after   15 cycles
 Normal termination of Gaussian 16 at Wed Apr  9 15:55:35 2025.
 Gaussian 16:  ES64L-G16RevC.01  3-Jul-2019

 ----------------------------------------------------------------------
 #t hf aug-cc-pvdz iop(5/13=1,5/36=2,99/5=2) pseudo=read geom=check gue
 ss=(read,tcheck) scf=(maxcycle=1)
 ----------------------------------------------------------------------
 -----
 title
 -----
 Structure from the checkpoint file:  "Grambow2020_b97d3_006889_reverse_mol1.chk"
 Charge =  0 Multiplicity = 1

                         Standard orientation:
 ---------------------------------------------------------------------
 Center     Atomic      Atomic             Coordinates (Angstroms)
 Number     Number       Type             X           Y           Z
 ---------------------------------------------------------------------
      1          7           0        0.743846   -0.945057   -0.082398
      2          6           0        1.038191    0.492812   -0.026452
      3          6           0       -0.187387    1.183852    0.004476
      4          6           0       -1.147139    0.168286   -0.005579
      5          7           0       -0.586594   -1.068782    0.002220
      6          1           0        1.207255   -0.331857    0.958367
      7          1           0        2.040124    0.838353   -0.271688
      8          1           0       -0.340616    2.256303    0.029534
      9          1           0       -2.229517    0.264367    0.010358
 ---------------------------------------------------------------------

 SCF Done:  E(RHF) =  -224.954910892     A.U. after    2 cycles

 The electronic state is 1-A.
 Alpha  occ. eigenvalues --  -15.58701 -15.53701 -11.31353 -11.28511 -11.26217
 Alpha  occ. eigenvalues --   -1.36674  -1.10328  -1.07283  -0.85210  -0.81179
 Alpha  occ. eigenvalues --   -0.74062  -0.68032  -0.62825  -0.59222  -0.55423
 Alpha  occ. eigenvalues --   -0.48236  -0.43636  -0.39537
 Alpha virt. eigenvalues --    0.03076   0.03957   0.04392   0.05500   0.08360
 Alpha virt. eigenvalues --    0.09256   0.10058   0.11039   0.11947   0.12759
 Alpha virt. eigenvalues --    0.13826   0.14234   0.15149   0.15849   0.17087

 Mulliken charges:
               1
     1  N   -0.282465
     2  C   -0.528069
     3  C    0.617946
     4  C   -0.190218
     5  N    0.065589
     6  H    0.608182
     7  H   -0.105218
     8  H   -0.087614
     9  H   -0.098132
 Sum of Mulliken charges =  -0.00000

 Dipole moment (field-independent basis, Debye):
    X=              0.7676    Y=              4.2727    Z=              0.7061  Tot=              4.3982

 Test job not archived.
 1\1\GINC-SE131\SP\RHF\Aug-CC-pVDZ\C3H4N2\OHZDE\09-Apr-2025\0\\#t hf au
 g-cc-pvdz iop(5/13=1,5/36=2,99/5=2) pseudo=read geom=check guess=(read
 ,tcheck) scf=(maxcycle=1)\\title\\0,1\N,0,-1.07813563,-0.89885519,0.32
 290954\C,0,-0.83100211,0.5391849,0.1549748\C,0,0.55095979,0.72024617,-
 0.03979229\C,0,1.06815523,-0.57754967,-0.01093705\N,0,0.09716301,-1.51
 452015,0.14355694\H,0,-1.39677443,-0.21864633,-0.73053294\H,0,-1.60395
 293,1.24707569,0.44625686\H,0,1.08169052,1.65477237,-0.17851568\H,0,2.
 10201253,-0.8931648,-0.12297917\\Version=ES64L-G16RevC.01\State=1-A\HF

 Normal termination of Gaussian 16 at Wed Apr  9 15:55:38 2025.
