 Gaussian 16, Revision C.01,

 ----------------------------------------------------------------------
 #t hf aug-cc-pvdz symm=none int=(grid=ultrafine) guess=(read,tcheck) s
 table=(opt,rrhf)
 ----------------------------------------------------------------------
 -----
 title
 -----
 Symbolic Z-matrix:
 Charge =  0 Multiplicity = 1

 SCF Done:  E(RHF) =  -287.987736806     A.U. after   13 cycles

 1\1\GINC-SE112\Stability\RHF\Aug-CC-pVDZ\C6H11N1\OHZDE\09-Apr-2025\0\\
 #t hf aug-cc-pvdz symm=none int=(grid=ultrafine) guess=(read,tcheck) s
 table=(opt,rrhf)\\title\\0,1\C,0,3.13543179,-0.81144992,-0.41016086\C,
 0,1.8792559,-1.08144773,-0.72261151\C,0,-1.18967102,0.68248667,0.49356
 82\C,0,-1.67450489,-0.73195764,0.69678484\C,0,-1.77301016,1.39321618,-
 0.70260798\C,0,0.02955905,1.15139945,1.11610401\N,0,-0.9802605,1.51728
 337,1.75093588\H,0,3.60431093,-1.23389458,0.47130656\H,0,1.10741792,1.
 23715915,1.16920373\H,0,3.74826183,-0.16199875,-1.02489514\H,0,1.26760

 Normal termination of Gaussian 16 at Wed Apr  9 18:24:32 2025.
 Gaussian 16:  ES64L-G16RevC.01  3-Jul-2019

 ----------------------------------------------------------------------
 #t hf aug-cc-pvdz iop(5/13=1,5/36=2,99/5=2) pseudo=read geom=check gue
 ss=(read,tcheck) scf=(maxcycle=1)
 ----------------------------------------------------------------------
 -----
 title
 -----
 Structure from the checkpoint file:  "Grambow2020_wb97xd3_007530_reverse_mol2.chk"
 Charge =  0 Multiplicity = 1

                         Standard orientation:
 ---------------------------------------------------------------------
 Center     Atomic      Atomic             Coordinates (Angstroms)
 Number     Number       Type             X           Y           Z
 ---------------------------------------------------------------------
      1          6           0       -3.437116    0.263405    0.121525
      2          6           0       -2.474057   -0.641639    0.077789
      3          6           0        1.216364   -0.023832   -0.011536
      4          6           0        1.157132   -1.058607   -1.108234
      5          6           0        1.761571   -0.517914    1.305616
      6          6           0        0.427306    1.187048   -0.083011
      7          7           0        1.609139    1.388060   -0.428671
      8          1           0       -3.835456    0.712238   -0.781341
      9          1           0       -0.499662    1.735296    0.027035
     10          1           0       -3.870658    0.588818    1.060351
     11          1           0       -2.042627   -0.968627   -0.861569
     12          1           0       -2.075142   -1.092988    0.979342
     13          1           0        0.759273   -0.635642   -2.030829
     14          1           0        2.156130   -1.451431   -1.316965
     15          1           0        0.526614   -1.902721   -0.815659
     16          1           0        2.757654   -0.948712    1.171630
     17          1           0        1.834975    0.292465    2.030794
     18          1           0        1.117730   -1.295887    1.725011
 ---------------------------------------------------------------------

 SCF Done:  E(RHF) =  -288.300136031     A.U. after    2 cycles

 The electronic state is 1-A.
 Alpha  occ. eigenvalues --  -15.51554 -11.28624 -11.27988 -11.24942 -11.24784
 Alpha  occ. eigenvalues --  -11.22815 -11.22743  -1.31476  -1.04941  -1.03260
 Alpha  occ. eigenvalues --   -0.94837  -0.80690  -0.80020  -0.78639  -0.66137
 Alpha  occ. eigenvalues --   -0.65897  -0.62442  -0.61394  -0.60929  -0.58384
 Alpha  occ. eigenvalues --   -0.54783  -0.52447  -0.52074  -0.51978  -0.43646
 Alpha  occ. eigenvalues --   -0.40217  -0.39633
 Alpha virt. eigenvalues --    0.03435   0.03634   0.03870   0.04557   0.05302
 Alpha virt. eigenvalues --    0.05519   0.06061   0.07115   0.07975   0.08127
 Alpha virt. eigenvalues --    0.09660   0.10472   0.10735   0.12363   0.12650

 Mulliken charges:
               1
     1  C    0.026659
     2  C    0.289894
     3  C   -0.821257
     4  C   -0.380232
     5  C   -0.500487
     6  C   -0.150517
     7  N    0.615164
     8  H   -0.056125
     9  H   -0.006179
    10  H   -0.061912
    11  H   -0.120987
    12  H   -0.082583
    13  H    0.168708
    14  H    0.194151
    15  H    0.275939
    16  H    0.226665
    17  H    0.152039
    18  H    0.231061
 Sum of Mulliken charges =  -0.00000

 Dipole moment (field-independent basis, Debye):
    X=             -2.4332    Y=             -1.4204    Z=              0.9180  Tot=              2.9632

 Test job not archived.
 1\1\GINC-SE112\SP\RHF\Aug-CC-pVDZ\C6H11N1\OHZDE\09-Apr-2025\0\\#t hf a
 ug-cc-pvdz iop(5/13=1,5/36=2,99/5=2) pseudo=read geom=check guess=(rea
 d,tcheck) scf=(maxcycle=1)\\title\\0,1\C,0,3.13543179,-0.81144992,-0.4
 1016086\C,0,1.8792559,-1.08144773,-0.72261151\C,0,-1.18967102,0.682486
 67,0.4935682\C,0,-1.67450489,-0.73195764,0.69678484\C,0,-1.77301016,1.
 39321618,-0.70260798\C,0,0.02955905,1.15139945,1.11610401\N,0,-0.98026
 05,1.51728337,1.75093588\H,0,3.60431093,-1.23389458,0.47130656\H,0,1.1
 0741792,1.23715915,1.16920373\H,0,3.74826183,-0.16199875,-1.02489514\H

 Normal termination of Gaussian 16 at Wed Apr  9 18:24:38 2025.
