 Gaussian 16, Revision C.01,

 ----------------------------------------------------------------------
 #t hf aug-cc-pvdz symm=none int=(grid=ultrafine) guess=(read,tcheck) s
 table=(opt,rrhf)
 ----------------------------------------------------------------------
 -----
 title
 -----
 Symbolic Z-matrix:
 Charge =  0 Multiplicity = 1

 SCF Done:  E(RHF) =  -284.725891874     A.U. after   16 cycles
 Normal termination of Gaussian 16 at Wed Apr  9 17:06:21 2025.
 Gaussian 16:  ES64L-G16RevC.01  3-Jul-2019

 ----------------------------------------------------------------------
 #t hf aug-cc-pvdz iop(5/13=1,5/36=2,99/5=2) pseudo=read geom=check gue
 ss=(read,tcheck) scf=(maxcycle=1)
 ----------------------------------------------------------------------
 -----
 title
 -----
 Structure from the checkpoint file:  "Grambow2020_wb97xd3_006240_forward_mol1.chk"
 Charge =  0 Multiplicity = 1

                         Standard orientation:
 ---------------------------------------------------------------------
 Center     Atomic      Atomic             Coordinates (Angstroms)
 Number     Number       Type             X           Y           Z
 ---------------------------------------------------------------------
      1          8           0       -2.176945   -0.378040    0.397133
      2          6           0       -1.464854    0.453688   -0.103250
      3          7           0       -0.203359    0.206029   -0.573197
      4          6           0        0.569528   -0.991880   -0.206665
      5          6           0        1.855034   -0.297797    0.256970
      6          6           0        1.319913    1.131634    0.142737
      7          1           0       -1.771450    1.503704   -0.248827
      8          1           0        0.043139   -1.509401    0.594555
      9          1           0        0.679468   -1.674989   -1.049629
     10          1           0        2.146806   -0.590869    1.265678
     11          1           0        2.701214   -0.465901   -0.410726
     12          1           0        0.459720    1.048964   -0.940261
     13          1           0        0.902447    1.496740    1.085774
 ---------------------------------------------------------------------

 SCF Done:  E(RHF) =  -285.016720823     A.U. after    2 cycles

 The electronic state is 1-A.
 Alpha  occ. eigenvalues --  -20.53484 -15.54760 -11.37095 -11.29089 -11.28529
 Alpha  occ. eigenvalues --  -11.25422  -1.48286  -1.27320  -1.06890  -0.94748
 Alpha  occ. eigenvalues --   -0.88168  -0.76786  -0.76635  -0.68514  -0.66203
 Alpha  occ. eigenvalues --   -0.62124  -0.61034  -0.56865  -0.55518  -0.51501
 Alpha  occ. eigenvalues --   -0.44681  -0.43475  -0.36409
 Alpha virt. eigenvalues --    0.03597   0.03963   0.04158   0.04780   0.05744
 Alpha virt. eigenvalues --    0.06569   0.07311   0.08045   0.09495   0.10551
 Alpha virt. eigenvalues --    0.12341   0.13326   0.13945   0.14661   0.15832

 Mulliken charges:
               1
     1  O   -1.085776
     2  C    0.602775
     3  N    0.188199
     4  C   -0.220492
     5  C   -0.173652
     6  C   -0.367307
     7  H    0.101259
     8  H    0.036896
     9  H    0.038082
    10  H    0.098275
    11  H    0.102761
    12  H    0.573793
    13  H    0.105185
 Sum of Mulliken charges =  -0.00000

 Dipole moment (field-independent basis, Debye):
    X=              2.3200    Y=              0.2549    Z=              0.0892  Tot=              2.3357

 Test job not archived.
 1\1\GINC-SE041\SP\RHF\Aug-CC-pVDZ\C4H7N1O1\OHZDE\09-Apr-2025\0\\#t hf
 aug-cc-pvdz iop(5/13=1,5/36=2,99/5=2) pseudo=read geom=check guess=(re
 ad,tcheck) scf=(maxcycle=1)\\title\\0,1\O,0,2.27480873,1.31302924,-0.2
 5947484\C,0,1.86093778,0.22117836,-0.55239346\N,0,0.54588138,-0.061894
 15,-0.80547685\C,0,-0.55815541,0.82576527,-0.40566543\C,0,-1.41664583,
 -0.20308474,0.33844297\C,0,-0.4101036,-1.35259465,0.24801637\H,0,2.512
 3983,-0.66253828,-0.66362382\H,0,-0.15656884,1.60460566,0.24163694\H,0
 ,-1.02913542,1.29809917,-1.26844729\H,0,-1.65424786,0.10936225,1.35551

 Normal termination of Gaussian 16 at Wed Apr  9 17:06:26 2025.
