 Gaussian 16, Revision C.01,

 ----------------------------------------------------------------------
 #t hf aug-cc-pvdz symm=none int=(grid=ultrafine) guess=(read,tcheck) s
 table=(opt,rrhf)
 ----------------------------------------------------------------------
 -----
 title
 -----
 Symbolic Z-matrix:
 Charge =  0 Multiplicity = 1

 SCF Done:  E(RHF) =  -268.702603286     A.U. after   17 cycles
 Normal termination of Gaussian 16 at Wed Apr  9 15:59:56 2025.
 Gaussian 16:  ES64L-G16RevC.01  3-Jul-2019

 ----------------------------------------------------------------------
 #t hf aug-cc-pvdz iop(5/13=1,5/36=2,99/5=2) pseudo=read geom=check gue
 ss=(read,tcheck) scf=(maxcycle=1)
 ----------------------------------------------------------------------
 -----
 title
 -----
 Structure from the checkpoint file:  "Grambow2020_b97d3_007072_forward_mol1.chk"
 Charge =  0 Multiplicity = 1

                         Standard orientation:
 ---------------------------------------------------------------------
 Center     Atomic      Atomic             Coordinates (Angstroms)
 Number     Number       Type             X           Y           Z
 ---------------------------------------------------------------------
      1          6           0       -2.189804    0.053501    0.050640
      2          6           0       -0.735545    0.057836   -0.306106
      3          6           0        0.154994    1.155800   -0.026132
      4          6           0        1.518395    0.635123    0.016489
      5          8           0        1.505650   -0.693964   -0.033107
      6          6           0        0.077011   -1.167579    0.035355
      7          1           0       -2.752837   -0.684281   -0.546009
      8          1           0       -2.651723    1.034376   -0.134384
      9          1           0       -2.380505   -0.205705    1.118688
     10          1           0       -0.014278    2.180804   -0.368033
     11          1           0        0.384967    1.259036    1.138320
     12          1           0        2.480759    1.135000   -0.000937
     13          1           0       -0.061654   -1.546513    1.082453
     14          1           0       -0.000242   -2.029088   -0.646719
 ---------------------------------------------------------------------

 SCF Done:  E(RHF) =  -268.983157480     A.U. after    2 cycles

 The electronic state is 1-A.
 Alpha  occ. eigenvalues --  -20.62786 -11.40488 -11.29765 -11.27621 -11.20849
 Alpha  occ. eigenvalues --  -11.16290  -1.54030  -1.10241  -1.02395  -0.92721
 Alpha  occ. eigenvalues --   -0.82692  -0.78341  -0.72606  -0.67713  -0.63692
 Alpha  occ. eigenvalues --   -0.58712  -0.56079  -0.54675  -0.53379  -0.51127
 Alpha  occ. eigenvalues --   -0.48934  -0.47160  -0.21987
 Alpha virt. eigenvalues --    0.02464   0.04076   0.04568   0.04705   0.05784
 Alpha virt. eigenvalues --    0.05998   0.06822   0.07293   0.08134   0.10165
 Alpha virt. eigenvalues --    0.11539   0.13067   0.13404   0.14010   0.15394

 Mulliken charges:
               1
     1  C   -0.383651
     2  C   -0.258135
     3  C   -0.555669
     4  C    0.973648
     5  O   -1.320268
     6  C    0.267108
     7  H    0.190573
     8  H    0.140526
     9  H    0.199602
    10  H    0.018701
    11  H    0.542082
    12  H   -0.024663
    13  H    0.147937
    14  H    0.062208
 Sum of Mulliken charges =  -0.00000

 Dipole moment (field-independent basis, Debye):
    X=              2.8467    Y=              1.6916    Z=              0.9248  Tot=              3.4381

 Test job not archived.
 1\1\GINC-SE114\SP\RHF\Aug-CC-pVDZ\C5H8O1\OHZDE\09-Apr-2025\0\\#t hf au
 g-cc-pvdz iop(5/13=1,5/36=2,99/5=2) pseudo=read geom=check guess=(read
 ,tcheck) scf=(maxcycle=1)\\title\\0,1\C,0,-1.77469344,0.40224049,-0.41
 995418\C,0,-0.35526243,-0.07407854,-0.44211815\C,0,0.78573184,0.803707
 65,-0.37433031\C,0,1.92035243,0.03545213,0.1298553\O,0,1.51903763,-1.1
 6554408,0.53685657\C,0,0.01547286,-1.22525229,0.46112047\H,0,-2.464100
 28,-0.35415972,-0.83213924\H,0,-1.9020412,1.31356846,-1.02243474\H,0,-
 2.14691877,0.62976065,0.60667243\H,0,0.96597035,1.62478276,-1.07399502

 Normal termination of Gaussian 16 at Wed Apr  9 16:00:00 2025.
