 Gaussian 16, Revision C.01,

 ----------------------------------------------------------------------
 #t hf aug-cc-pvdz symm=none int=(grid=ultrafine) guess=(read,tcheck) s
 table=(opt,rrhf)
 ----------------------------------------------------------------------
 -----
 title
 -----
 Symbolic Z-matrix:
 Charge =  0 Multiplicity = 1

 SCF Done:  E(RHF) =  -343.469669681     A.U. after   16 cycles
 Normal termination of Gaussian 16 at Wed Apr  9 03:58:17 2025.
 Gaussian 16:  ES64L-G16RevC.01  3-Jul-2019

 ----------------------------------------------------------------------
 #t hf aug-cc-pvdz iop(5/13=1,5/36=2,99/5=2) pseudo=read geom=check gue
 ss=(read,tcheck) scf=(maxcycle=1)
 ----------------------------------------------------------------------
 -----
 title
 -----
 Structure from the checkpoint file:  "Grambow2020_wb97xd3_008648_forward_mol1.chk"
 Charge =  0 Multiplicity = 1

                         Standard orientation:
 ---------------------------------------------------------------------
 Center     Atomic      Atomic             Coordinates (Angstroms)
 Number     Number       Type             X           Y           Z
 ---------------------------------------------------------------------
      1          6           0       -2.291350    0.662583    0.129555
      2          6           0       -1.271644   -0.408814    0.368142
      3          8           0       -0.711545   -1.041088   -0.780388
      4          6           0        0.123858   -0.228211    0.009540
      5          6           0        1.458119   -0.656692    0.580600
      6          8           0        2.054097    0.317268   -0.191865
      7          6           0        0.924355    0.933436   -0.478771
      8          1           0       -2.405603    1.275968    1.024978
      9          1           0       -1.988185    1.304563   -0.698049
     10          1           0       -3.259874    0.221354   -0.110892
     11          1           0       -1.473223   -1.098483    1.184773
     12          1           0        1.094147    0.680376    1.761330
     13          1           0        1.928160   -1.631218    0.585117
     14          1           0        0.870045    1.838133   -1.060311
     15          1           0        0.834086    1.386062    1.436686
 ---------------------------------------------------------------------

 SCF Done:  E(RHF) =  -343.819289453     A.U. after    2 cycles

 The electronic state is 1-A.
 Alpha  occ. eigenvalues --  -20.65555 -20.58339 -11.34813 -11.31993 -11.31426
 Alpha  occ. eigenvalues --  -11.28125 -11.24949  -1.59878  -1.52328  -1.04319
 Alpha  occ. eigenvalues --   -1.01678  -0.96151  -0.87526  -0.76181  -0.75200
 Alpha  occ. eigenvalues --   -0.71605  -0.69458  -0.64798  -0.61938  -0.58890
 Alpha  occ. eigenvalues --   -0.57365  -0.54297  -0.52592  -0.50408  -0.46453
 Alpha  occ. eigenvalues --   -0.45054  -0.28814
 Alpha virt. eigenvalues --    0.03210   0.03567   0.04328   0.04971   0.05345
 Alpha virt. eigenvalues --    0.05814   0.06914   0.07703   0.08835   0.11201
 Alpha virt. eigenvalues --    0.11499   0.12221   0.12937   0.13953   0.14213

 Mulliken charges:
               1
     1  C   -0.555660
     2  C    0.239867
     3  O   -1.473978
     4  C    1.289115
     5  C    0.284311
     6  O   -1.113073
     7  C    0.706383
     8  H    0.261443
     9  H    0.204105
    10  H    0.214629
    11  H   -0.013003
    12  H    0.200888
    13  H   -0.127459
    14  H   -0.124126
    15  H    0.006559
 Sum of Mulliken charges =   0.00000

 Dipole moment (field-independent basis, Debye):
    X=             -1.7002    Y=              1.0831    Z=             -0.3625  Tot=              2.0482

 Test job not archived.
 1\1\GINC-SE049\SP\RHF\Aug-CC-pVDZ\C5H8O2\OHZDE\09-Apr-2025\0\\#t hf au
 g-cc-pvdz iop(5/13=1,5/36=2,99/5=2) pseudo=read geom=check guess=(read
 ,tcheck) scf=(maxcycle=1)\\title\\0,1\C,0,1.97409942,-0.37701709,0.496
 6675\C,0,0.92238399,0.67567558,0.32245865\O,0,0.67208098,1.13168172,-1
 .0049488\C,0,-0.33396384,0.39592371,-0.34982559\C,0,-1.77190998,0.8423
 6252,-0.19829327\O,0,-2.14579097,-0.24585813,-0.95755436\C,0,-0.977429
 35,-0.84946228,-0.8632779\H,0,1.85812907,-0.86444219,1.46622665\H,0,1.
 89586074,-1.13202588,-0.28615801\H,0,2.96986617,0.06680122,0.45182204\

 Normal termination of Gaussian 16 at Wed Apr  9 03:58:22 2025.
