 Gaussian 16, Revision C.01,

 ----------------------------------------------------------------------
 #t hf aug-cc-pvdz symm=none int=(grid=ultrafine) guess=(read,tcheck) s
 table=(opt,rrhf)
 ----------------------------------------------------------------------
 -----
 title
 -----
 Symbolic Z-matrix:
 Charge =  0 Multiplicity = 1

 SCF Done:  E(RHF) =  -338.573657846     A.U. after   17 cycles
 Normal termination of Gaussian 16 at Wed Apr  9 17:50:36 2025.
 Gaussian 16:  ES64L-G16RevC.01  3-Jul-2019

 ----------------------------------------------------------------------
 #t hf aug-cc-pvdz iop(5/13=1,5/36=2,99/5=2) pseudo=read geom=check gue
 ss=(read,tcheck) scf=(maxcycle=1)
 ----------------------------------------------------------------------
 -----
 title
 -----
 Structure from the checkpoint file:  "Grambow2020_wb97xd3_006843_reverse_mol1.chk"
 Charge =  0 Multiplicity = 1

                         Standard orientation:
 ---------------------------------------------------------------------
 Center     Atomic      Atomic             Coordinates (Angstroms)
 Number     Number       Type             X           Y           Z
 ---------------------------------------------------------------------
      1          7           0        2.330339   -0.096406    0.158625
      2          6           0        0.988650   -0.039761   -0.090289
      3          6           0        0.171056    1.114578    0.229256
      4          7           0       -1.005159    0.943827   -0.606958
      5          6           0       -1.107158   -0.421643   -0.353276
      6          8           0       -1.782793   -0.608927    0.730149
      7          6           0        0.161775   -1.041446   -0.547764
      8          1           0        2.724858    0.638717    0.717638
      9          1           0        2.738623   -1.001164    0.312696
     10          1           0        0.618985    2.104524    0.287297
     11          1           0       -1.811967    1.404549   -0.207702
     12          1           0       -0.912578    0.225628    1.263401
     13          1           0        0.342234   -2.103161   -0.503752
 ---------------------------------------------------------------------

 SCF Done:  E(RHF) =  -338.922104648     A.U. after    2 cycles

 The electronic state is 1-A.
 Alpha  occ. eigenvalues --  -20.56925 -15.53152 -15.51929 -11.36331 -11.31256
 Alpha  occ. eigenvalues --  -11.27583 -11.22747  -1.49486  -1.27956  -1.23175
 Alpha  occ. eigenvalues --   -1.06906  -0.95426  -0.83722  -0.79795  -0.75618
 Alpha  occ. eigenvalues --   -0.71559  -0.69313  -0.65107  -0.63836  -0.60935
 Alpha  occ. eigenvalues --   -0.57445  -0.54055  -0.50593  -0.46467  -0.36075
 Alpha  occ. eigenvalues --   -0.32219
 Alpha virt. eigenvalues --    0.02643   0.04234   0.04551   0.05530   0.05892
 Alpha virt. eigenvalues --    0.06755   0.07470   0.09709   0.10285   0.10758
 Alpha virt. eigenvalues --    0.11811   0.12629   0.13737   0.14003   0.15446

 Mulliken charges:
               1
     1  N    0.675613
     2  C   -0.698860
     3  C   -0.652847
     4  N    0.404421
     5  C    0.370544
     6  O   -1.329594
     7  C    0.454888
     8  H    0.063110
     9  H    0.101190
    10  H   -0.170091
    11  H    0.302413
    12  H    0.564030
    13  H   -0.084818
 Sum of Mulliken charges =  -0.00000

 Dipole moment (field-independent basis, Debye):
    X=              2.5043    Y=              0.2414    Z=              1.2935  Tot=              2.8290

 Test job not archived.
 1\1\GINC-SE103\SP\RHF\Aug-CC-pVDZ\C4H6N2O1\OHZDE\09-Apr-2025\0\\#t hf
 aug-cc-pvdz iop(5/13=1,5/36=2,99/5=2) pseudo=read geom=check guess=(re
 ad,tcheck) scf=(maxcycle=1)\\title\\0,1\N,0,-1.9634876,0.63714342,-0.2
 3162798\C,0,-0.64272128,0.29388202,-0.28680727\C,0,-0.15350606,-1.0310
 9556,0.04208548\N,0,1.1515645,-1.08276463,-0.59510638\C,0,1.50053946,0
 .20809298,-0.20630149\O,0,2.015974,0.17694023,0.97637552\C,0,0.4420283
 7,1.10775063,-0.5262113\H,0,-2.59119596,-0.02056518,0.19492478\H,0,-2.
 18842823,1.60044239,-0.05704867\H,0,-0.8059826,-1.89636367,-0.05582834

 Normal termination of Gaussian 16 at Wed Apr  9 17:50:41 2025.
