 Gaussian 16, Revision C.01,

 ----------------------------------------------------------------------
 #t hf aug-cc-pvdz symm=none int=(grid=ultrafine) guess=(read,tcheck) s
 table=(opt,rrhf)
 ----------------------------------------------------------------------
 -----
 title
 -----
 Symbolic Z-matrix:
 Charge =  0 Multiplicity = 1

 SCF Done:  E(RHF) =  -375.778180394     A.U. after   14 cycles
 Normal termination of Gaussian 16 at Wed Apr  9 03:46:27 2025.
 Gaussian 16:  ES64L-G16RevC.01  3-Jul-2019

 ----------------------------------------------------------------------
 #t hf aug-cc-pvdz iop(5/13=1,5/36=2,99/5=2) pseudo=read geom=check gue
 ss=(read,tcheck) scf=(maxcycle=1)
 ----------------------------------------------------------------------
 -----
 title
 -----
 Structure from the checkpoint file:  "Grambow2020_wb97xd3_007859_reverse_mol2.chk"
 Charge =  0 Multiplicity = 1

                         Standard orientation:
 ---------------------------------------------------------------------
 Center     Atomic      Atomic             Coordinates (Angstroms)
 Number     Number       Type             X           Y           Z
 ---------------------------------------------------------------------
      1          7           0       -0.883911    1.334439   -0.182128
      2          6           0       -1.274945    0.046963    0.050099
      3          8           0        1.963686    0.807035    0.418830
      4          6           0       -0.177534   -0.884550    0.515879
      5          8           0        0.906566   -0.996140   -0.423254
      6          6           0        1.901922   -0.126859   -0.333269
      7          7           0       -2.439251   -0.449838   -0.076146
      8          1           0       -1.579014    2.028254   -0.387692
      9          1           0        0.008932    1.648071    0.160727
     10          1           0       -0.599923   -1.880346    0.595633
     11          1           0        0.216342   -0.558020    1.480622
     12          1           0        2.681313   -0.385959   -1.060817
     13          1           0       -3.124196    0.255305   -0.341414
 ---------------------------------------------------------------------

 SCF Done:  E(RHF) =  -376.154609273     A.U. after    2 cycles

 The electronic state is 1-A.
 Alpha  occ. eigenvalues --  -20.61522 -20.56007 -15.52091 -15.47232 -11.41108
 Alpha  occ. eigenvalues --  -11.32836 -11.31551  -1.57273  -1.48022  -1.27006
 Alpha  occ. eigenvalues --   -1.15834  -1.02733  -0.87740  -0.80979  -0.77416
 Alpha  occ. eigenvalues --   -0.75590  -0.73944  -0.70460  -0.66217  -0.60915
 Alpha  occ. eigenvalues --   -0.58675  -0.57965  -0.53146  -0.49189  -0.47235
 Alpha  occ. eigenvalues --   -0.46413  -0.41699
 Alpha virt. eigenvalues --    0.03195   0.03923   0.05067   0.05633   0.06201
 Alpha virt. eigenvalues --    0.07479   0.08796   0.10373   0.11683   0.12321
 Alpha virt. eigenvalues --    0.12695   0.13498   0.14698   0.15440   0.16206

 Mulliken charges:
               1
     1  N    0.678245
     2  C   -1.984393
     3  O   -1.005019
     4  C    0.727237
     5  O   -1.087903
     6  C    1.318338
     7  N    0.823496
     8  H    0.061428
     9  H    0.009631
    10  H    0.046462
    11  H    0.238429
    12  H    0.097583
    13  H    0.076466
 Sum of Mulliken charges =  -0.00000

 Dipole moment (field-independent basis, Debye):
    X=              1.1831    Y=              1.3556    Z=             -0.3389  Tot=              1.8309

 Test job not archived.
 1\1\GINC-SE143\SP\RHF\Aug-CC-pVDZ\C3H6N2O2\OHZDE\09-Apr-2025\0\\#t hf
 aug-cc-pvdz iop(5/13=1,5/36=2,99/5=2) pseudo=read geom=check guess=(re
 ad,tcheck) scf=(maxcycle=1)\\title\\0,1\N,0,-1.04866381,0.35121619,-0.
 99742635\C,0,0.02209376,-0.49576308,-0.9742237\O,0,-1.01421605,0.82295
 996,1.92222808\C,0,0.58214378,-0.78710606,0.40070977\O,0,1.03476824,0.
 39233705,1.08899881\C,0,0.15850232,1.06092199,1.82359625\N,0,0.5916443
 1,-1.06087889,-1.96144835\H,0,-1.53593897,0.50162632,-1.86157007\H,0,-
 1.53462384,0.55530161,-0.13994502\H,0,1.46186596,-1.40896267,0.2751383

 Normal termination of Gaussian 16 at Wed Apr  9 03:46:31 2025.
