 Gaussian 16, Revision C.01,

 ----------------------------------------------------------------------
 #t hf aug-cc-pvdz symm=none int=(grid=ultrafine) guess=(read,tcheck) s
 table=(opt,rrhf)
 ----------------------------------------------------------------------
 -----
 title
 -----
 Symbolic Z-matrix:
 Charge =  0 Multiplicity = 1

 SCF Done:  E(RHF) =  -374.471347453     A.U. after   17 cycles
 Normal termination of Gaussian 16 at Wed Apr  9 19:21:48 2025.
 Gaussian 16:  ES64L-G16RevC.01  3-Jul-2019

 ----------------------------------------------------------------------
 #t hf aug-cc-pvdz iop(5/13=1,5/36=2,99/5=2) pseudo=read geom=check gue
 ss=(read,tcheck) scf=(maxcycle=1)
 ----------------------------------------------------------------------
 -----
 title
 -----
 Structure from the checkpoint file:  "Grambow2020_wb97xd3_009448_forward_mol1.chk"
 Charge =  0 Multiplicity = 1

                         Standard orientation:
 ---------------------------------------------------------------------
 Center     Atomic      Atomic             Coordinates (Angstroms)
 Number     Number       Type             X           Y           Z
 ---------------------------------------------------------------------
      1          8           0       -2.357876   -0.529872    0.084925
      2          6           0       -1.183905   -0.203350   -0.414508
      3          7           0       -0.125003   -0.893760   -0.078517
      4          6           0        0.987832   -0.208533    0.065630
      5          8           0        2.182050   -0.810905    0.087894
      6          6           0        0.866704    1.193302    0.004911
      7          7           0       -0.327002    1.730819    0.028876
      8          1           0       -2.269981   -1.216972    0.763366
      9          1           0        2.054021   -1.743752   -0.112903
     10          1           0        1.703018    1.776952   -0.368316
     11          1           0       -0.940205    1.362058    0.746600
 ---------------------------------------------------------------------

 SCF Done:  E(RHF) =  -374.839920842     A.U. after    2 cycles

 The electronic state is 1-A.
 Alpha  occ. eigenvalues --  -20.61617 -20.61476 -15.55193 -15.53032 -11.37499
 Alpha  occ. eigenvalues --  -11.34552 -11.29448  -1.54579  -1.53858  -1.30339
 Alpha  occ. eigenvalues --   -1.21459  -1.00351  -0.90554  -0.83894  -0.79675
 Alpha  occ. eigenvalues --   -0.76095  -0.67445  -0.67112  -0.64061  -0.61104
 Alpha  occ. eigenvalues --   -0.59844  -0.56514  -0.51441  -0.49961  -0.44868
 Alpha  occ. eigenvalues --   -0.33678
 Alpha virt. eigenvalues --    0.02099   0.03660   0.04597   0.05267   0.05988
 Alpha virt. eigenvalues --    0.08799   0.09736   0.10069   0.10785   0.11356
 Alpha virt. eigenvalues --    0.12481   0.13703   0.14464   0.15039   0.15811

 Mulliken charges:
               1
     1  O   -1.026517
     2  C    0.151092
     3  N    0.799801
     4  C    0.539744
     5  O   -1.352416
     6  C   -0.519514
     7  N    0.557765
     8  H    0.279468
     9  H    0.315077
    10  H   -0.028758
    11  H    0.284258
 Sum of Mulliken charges =  -0.00000

 Dipole moment (field-independent basis, Debye):
    X=              1.3898    Y=             -2.5559    Z=              2.0567  Tot=              3.5629

 Test job not archived.
 1\1\GINC-SE118\SP\RHF\Aug-CC-pVDZ\C3H4N2O2\OHZDE\09-Apr-2025\0\\#t hf
 aug-cc-pvdz iop(5/13=1,5/36=2,99/5=2) pseudo=read geom=check guess=(re
 ad,tcheck) scf=(maxcycle=1)\\title\\0,1\O,0,-2.33520818,0.78537933,-0.
 14003546\C,0,-1.16138995,0.30512223,0.21459525\N,0,-0.0714706,0.927338
 3,-0.15385044\C,0,0.95171082,0.16235631,-0.46468443\O,0,2.19360044,0.6
 5335672,-0.54300255\C,0,0.69771517,-1.22168932,-0.52304917\N,0,-0.5411
 4403,-1.64380392,-0.48459334\H,0,-2.2373073,1.52682368,-0.75711803\H,0
 ,2.17617265,1.5688333,-0.24548905\H,0,1.50057748,-1.91337283,-0.285662

 Normal termination of Gaussian 16 at Wed Apr  9 19:21:52 2025.
