 Gaussian 16, Revision C.01,

 ----------------------------------------------------------------------
 #t hf aug-cc-pvdz symm=none int=(grid=ultrafine) guess=(read,tcheck) s
 table=(opt,rrhf)
 ----------------------------------------------------------------------
 -----
 title
 -----
 Symbolic Z-matrix:
 Charge =  0 Multiplicity = 1

 SCF Done:  E(RHF) =  -344.779695554     A.U. after   15 cycles

 1\1\GINC-SE041\Stability\RHF\Aug-CC-pVDZ\C5H10O2\OHZDE\09-Apr-2025\0\\
 #t hf aug-cc-pvdz symm=none int=(grid=ultrafine) guess=(read,tcheck) s
 table=(opt,rrhf)\\title\\0,1\C,0,2.30697473,0.44378322,-0.62676035\C,0
 ,1.12969961,-0.31870316,-0.10498704\C,0,0.75148996,0.04409865,1.310947
 34\O,0,-0.71985144,-0.00480262,1.26712033\C,0,-1.04720812,0.23158469,0
 .03146315\C,0,-2.46609878,0.40319478,-0.3437679\O,0,-0.10412832,0.2168
 6513,-0.78947945\H,0,2.42730919,0.30729673,-1.70232436\H,0,3.21002703,
 0.04731143,-0.15692738\H,0,2.2739005,1.52981779,-0.4142768\H,0,-0.3603

 Normal termination of Gaussian 16 at Wed Apr  9 18:07:01 2025.
 Gaussian 16:  ES64L-G16RevC.01  3-Jul-2019

 ----------------------------------------------------------------------
 #t hf aug-cc-pvdz iop(5/13=1,5/36=2,99/5=2) pseudo=read geom=check gue
 ss=(read,tcheck) scf=(maxcycle=1)
 ----------------------------------------------------------------------
 -----
 title
 -----
 Structure from the checkpoint file:  "Grambow2020_wb97xd3_007101_reverse_mol2.chk"
 Charge =  0 Multiplicity = 1

                         Standard orientation:
 ---------------------------------------------------------------------
 Center     Atomic      Atomic             Coordinates (Angstroms)
 Number     Number       Type             X           Y           Z
 ---------------------------------------------------------------------
      1          6           0        2.375205   -0.670659   -0.243659
      2          6           0        1.171355   -0.102228    0.439890
      3          6           0        0.756704    1.250304   -0.087614
      4          8           0       -0.713253    1.166224   -0.051367
      5          6           0       -0.999967   -0.098028   -0.148078
      6          6           0       -2.404245   -0.534764   -0.292174
      7          8           0       -0.033168   -0.881896   -0.028016
      8          1           0        2.525446   -1.719222    0.016899
      9          1           0        3.257670   -0.130433    0.106839
     10          1           0        2.352454   -0.585030   -1.347228
     11          1           0       -0.339271   -0.267712    2.548875
     12          1           0        1.017366    1.467129   -1.146665
     13          1           0        1.045186    2.092670    0.536440
     14          1           0       -1.013888   -0.301846    2.882055
     15          1           0       -2.827618   -0.126176   -1.209998
     16          1           0       -2.452926   -1.619943   -0.309151
     17          1           0       -2.987369   -0.151816    0.546808
 ---------------------------------------------------------------------

 SCF Done:  E(RHF) =  -345.136555084     A.U. after    2 cycles

 The electronic state is 1-A.
 Alpha  occ. eigenvalues --  -20.62421 -20.62389 -11.43645 -11.29611 -11.28742
 Alpha  occ. eigenvalues --  -11.21089 -11.20380  -1.62576  -1.50685  -1.10166
 Alpha  occ. eigenvalues --   -1.01228  -0.93710  -0.84468  -0.82937  -0.73342
 Alpha  occ. eigenvalues --   -0.72842  -0.64809  -0.62510  -0.60628  -0.59931
 Alpha  occ. eigenvalues --   -0.58138  -0.56331  -0.55905  -0.55606  -0.52202
 Alpha  occ. eigenvalues --   -0.49383  -0.48142  -0.26156
 Alpha virt. eigenvalues --    0.02609   0.04060   0.04427   0.04808   0.06013
 Alpha virt. eigenvalues --    0.06084   0.06847   0.07775   0.08106   0.09835
 Alpha virt. eigenvalues --    0.10354   0.11397   0.11916   0.12978   0.13960

 Mulliken charges:
               1
     1  C   -0.352145
     2  C   -0.212088
     3  C    0.344412
     4  O   -1.398040
     5  C    1.924097
     6  C   -0.466125
     7  O   -1.257505
     8  H    0.139337
     9  H    0.192085
    10  H    0.182640
    11  H    0.094954
    12  H    0.097456
    13  H    0.051227
    14  H   -0.065996
    15  H    0.265074
    16  H    0.208195
    17  H    0.252422
 Sum of Mulliken charges =  -0.00000

 Dipole moment (field-independent basis, Debye):
    X=             -3.6689    Y=              0.4379    Z=             -2.3018  Tot=              4.3532

 Test job not archived.
 1\1\GINC-SE041\SP\RHF\Aug-CC-pVDZ\C5H10O2\OHZDE\09-Apr-2025\0\\#t hf a
 ug-cc-pvdz iop(5/13=1,5/36=2,99/5=2) pseudo=read geom=check guess=(rea
 d,tcheck) scf=(maxcycle=1)\\title\\0,1\C,0,2.30697473,0.44378322,-0.62
 676035\C,0,1.12969961,-0.31870316,-0.10498704\C,0,0.75148996,0.0440986
 5,1.31094734\O,0,-0.71985144,-0.00480262,1.26712033\C,0,-1.04720812,0.
 23158469,0.03146315\C,0,-2.46609878,0.40319478,-0.3437679\O,0,-0.10412
 832,0.21686513,-0.78947945\H,0,2.42730919,0.30729673,-1.70232436\H,0,3
 .21002703,0.04731143,-0.15692738\H,0,2.2739005,1.52981779,-0.4142768\H

 Normal termination of Gaussian 16 at Wed Apr  9 18:07:07 2025.
