 Gaussian 16, Revision C.01,

 ----------------------------------------------------------------------
 #t hf aug-cc-pvdz symm=none int=(grid=ultrafine) guess=(read,tcheck) s
 table=(opt,rrhf)
 ----------------------------------------------------------------------
 -----
 title
 -----
 Symbolic Z-matrix:
 Charge =  0 Multiplicity = 1

 SCF Done:  E(RHF) =  -323.792997491     A.U. after   15 cycles
 Normal termination of Gaussian 16 at Wed Apr  9 18:15:50 2025.
 Gaussian 16:  ES64L-G16RevC.01  3-Jul-2019

 ----------------------------------------------------------------------
 #t hf aug-cc-pvdz iop(5/13=1,5/36=2,99/5=2) pseudo=read geom=check gue
 ss=(read,tcheck) scf=(maxcycle=1)
 ----------------------------------------------------------------------
 -----
 title
 -----
 Structure from the checkpoint file:  "Grambow2020_wb97xd3_007249_forward_mol1.chk"
 Charge =  0 Multiplicity = 1

                         Standard orientation:
 ---------------------------------------------------------------------
 Center     Atomic      Atomic             Coordinates (Angstroms)
 Number     Number       Type             X           Y           Z
 ---------------------------------------------------------------------
      1          6           0        0.821797    1.553753   -0.208588
      2          6           0        1.094104    0.152948    0.243373
      3          6           0        2.179001   -0.578820   -0.480318
      4          6           0        0.437051   -0.402959    1.284505
      5          8           0       -2.401183    0.571855    0.058168
      6          6           0       -1.783267   -0.371579   -0.344322
      7          7           0       -0.748100   -1.103637   -0.398152
      8          1           0        0.608078    1.575746   -1.279407
      9          1           0        1.712820    2.167172   -0.047370
     10          1           0       -0.018039    1.997720    0.322469
     11          1           0        3.124763   -0.040179   -0.375766
     12          1           0        2.307515   -1.592108   -0.103230
     13          1           0        1.950735   -0.631732   -1.546929
     14          1           0        0.703261   -1.385008    1.652240
     15          1           0       -0.299658    0.160464    1.844538
     16          1           0       -2.135436   -1.221523   -1.112731
 ---------------------------------------------------------------------

 SCF Done:  E(RHF) =  -324.121977558     A.U. after    2 cycles

 The electronic state is 1-A.
 Alpha  occ. eigenvalues --  -20.53789 -15.58504 -11.37538 -11.28545 -11.25254
 Alpha  occ. eigenvalues --  -11.24563 -11.24195  -1.48263  -1.25225  -1.12017
 Alpha  occ. eigenvalues --   -0.96501  -0.95992  -0.75224  -0.75019  -0.69092
 Alpha  occ. eigenvalues --   -0.66150  -0.64530  -0.63992  -0.62161  -0.60067
 Alpha  occ. eigenvalues --   -0.56035  -0.54734  -0.54476  -0.51663  -0.45876
 Alpha  occ. eigenvalues --   -0.44983  -0.36510
 Alpha virt. eigenvalues --    0.03060   0.03527   0.04151   0.04237   0.05435
 Alpha virt. eigenvalues --    0.06010   0.06362   0.06597   0.07857   0.09505
 Alpha virt. eigenvalues --    0.10068   0.11608   0.12307   0.12843   0.14243

 Mulliken charges:
               1
     1  C   -0.421104
     2  C   -0.111747
     3  C   -0.606670
     4  C    0.416991
     5  O   -1.020830
     6  C   -0.150951
     7  N    0.667541
     8  H    0.261383
     9  H    0.192370
    10  H    0.147646
    11  H    0.239135
    12  H    0.129719
    13  H    0.230642
    14  H   -0.155732
    15  H   -0.195057
    16  H    0.376663
 Sum of Mulliken charges =   0.00000

 Dipole moment (field-independent basis, Debye):
    X=              2.7864    Y=             -0.3032    Z=             -0.3078  Tot=              2.8197

 Test job not archived.
 1\1\GINC-SE114\SP\RHF\Aug-CC-pVDZ\C5H9N1O1\OHZDE\09-Apr-2025\0\\#t hf
 aug-cc-pvdz iop(5/13=1,5/36=2,99/5=2) pseudo=read geom=check guess=(re
 ad,tcheck) scf=(maxcycle=1)\\title\\0,1\C,0,0.84709155,1.06932922,0.74
 337282\C,0,0.54496134,-0.32112275,0.27857514\C,0,1.47448591,-0.8964559
 4,-0.74181195\C,0,-0.47656934,-1.0405608,0.79198503\O,0,-2.49044784,1.
 46792117,0.3900557\C,0,-2.13179359,0.74509663,-0.49469119\N,0,-1.40235
 593,-0.17563718,-0.97484555\H,0,0.90437294,1.75301749,-0.10639321\H,0,
 1.82509758,1.08432021,1.23273512\H,0,0.09504671,1.43989968,1.43731602\

 Normal termination of Gaussian 16 at Wed Apr  9 18:15:56 2025.
