 Gaussian 16, Revision C.01,

 ----------------------------------------------------------------------
 #t hf aug-cc-pvdz symm=none int=(grid=ultrafine) guess=(read,tcheck) s
 table=(opt,rrhf)
 ----------------------------------------------------------------------
 -----
 title
 -----
 Symbolic Z-matrix:
 Charge =  0 Multiplicity = 1

 SCF Done:  E(RHF) =  -268.585045116     A.U. after   18 cycles
 Normal termination of Gaussian 16 at Wed Apr  9 15:59:58 2025.
 Gaussian 16:  ES64L-G16RevC.01  3-Jul-2019

 ----------------------------------------------------------------------
 #t hf aug-cc-pvdz iop(5/13=1,5/36=2,99/5=2) pseudo=read geom=check gue
 ss=(read,tcheck) scf=(maxcycle=1)
 ----------------------------------------------------------------------
 -----
 title
 -----
 Structure from the checkpoint file:  "Grambow2020_b97d3_007080_forward_mol1.chk"
 Charge =  0 Multiplicity = 1

                         Standard orientation:
 ---------------------------------------------------------------------
 Center     Atomic      Atomic             Coordinates (Angstroms)
 Number     Number       Type             X           Y           Z
 ---------------------------------------------------------------------
      1          6           0        2.227334   -0.249582   -0.086210
      2          6           0        0.778375    0.162121    0.085247
      3          6           0        0.287185    1.406669    0.062258
      4          6           0       -1.733276    0.470442    0.117099
      5          8           0       -1.374998   -0.774557   -0.471224
      6          6           0       -0.227216   -0.920267    0.330756
      7          1           0        2.536341   -0.900583    0.747661
      8          1           0        2.895931    0.618502   -0.100435
      9          1           0        2.372634   -0.821358   -1.014794
     10          1           0        0.634801    2.271691   -0.507717
     11          1           0       -1.913630    1.255205   -0.632323
     12          1           0       -2.651466    0.356112    0.713478
     13          1           0        0.112025   -1.964351    0.383036
     14          1           0       -0.981062    0.164946    1.125983
 ---------------------------------------------------------------------

 SCF Done:  E(RHF) =  -268.864020781     A.U. after    2 cycles

 The electronic state is 1-A.
 Alpha  occ. eigenvalues --  -20.56083 -11.31508 -11.30811 -11.26196 -11.25997
 Alpha  occ. eigenvalues --  -11.25499  -1.48687  -1.09485  -0.95845  -0.93447
 Alpha  occ. eigenvalues --   -0.87156  -0.72580  -0.70644  -0.66606  -0.62056
 Alpha  occ. eigenvalues --   -0.59308  -0.57586  -0.56931  -0.53055  -0.48326
 Alpha  occ. eigenvalues --   -0.45122  -0.36451  -0.29465
 Alpha virt. eigenvalues --    0.02985   0.03814   0.03930   0.04806   0.05647
 Alpha virt. eigenvalues --    0.06132   0.06635   0.07315   0.08882   0.09964
 Alpha virt. eigenvalues --    0.10780   0.12201   0.13739   0.14636   0.14938

 Mulliken charges:
               1
     1  C   -0.744159
     2  C    0.630189
     3  C   -0.494804
     4  C    0.071447
     5  O   -1.261358
     6  C    0.320944
     7  H    0.265911
     8  H    0.159886
     9  H    0.277590
    10  H   -0.109387
    11  H    0.029896
    12  H   -0.029065
    13  H   -0.123856
    14  H    1.006766
 Sum of Mulliken charges =  -0.00000

 Dipole moment (field-independent basis, Debye):
    X=              1.0900    Y=              0.2910    Z=             -0.1383  Tot=              1.1366

 Test job not archived.
 1\1\GINC-SE041\SP\RHF\Aug-CC-pVDZ\C5H8O1\OHZDE\09-Apr-2025\0\\#t hf au
 g-cc-pvdz iop(5/13=1,5/36=2,99/5=2) pseudo=read geom=check guess=(read
 ,tcheck) scf=(maxcycle=1)\\title\\0,1\C,0,-1.96578638,0.33514379,-0.40
 359895\C,0,-0.46416141,0.1655756,-0.2821562\C,0,0.48007767,0.94646881,
 -0.82003448\C,0,1.94976097,-0.24062113,0.3600673\O,0,1.06550549,-0.649
 29816,1.39717187\C,0,0.04174745,-1.00738927,0.49967594\H,0,-2.42529539
 ,-0.60461499,-0.75048919\H,0,-2.22777779,1.12183128,-1.12003348\H,0,-2
 .41991599,0.57848232,0.56844094\H,0,0.4538069,2.02151945,-1.0138055\H,

 Normal termination of Gaussian 16 at Wed Apr  9 16:00:02 2025.
