 Gaussian 16, Revision C.01,

 ----------------------------------------------------------------------
 #t hf aug-cc-pvdz symm=none int=(grid=ultrafine) guess=(read,tcheck) s
 table=(opt,rrhf)
 ----------------------------------------------------------------------
 -----
 title
 -----
 Symbolic Z-matrix:
 Charge =  0 Multiplicity = 1

 SCF Done:  E(RHF) =  -270.710942123     A.U. after   16 cycles
 Normal termination of Gaussian 16 at Wed Apr  9 18:57:04 2025.
 Gaussian 16:  ES64L-G16RevC.01  3-Jul-2019

 ----------------------------------------------------------------------
 #t hf aug-cc-pvdz iop(5/13=1,5/36=2,99/5=2) pseudo=read geom=check gue
 ss=(read,tcheck) scf=(maxcycle=1)
 ----------------------------------------------------------------------
 -----
 title
 -----
 Structure from the checkpoint file:  "Grambow2020_wb97xd3_008381_forward_mol1.chk"
 Charge =  0 Multiplicity = 1

                         Standard orientation:
 ---------------------------------------------------------------------
 Center     Atomic      Atomic             Coordinates (Angstroms)
 Number     Number       Type             X           Y           Z
 ---------------------------------------------------------------------
      1          6           0       -2.122734    0.171644   -0.175364
      2          6           0       -0.630825    0.014706    0.020519
      3          6           0        0.187257   -0.897457   -0.920028
      4          6           0        1.413248   -0.633017   -0.050747
      5          6           0       -0.254496   -0.746221    1.311295
      6          6           0        1.485192    0.879755   -0.027982
      7          6           0        0.226387    1.293503   -0.050423
      8          1           0       -2.562495    0.762018    0.632485
      9          1           0       -2.344784    0.675830   -1.118324
     10          1           0       -2.611890   -0.802837   -0.178569
     11          1           0        0.294966   -0.548792   -1.947982
     12          1           0       -0.154266   -1.931955   -0.883199
     13          1           0        2.331576   -1.212057   -0.152335
     14          1           0        0.014731   -0.019143    2.094433
     15          1           0        0.956783   -1.181051    0.991686
     16          1           0        2.400562    1.452565   -0.014886
     17          1           0       -0.149362    2.307946   -0.066934
 ---------------------------------------------------------------------

 SCF Done:  E(RHF) =  -270.999816168     A.U. after    2 cycles

 The electronic state is 1-A.
 Alpha  occ. eigenvalues --  -11.28930 -11.24911 -11.24287 -11.24131 -11.24105
 Alpha  occ. eigenvalues --  -11.23913 -11.22579  -1.19828  -1.02006  -0.99217
 Alpha  occ. eigenvalues --   -0.89956  -0.88777  -0.75487  -0.73484  -0.68814
 Alpha  occ. eigenvalues --   -0.64925  -0.59405  -0.58072  -0.56650  -0.53122
 Alpha  occ. eigenvalues --   -0.51680  -0.50249  -0.47524  -0.46113  -0.40225
 Alpha  occ. eigenvalues --   -0.30090
 Alpha virt. eigenvalues --    0.02939   0.03365   0.03827   0.04455   0.05294
 Alpha virt. eigenvalues --    0.06010   0.06328   0.06446   0.08606   0.08699
 Alpha virt. eigenvalues --    0.09260   0.11309   0.12135   0.12413   0.13777

 Mulliken charges:
               1
     1  C   -0.148421
     2  C   -0.907923
     3  C    0.118172
     4  C   -0.452840
     5  C   -0.550056
     6  C    0.474403
     7  C    0.544709
     8  H    0.231209
     9  H    0.211376
    10  H    0.218956
    11  H    0.000564
    12  H    0.064348
    13  H   -0.093625
    14  H    0.130523
    15  H    0.493759
    16  H   -0.145957
    17  H   -0.189195
 Sum of Mulliken charges =  -0.00000

 Dipole moment (field-independent basis, Debye):
    X=              1.2831    Y=              1.4658    Z=             -1.5067  Tot=              2.4628

 Test job not archived.
 1\1\GINC-SE115\SP\RHF\Aug-CC-pVDZ\C7H10\OHZDE\09-Apr-2025\0\\#t hf aug
 -cc-pvdz iop(5/13=1,5/36=2,99/5=2) pseudo=read geom=check guess=(read,
 tcheck) scf=(maxcycle=1)\\title\\0,1\C,0,2.01950292,0.01830109,0.09334
 731\C,0,0.51362236,-0.0001719,-0.05079348\C,0,-0.35098689,-0.84787977,
 0.90825233\C,0,-1.57719002,-0.46120882,0.08633908\C,0,0.02521588,-0.70
 543544,-1.33562844\C,0,-1.51200621,1.05203716,0.08289783\C,0,-0.220770
 36,1.34980905,0.06489314\H,0,2.48291349,0.57791701,-0.72312788\H,0,2.3
 1897894,0.4868243,1.03328537\H,0,2.41782755,-0.99639426,0.06828063\H,0

 Normal termination of Gaussian 16 at Wed Apr  9 18:57:11 2025.
