 Gaussian 16, Revision C.01,

 ----------------------------------------------------------------------
 #t hf aug-cc-pvdz symm=none int=(grid=ultrafine) guess=(read,tcheck) s
 table=(opt,rrhf)
 ----------------------------------------------------------------------
 -----
 title
 -----
 Symbolic Z-matrix:
 Charge =  0 Multiplicity = 1

 SCF Done:  E(RHF) =  -281.215671402     A.U. after   16 cycles
 Normal termination of Gaussian 16 at Wed Apr  9 03:05:35 2025.
 Gaussian 16:  ES64L-G16RevC.01  3-Jul-2019

 ----------------------------------------------------------------------
 #t hf aug-cc-pvdz iop(5/13=1,5/36=2,99/5=2) pseudo=read geom=check gue
 ss=(read,tcheck) scf=(maxcycle=1)
 ----------------------------------------------------------------------
 -----
 title
 -----
 Structure from the checkpoint file:  "Grambow2020_b97d3_006505_reverse_mol1.chk"
 Charge =  0 Multiplicity = 1

                         Standard orientation:
 ---------------------------------------------------------------------
 Center     Atomic      Atomic             Coordinates (Angstroms)
 Number     Number       Type             X           Y           Z
 ---------------------------------------------------------------------
      1          8           0       -0.002428    1.708450    0.000451
      2          6           0        0.002745    0.485553   -0.000768
      3          6           0        1.208776   -0.324593   -0.001507
      4          6           0        2.234878   -1.090680    0.000657
      5          6           0       -1.236196   -0.308729   -0.000276
      6          7           0       -2.239223   -0.913884    0.000574
      7          1           0        2.432772    0.160283    0.003735
 ---------------------------------------------------------------------

 SCF Done:  E(RHF) =  -281.480156873     A.U. after    2 cycles

 The electronic state is 1-A.
 Alpha  occ. eigenvalues --  -20.63036 -15.59125 -11.47057 -11.34576 -11.34330
 Alpha  occ. eigenvalues --  -11.34315  -1.55121  -1.28237  -1.17545  -1.04419
 Alpha  occ. eigenvalues --   -0.86748  -0.73999  -0.67177  -0.64868  -0.61266
 Alpha  occ. eigenvalues --   -0.56532  -0.54335  -0.53655  -0.50585  -0.47450
 Alpha virt. eigenvalues --   -0.01621   0.03151   0.05331   0.06539   0.06939
 Alpha virt. eigenvalues --    0.08498   0.09178   0.11022   0.11626   0.12301
 Alpha virt. eigenvalues --    0.12903   0.13630   0.14365   0.14450   0.15345

 Mulliken charges:
               1
     1  O   -1.173177
     2  C    1.936491
     3  C    0.148393
     4  C   -0.525410
     5  C   -1.559701
     6  N    0.820369
     7  H    0.353036
 Sum of Mulliken charges =  -0.00000

 Dipole moment (field-independent basis, Debye):
    X=              1.9977    Y=              1.2985    Z=             -0.0012  Tot=              2.3826

 Test job not archived.
 1\1\GINC-SE128\SP\RHF\Aug-CC-pVDZ\C4H1N1O1\OHZDE\09-Apr-2025\0\\#t hf
 aug-cc-pvdz iop(5/13=1,5/36=2,99/5=2) pseudo=read geom=check guess=(re
 ad,tcheck) scf=(maxcycle=1)\\title\\0,1\O,0,-0.50632525,-1.7047562,0.2
 5784213\C,0,-0.39919346,-0.49734987,0.09598427\C,0,0.86629923,0.190601
 12,-0.09401643\C,0,1.94916696,0.8514187,-0.26865171\C,0,-1.56366748,0.
 40232746,0.07502347\N,0,-2.50960081,1.09322123,0.06264816\H,0,2.041249
 81,-0.40283944,-0.1188639\\Version=ES64L-G16RevC.01\State=1-A\HF=-281.
 4801569\RMSD=2.354e-02\Dipole=0.738153,-0.5776097,0.0143898\Quadrupole

 Normal termination of Gaussian 16 at Wed Apr  9 03:05:38 2025.
