 Gaussian 16, Revision C.01,

 ----------------------------------------------------------------------
 #t hf aug-cc-pvdz symm=none int=(grid=ultrafine) guess=(read,tcheck) s
 table=(opt,rrhf)
 ----------------------------------------------------------------------
 -----
 title
 -----
 Symbolic Z-matrix:
 Charge =  0 Multiplicity = 1

 SCF Done:  E(RHF) =  -320.640884866     A.U. after   15 cycles
 Normal termination of Gaussian 16 at Wed Apr  9 16:07:41 2025.
 Gaussian 16:  ES64L-G16RevC.01  3-Jul-2019

 ----------------------------------------------------------------------
 #t hf aug-cc-pvdz iop(5/13=1,5/36=2,99/5=2) pseudo=read geom=check gue
 ss=(read,tcheck) scf=(maxcycle=1)
 ----------------------------------------------------------------------
 -----
 title
 -----
 Structure from the checkpoint file:  "Grambow2020_b97d3_007131_reverse_mol2.chk"
 Charge =  0 Multiplicity = 1

                         Standard orientation:
 ---------------------------------------------------------------------
 Center     Atomic      Atomic             Coordinates (Angstroms)
 Number     Number       Type             X           Y           Z
 ---------------------------------------------------------------------
      1          6           0       -2.343754   -0.152408    0.003218
      2          7           0       -0.963703   -0.611735    0.000072
      3          6           0        0.085521    0.237714   -0.002242
      4          8           0        0.112367    1.439870   -0.002607
      5          6           0        2.460765   -0.012286    0.009996
      6          8           0        1.289396   -0.636192   -0.006937
      7          1           0       -2.330149    0.941458   -0.002145
      8          1           0       -2.876272   -0.510527   -0.888789
      9          1           0       -2.869975   -0.501518    0.902613
     10          1           0       -0.754490   -1.604028   -0.001928
     11          1           0        3.147508   -0.910788    0.000264
 ---------------------------------------------------------------------

 SCF Done:  E(RHF) =  -320.957554447     A.U. after    2 cycles

 The electronic state is 1-A.
 Alpha  occ. eigenvalues --  -20.63530 -20.54480 -15.55685 -11.43542 -11.32267
 Alpha  occ. eigenvalues --  -11.29358  -1.55686  -1.47940  -1.27087  -1.01319
 Alpha  occ. eigenvalues --   -0.89814  -0.84027  -0.72790  -0.70219  -0.68172
 Alpha  occ. eigenvalues --   -0.64827  -0.62249  -0.61533  -0.58125  -0.53592
 Alpha  occ. eigenvalues --   -0.47135  -0.44606  -0.37760
 Alpha virt. eigenvalues --    0.02588   0.04320   0.04818   0.05092   0.06646
 Alpha virt. eigenvalues --    0.06683   0.09184   0.10408   0.11999   0.13068
 Alpha virt. eigenvalues --    0.13779   0.14284   0.14607   0.16643   0.17342

 Mulliken charges:
               1
     1  C   -0.376239
     2  N    0.646134
     3  C    1.022937
     4  O   -0.949631
     5  C    0.054815
     6  O   -1.046321
     7  H    0.076605
     8  H    0.154954
     9  H    0.156304
    10  H    0.120057
    11  H    0.140385
 Sum of Mulliken charges =  -0.00000

 Dipole moment (field-independent basis, Debye):
    X=             -2.8920    Y=             -4.0598    Z=             -0.0177  Tot=              4.9846

 Test job not archived.
 1\1\GINC-SE162\SP\RHF\Aug-CC-pVDZ\C3H5N1O2\OHZDE\09-Apr-2025\0\\#t hf
 aug-cc-pvdz iop(5/13=1,5/36=2,99/5=2) pseudo=read geom=check guess=(re
 ad,tcheck) scf=(maxcycle=1)\\title\\0,1\C,0,-0.98724635,1.59843813,-0.
 05489927\N,0,0.09227494,0.6259989,-0.12220657\C,0,-0.0936433,-0.686029
 87,0.13557995\O,0,-1.08965495,-1.28352734,0.4468017\C,0,1.30674767,-2.
 62079037,0.14205417\O,0,1.24587477,-1.30792896,-0.04325523\H,0,-1.8979
 3491,1.06491328,0.23276893\H,0,-0.77009982,2.37124498,0.69551363\H,0,-
 1.14373633,2.07712694,-1.03166182\H,0,1.03109019,0.91964437,-0.3688162

 Normal termination of Gaussian 16 at Wed Apr  9 16:07:45 2025.
