 Gaussian 16, Revision C.01,

 ----------------------------------------------------------------------
 #t hf aug-cc-pvdz symm=none int=(grid=ultrafine) guess=(read,tcheck) s
 table=(opt,rrhf)
 ----------------------------------------------------------------------
 -----
 title
 -----
 Symbolic Z-matrix:
 Charge =  0 Multiplicity = 1

 SCF Done:  E(RHF) =  -289.070371445     A.U. after   14 cycles

 1\1\GINC-SE219\Stability\RHF\Aug-CC-pVDZ\C6H13N1\OHZDE\09-Apr-2025\0\\
 #t hf aug-cc-pvdz symm=none int=(grid=ultrafine) guess=(read,tcheck) s
 table=(opt,rrhf)\\title\\0,1\C,0,-0.60318072,3.00908526,0.74639294\C,0
 ,-0.57379859,1.50711112,0.86935823\N,0,-0.55821097,-1.54048992,-0.9207
 0299\C,0,-0.49007236,-2.91454475,-0.46933171\C,0,0.28195271,-0.7069538
 7,-0.47068555\C,0,1.40318448,-1.0154044,0.48359692\C,0,0.13607175,0.70
 652108,-0.95388672\H,0,-1.32705762,3.46990674,0.06494781\H,0,-0.875683
 08,3.32430884,1.76181012\H,0,0.38688103,3.42862316,0.55534812\H,0,-1.5

 Normal termination of Gaussian 16 at Wed Apr  9 04:05:20 2025.
 Gaussian 16:  ES64L-G16RevC.01  3-Jul-2019

 ----------------------------------------------------------------------
 #t hf aug-cc-pvdz iop(5/13=1,5/36=2,99/5=2) pseudo=read geom=check gue
 ss=(read,tcheck) scf=(maxcycle=1)
 ----------------------------------------------------------------------
 -----
 title
 -----
 Structure from the checkpoint file:  "Grambow2020_wb97xd3_009129_forward_mol1.chk"
 Charge =  0 Multiplicity = 1

                         Standard orientation:
 ---------------------------------------------------------------------
 Center     Atomic      Atomic             Coordinates (Angstroms)
 Number     Number       Type             X           Y           Z
 ---------------------------------------------------------------------
      1          6           0        3.253423   -0.147386   -0.265815
      2          6           0        1.811418   -0.050070   -0.693670
      3          7           0       -1.523461   -0.824373    0.184668
      4          6           0       -2.777869   -0.543700   -0.481731
      5          6           0       -0.698083    0.120239    0.356813
      6          6           0       -0.910023    1.556751   -0.036216
      7          6           0        0.595554   -0.244515    1.024745
      8          1           0        3.632115   -1.107299    0.102804
      9          1           0        3.791761    0.071451   -1.196943
     10          1           0        3.531419    0.641520    0.436380
     11          1           0        1.504852   -0.953049   -1.251468
     12          1           0       -3.296401    0.326750   -0.064962
     13          1           0       -2.618800   -0.355439   -1.549060
     14          1           0       -3.433742   -1.408437   -0.389495
     15          1           0        0.018722    2.117040    0.030954
     16          1           0       -1.271364    1.629139   -1.062685
     17          1           0       -1.663275    2.015288    0.612046
     18          1           0        1.290750   -0.892822    0.361866
     19          1           0        0.418947   -1.044344    1.755851
     20          1           0        1.112716    0.582902    1.497279
 ---------------------------------------------------------------------

 SCF Done:  E(RHF) =  -289.383305822     A.U. after    2 cycles

 The electronic state is 1-A.
 Alpha  occ. eigenvalues --  -15.48143 -11.28487 -11.26795 -11.25349 -11.24711
 Alpha  occ. eigenvalues --  -11.23293 -11.23058  -1.23297  -1.06256  -1.00992
 Alpha  occ. eigenvalues --   -0.96528  -0.93118  -0.80453  -0.72898  -0.66990
 Alpha  occ. eigenvalues --   -0.64875  -0.62451  -0.60210  -0.58995  -0.57007
 Alpha  occ. eigenvalues --   -0.56152  -0.54691  -0.53275  -0.52227  -0.51146
 Alpha  occ. eigenvalues --   -0.42532  -0.41679  -0.33727
 Alpha virt. eigenvalues --    0.03660   0.03791   0.04058   0.04184   0.05433
 Alpha virt. eigenvalues --    0.05667   0.05929   0.06664   0.06923   0.08242
 Alpha virt. eigenvalues --    0.08918   0.09508   0.10545   0.10689   0.11776

 Mulliken charges:
               1
     1  C   -0.393386
     2  C   -0.543643
     3  N    0.976069
     4  C   -0.175598
     5  C   -1.221547
     6  C   -0.368557
     7  C   -0.521515
     8  H    0.167172
     9  H    0.152330
    10  H    0.125956
    11  H    0.137480
    12  H    0.179938
    13  H    0.158750
    14  H   -0.019561
    15  H    0.051395
    16  H    0.320628
    17  H    0.249161
    18  H    0.541123
    19  H    0.094349
    20  H    0.089458
 Sum of Mulliken charges =   0.00000

 Dipole moment (field-independent basis, Debye):
    X=              0.6615    Y=              0.9337    Z=              0.7691  Tot=              1.3787

 Test job not archived.
 1\1\GINC-SE219\SP\RHF\Aug-CC-pVDZ\C6H13N1\OHZDE\09-Apr-2025\0\\#t hf a
 ug-cc-pvdz iop(5/13=1,5/36=2,99/5=2) pseudo=read geom=check guess=(rea
 d,tcheck) scf=(maxcycle=1)\\title\\0,1\C,0,-0.60318072,3.00908526,0.74
 639294\C,0,-0.57379859,1.50711112,0.86935823\N,0,-0.55821097,-1.540489
 92,-0.92070299\C,0,-0.49007236,-2.91454475,-0.46933171\C,0,0.28195271,
 -0.70695387,-0.47068555\C,0,1.40318448,-1.0154044,0.48359692\C,0,0.136
 07175,0.70652108,-0.95388672\H,0,-1.32705762,3.46990674,0.06494781\H,0
 ,-0.87568308,3.32430884,1.76181012\H,0,0.38688103,3.42862316,0.5553481

 Normal termination of Gaussian 16 at Wed Apr  9 04:05:28 2025.
