 Gaussian 16, Revision C.01,

 ----------------------------------------------------------------------
 #t hf aug-cc-pvdz symm=none int=(grid=ultrafine) guess=(read,tcheck) s
 table=(opt,rrhf)
 ----------------------------------------------------------------------
 -----
 title
 -----
 Symbolic Z-matrix:
 Charge =  0 Multiplicity = 1

 SCF Done:  E(RHF) =  -286.869115456     A.U. after   14 cycles
 Normal termination of Gaussian 16 at Wed Apr  9 18:29:32 2025.
 Gaussian 16:  ES64L-G16RevC.01  3-Jul-2019

 ----------------------------------------------------------------------
 #t hf aug-cc-pvdz iop(5/13=1,5/36=2,99/5=2) pseudo=read geom=check gue
 ss=(read,tcheck) scf=(maxcycle=1)
 ----------------------------------------------------------------------
 -----
 title
 -----
 Structure from the checkpoint file:  "Grambow2020_wb97xd3_007625_reverse_mol2.chk"
 Charge =  0 Multiplicity = 1

                         Standard orientation:
 ---------------------------------------------------------------------
 Center     Atomic      Atomic             Coordinates (Angstroms)
 Number     Number       Type             X           Y           Z
 ---------------------------------------------------------------------
      1          6           0       -2.465393   -0.041619    0.209123
      2          6           0       -0.999585   -0.075958   -0.061812
      3          6           0       -0.188745    1.200340   -0.163593
      4          6           0        1.236128    0.707663   -0.310562
      5          6           0        1.201457   -0.771326   -0.347286
      6          7           0        1.719118   -0.060788    0.839459
      7          6           0       -0.228842   -1.152100   -0.201883
      8          1           0       -2.894955   -1.043484    0.211166
      9          1           0       -2.988288    0.559069   -0.540565
     10          1           0       -2.666228    0.417611    1.181039
     11          1           0       -0.500050    1.795657   -1.028395
     12          1           0       -0.312118    1.825277    0.725790
     13          1           0        1.951060    1.276568   -0.891923
     14          1           0        1.890008   -1.357223   -0.943518
     15          1           0        2.733303   -0.073304    0.824788
     16          1           0       -0.576679   -2.176658   -0.158520
 ---------------------------------------------------------------------

 SCF Done:  E(RHF) =  -287.178320480     A.U. after    2 cycles

 The electronic state is 1-A.
 Alpha  occ. eigenvalues --  -15.49389 -11.25914 -11.25771 -11.23469 -11.23122
 Alpha  occ. eigenvalues --  -11.22946 -11.21840  -1.27343  -1.09996  -0.97572
 Alpha  occ. eigenvalues --   -0.96399  -0.86612  -0.78927  -0.74374  -0.71182
 Alpha  occ. eigenvalues --   -0.64291  -0.59970  -0.59004  -0.56184  -0.54888
 Alpha  occ. eigenvalues --   -0.53131  -0.51035  -0.49699  -0.47670  -0.40377
 Alpha  occ. eigenvalues --   -0.34111
 Alpha virt. eigenvalues --    0.03388   0.03933   0.04165   0.04585   0.05177
 Alpha virt. eigenvalues --    0.05761   0.06102   0.07964   0.08872   0.10106
 Alpha virt. eigenvalues --    0.11811   0.13107   0.13671   0.14038   0.14432

 Mulliken charges:
               1
     1  C   -0.635001
     2  C    0.211719
     3  C   -0.816963
     4  C    0.077521
     5  C   -0.500073
     6  N    0.389686
     7  C    0.590542
     8  H    0.105449
     9  H    0.224646
    10  H    0.242261
    11  H    0.211651
    12  H    0.253611
    13  H   -0.167392
    14  H   -0.195812
    15  H    0.164472
    16  H   -0.156316
 Sum of Mulliken charges =  -0.00000

 Dipole moment (field-independent basis, Debye):
    X=              0.2352    Y=              0.3920    Z=             -1.6777  Tot=              1.7389

 Test job not archived.
 1\1\GINC-SE104\SP\RHF\Aug-CC-pVDZ\C6H9N1\OHZDE\09-Apr-2025\0\\#t hf au
 g-cc-pvdz iop(5/13=1,5/36=2,99/5=2) pseudo=read geom=check guess=(read
 ,tcheck) scf=(maxcycle=1)\\title\\0,1\C,0,1.85759946,-1.04361982,0.830
 26059\C,0,0.59795161,-0.35287818,0.43108529\C,0,0.60381683,0.76127297,
 -0.59623655\C,0,-0.86511907,1.07634133,-0.79002505\C,0,-1.63766395,0.2
 1510455,0.13269249\N,0,-1.64635303,-0.04333516,-1.32138324\C,0,-0.6369
 0934,-0.61789976,0.85135744\H,0,1.67640118,-1.78909131,1.60466413\H,0,
 2.5956456,-0.32768344,1.20308828\H,0,2.30902293,-1.54723467,-0.0290632

 Normal termination of Gaussian 16 at Wed Apr  9 18:29:38 2025.
