 Gaussian 16, Revision C.01,

 ----------------------------------------------------------------------
 #t hf aug-cc-pvdz symm=none int=(grid=ultrafine) guess=(read,tcheck) s
 table=(opt,rrhf)
 ----------------------------------------------------------------------
 -----
 title
 -----
 Symbolic Z-matrix:
 Charge =  0 Multiplicity = 1

 SCF Done:  E(RHF) =  -342.470197148     A.U. after   15 cycles
 Normal termination of Gaussian 16 at Wed Apr  9 19:16:51 2025.
 Gaussian 16:  ES64L-G16RevC.01  3-Jul-2019

 ----------------------------------------------------------------------
 #t hf aug-cc-pvdz iop(5/13=1,5/36=2,99/5=2) pseudo=read geom=check gue
 ss=(read,tcheck) scf=(maxcycle=1)
 ----------------------------------------------------------------------
 -----
 title
 -----
 Structure from the checkpoint file:  "Grambow2020_wb97xd3_009064_forward_mol1.chk"
 Charge =  0 Multiplicity = 1

                         Standard orientation:
 ---------------------------------------------------------------------
 Center     Atomic      Atomic             Coordinates (Angstroms)
 Number     Number       Type             X           Y           Z
 ---------------------------------------------------------------------
      1          8           0       -0.233375   -0.629969    1.346527
      2          6           0       -0.830500   -0.560709    0.213865
      3          6           0       -1.324568    0.845881   -0.094935
      4          6           0        0.084320    1.454658   -0.219963
      5          6           0        0.959052    0.241412   -0.119682
      6          8           0        2.029369   -0.167547   -0.108961
      7          6           0       -0.584482   -1.380636   -0.861519
      8          1           0       -1.881400    1.266797    0.738837
      9          1           0       -1.892060    0.936385   -1.019286
     10          1           0        0.374296    2.132902    0.584796
     11          1           0        0.286257    1.935761   -1.178802
     12          1           0        0.003352   -2.278412   -0.724387
     13          1           0       -1.081328   -1.216932   -1.808276
 ---------------------------------------------------------------------

 SCF Done:  E(RHF) =  -342.814592142     A.U. after    2 cycles

 The electronic state is 1-A.
 Alpha  occ. eigenvalues --  -20.63534 -20.49466 -11.46292 -11.31882 -11.31841
 Alpha  occ. eigenvalues --  -11.26515 -11.23096  -1.59269  -1.42528  -1.14571
 Alpha  occ. eigenvalues --   -1.01480  -0.93869  -0.81084  -0.75844  -0.70362
 Alpha  occ. eigenvalues --   -0.69798  -0.68559  -0.64588  -0.62931  -0.59735
 Alpha  occ. eigenvalues --   -0.56838  -0.54484  -0.52817  -0.47658  -0.40086
 Alpha  occ. eigenvalues --   -0.32309
 Alpha virt. eigenvalues --    0.02484   0.03696   0.03847   0.04898   0.06289
 Alpha virt. eigenvalues --    0.07002   0.07737   0.08194   0.10187   0.11367
 Alpha virt. eigenvalues --    0.12451   0.12649   0.13485   0.14066   0.14763

 Mulliken charges:
               1
     1  O   -1.572998
     2  C    1.159943
     3  C    0.106825
     4  C   -0.463321
     5  C    1.167175
     6  O   -1.113743
     7  C    0.180508
     8  H    0.100586
     9  H    0.072493
    10  H    0.296267
    11  H    0.282389
    12  H   -0.091815
    13  H   -0.124310
 Sum of Mulliken charges =  -0.00000

 Dipole moment (field-independent basis, Debye):
    X=             -0.7901    Y=              3.8003    Z=             -3.1143  Tot=              4.9765

 Test job not archived.
 1\1\GINC-SE340\SP\RHF\Aug-CC-pVDZ\C5H6O2\OHZDE\09-Apr-2025\0\\#t hf au
 g-cc-pvdz iop(5/13=1,5/36=2,99/5=2) pseudo=read geom=check guess=(read
 ,tcheck) scf=(maxcycle=1)\\title\\0,1\O,0,0.62079236,-1.1671498,1.2193
 3691\C,0,0.47797268,-0.91440414,-0.02966337\C,0,-0.9680675,-0.61140029
 ,-0.39723862\C,0,-1.03349654,0.70281703,0.40260977\C,0,0.38777502,0.86
 758266,0.84984475\O,0,1.13774882,1.50448631,1.4370702\C,0,1.4485411,-0
 .38342343,-0.84533072\H,0,-1.64716937,-1.36490862,-0.0055059\H,0,-1.14
 401276,-0.45217798,-1.45947867\H,0,-1.65602165,0.67478819,1.2989438\H,

 Normal termination of Gaussian 16 at Wed Apr  9 19:16:54 2025.
