 Gaussian 16, Revision C.01,

 ----------------------------------------------------------------------
 #t hf aug-cc-pvdz symm=none int=(grid=ultrafine) guess=(read,tcheck) s
 table=(opt,rrhf)
 ----------------------------------------------------------------------
 -----
 title
 -----
 Symbolic Z-matrix:
 Charge =  0 Multiplicity = 1

 SCF Done:  E(RHF) =  -342.459457128     A.U. after   17 cycles
 Normal termination of Gaussian 16 at Wed Apr  9 19:16:57 2025.
 Gaussian 16:  ES64L-G16RevC.01  3-Jul-2019

 ----------------------------------------------------------------------
 #t hf aug-cc-pvdz iop(5/13=1,5/36=2,99/5=2) pseudo=read geom=check gue
 ss=(read,tcheck) scf=(maxcycle=1)
 ----------------------------------------------------------------------
 -----
 title
 -----
 Structure from the checkpoint file:  "Grambow2020_wb97xd3_009060_forward_mol1.chk"
 Charge =  0 Multiplicity = 1

                         Standard orientation:
 ---------------------------------------------------------------------
 Center     Atomic      Atomic             Coordinates (Angstroms)
 Number     Number       Type             X           Y           Z
 ---------------------------------------------------------------------
      1          8           0        2.295729   -0.741318   -0.275685
      2          6           0        1.260764   -0.209276    0.018904
      3          6           0        1.149144    1.281892    0.230008
      4          6           0       -1.247342    1.218041   -0.406714
      5          6           0       -1.263151   -0.153169   -0.017396
      6          8           0       -2.404539   -0.589644   -0.000288
      7          6           0       -0.026614   -0.980627    0.215700
      8          1           0        2.051161    1.799370   -0.091481
      9          1           0        0.926909    1.518882    1.270715
     10          1           0        0.329672    1.675936   -0.444398
     11          1           0       -1.569866    1.908562    0.378122
     12          1           0       -0.041146   -1.876519   -0.405252
     13          1           0       -0.063057   -1.319702    1.257069
 ---------------------------------------------------------------------

 SCF Done:  E(RHF) =  -342.801464953     A.U. after    2 cycles

 The electronic state is 1-A.
 Alpha  occ. eigenvalues --  -20.56532 -20.54737 -11.37201 -11.36699 -11.32151
 Alpha  occ. eigenvalues --  -11.28857 -11.28265  -1.50521  -1.48545  -1.12564
 Alpha  occ. eigenvalues --   -1.02421  -0.99782  -0.80835  -0.76477  -0.69245
 Alpha  occ. eigenvalues --   -0.68663  -0.68192  -0.64103  -0.62664  -0.61805
 Alpha  occ. eigenvalues --   -0.58711  -0.55410  -0.51259  -0.45333  -0.43060
 Alpha  occ. eigenvalues --   -0.39493
 Alpha virt. eigenvalues --    0.02358   0.03352   0.03744   0.04588   0.05541
 Alpha virt. eigenvalues --    0.06413   0.07527   0.08248   0.09397   0.09681
 Alpha virt. eigenvalues --    0.11837   0.12630   0.13539   0.14057   0.14272

 Mulliken charges:
               1
     1  O   -1.321902
     2  C    1.272503
     3  C   -0.514298
     4  C   -0.472948
     5  C    1.329497
     6  O   -1.411586
     7  C   -0.488999
     8  H    0.080440
     9  H    0.274286
    10  H    0.462387
    11  H    0.156828
    12  H    0.248348
    13  H    0.385444
 Sum of Mulliken charges =   0.00000

 Dipole moment (field-independent basis, Debye):
    X=              1.2552    Y=              2.1865    Z=              2.3968  Tot=              3.4786

 Test job not archived.
 1\1\GINC-SE174\SP\RHF\Aug-CC-pVDZ\C5H6O2\OHZDE\09-Apr-2025\0\\#t hf au
 g-cc-pvdz iop(5/13=1,5/36=2,99/5=2) pseudo=read geom=check guess=(read
 ,tcheck) scf=(maxcycle=1)\\title\\0,1\O,0,0.70936177,-2.3622599,0.0469
 4553\C,0,0.30807247,-1.23698282,-0.07019239\C,0,-1.16421688,-0.9026838
 9,-0.10505223\C,0,-0.69631566,1.36424663,0.78642429\C,0,0.6214143,1.24
 703789,0.25549376\O,0,1.21509094,2.31333304,0.31976533\C,0,1.23641201,
 -0.04889465,-0.20317942\H,0,-1.77526775,-1.76139158,0.16699887\H,0,-1.
 46055586,-0.52120645,-1.08243706\H,0,-1.37226983,-0.13005479,0.6958130

 Normal termination of Gaussian 16 at Wed Apr  9 19:17:01 2025.
