 Gaussian 16, Revision C.01,

 ----------------------------------------------------------------------
 #t hf aug-cc-pvdz symm=none int=(grid=ultrafine) guess=(read,tcheck) s
 table=(opt,rrhf)
 ----------------------------------------------------------------------
 -----
 title
 -----
 Symbolic Z-matrix:
 Charge =  0 Multiplicity = 1

 SCF Done:  E(RHF) =  -305.798565360     A.U. after   13 cycles
 Normal termination of Gaussian 16 at Wed Apr  9 03:05:50 2025.
 Gaussian 16:  ES64L-G16RevC.01  3-Jul-2019

 ----------------------------------------------------------------------
 #t hf aug-cc-pvdz iop(5/13=1,5/36=2,99/5=2) pseudo=read geom=check gue
 ss=(read,tcheck) scf=(maxcycle=1)
 ----------------------------------------------------------------------
 -----
 title
 -----
 Structure from the checkpoint file:  "Grambow2020_b97d3_006512_reverse_mol2.chk"
 Charge =  0 Multiplicity = 1

                         Standard orientation:
 ---------------------------------------------------------------------
 Center     Atomic      Atomic             Coordinates (Angstroms)
 Number     Number       Type             X           Y           Z
 ---------------------------------------------------------------------
      1          8           0       -2.844593   -0.125955   -0.087702
      2          6           0        0.234322    1.291170   -0.269496
      3          6           0        1.484038    0.498075   -0.055087
      4          6           0        0.303088    0.272185    0.862342
      5          6           0        0.301065   -1.139735    0.282122
      6          8           0        1.385203   -0.806413   -0.648779
      7          1           0       -2.720175    0.035810   -1.039223
      8          1           0       -0.363278    1.101208   -1.164111
      9          1           0        0.269951    2.331730    0.056085
     10          1           0        2.476985    0.912027    0.118217
     11          1           0        0.171470    0.539325    1.908583
     12          1           0       -2.115059    0.374789    0.319885
     13          1           0       -0.616293   -1.464857   -0.227363
     14          1           0        0.636437   -1.901258    1.000492
 ---------------------------------------------------------------------

 SCF Done:  E(RHF) =  -306.116680643     A.U. after    2 cycles

 The electronic state is 1-A.
 Alpha  occ. eigenvalues --  -20.55780 -20.55100 -11.30830 -11.30045 -11.25994
 Alpha  occ. eigenvalues --  -11.25916  -1.47175  -1.43208  -1.14143  -0.96070
 Alpha  occ. eigenvalues --   -0.84192  -0.76827  -0.72974  -0.70027  -0.65925
 Alpha  occ. eigenvalues --   -0.64838  -0.57951  -0.57471  -0.55415  -0.51885
 Alpha  occ. eigenvalues --   -0.49621  -0.48761  -0.42269  -0.39352
 Alpha virt. eigenvalues --    0.03081   0.03618   0.04160   0.04456   0.06068
 Alpha virt. eigenvalues --    0.06950   0.07546   0.08321   0.10791   0.11775
 Alpha virt. eigenvalues --    0.13175   0.13406   0.13942   0.14413   0.15146

 Mulliken charges:
               1
     1  O   -0.929750
     2  C    0.122453
     3  C    1.257415
     4  C   -0.158063
     5  C    0.523287
     6  O   -1.386425
     7  H    0.363050
     8  H   -0.164026
     9  H   -0.044436
    10  H   -0.102994
    11  H   -0.252679
    12  H    0.624802
    13  H    0.086910
    14  H    0.060456
 Sum of Mulliken charges =  -0.00000

 Dipole moment (field-independent basis, Debye):
    X=              0.8403    Y=              1.9212    Z=              0.7234  Tot=              2.2182

 Test job not archived.
 1\1\GINC-SE456\SP\RHF\Aug-CC-pVDZ\C4H8O2\OHZDE\09-Apr-2025\0\\#t hf au
 g-cc-pvdz iop(5/13=1,5/36=2,99/5=2) pseudo=read geom=check guess=(read
 ,tcheck) scf=(maxcycle=1)\\title\\0,1\O,0,-1.17512568,1.82288266,-1.72
 584737\C,0,-0.77893947,-0.97169033,0.15946603\C,0,0.38251736,-1.142678
 58,1.08604094\C,0,0.61898909,-0.5624512,-0.29046228\C,0,1.05501831,0.6
 899067,0.46561572\O,0,0.70364113,0.08678673,1.75627999\H,0,-1.86140707
 ,1.90661745,-1.04097864\H,0,-1.53702319,-0.22194049,0.39764893\H,0,-1.
 15452847,-1.88430145,-0.30541242\H,0,0.69303845,-2.07891175,1.54905171

 Normal termination of Gaussian 16 at Wed Apr  9 03:05:54 2025.
