 Gaussian 16, Revision C.01,

 ----------------------------------------------------------------------
 #t hf aug-cc-pvdz symm=none int=(grid=ultrafine) guess=(read,tcheck) s
 table=(opt,rrhf)
 ----------------------------------------------------------------------
 -----
 title
 -----
 Symbolic Z-matrix:
 Charge =  0 Multiplicity = 1

 SCF Done:  E(RHF) =  -306.873183395     A.U. after   15 cycles

 1\1\GINC-SE128\Stability\RHF\Aug-CC-pVDZ\C4H10O2\OHZDE\09-Apr-2025\0\\
 #t hf aug-cc-pvdz symm=none int=(grid=ultrafine) guess=(read,tcheck) s
 table=(opt,rrhf)\\title\\0,1\C,0,2.65088233,-0.42905988,-0.79927562\O,
 0,1.70414682,-0.31717827,0.24708269\C,0,0.38695949,-0.09572339,-0.2518
 6809\C,0,-0.50997263,-0.04872449,0.97023735\C,0,-2.26036481,0.99298452
 ,-0.13131683\O,0,-1.00137174,-1.28967701,1.22204146\H,0,2.4383558,-1.2
 9062879,-1.46040474\H,0,2.68526457,0.48387896,-1.42460656\H,0,3.630163
 01,-0.57353936,-0.32663299\H,0,0.09986406,-0.90949797,-0.95098577\H,0,

 Normal termination of Gaussian 16 at Wed Apr  9 03:08:02 2025.
 Gaussian 16:  ES64L-G16RevC.01  3-Jul-2019

 ----------------------------------------------------------------------
 #t hf aug-cc-pvdz iop(5/13=1,5/36=2,99/5=2) pseudo=read geom=check gue
 ss=(read,tcheck) scf=(maxcycle=1)
 ----------------------------------------------------------------------
 -----
 title
 -----
 Structure from the checkpoint file:  "Grambow2020_b97d3_006575_forward_mol1.chk"
 Charge =  0 Multiplicity = 1

                         Standard orientation:
 ---------------------------------------------------------------------
 Center     Atomic      Atomic             Coordinates (Angstroms)
 Number     Number       Type             X           Y           Z
 ---------------------------------------------------------------------
      1          6           0        2.685313   -0.346822    0.146973
      2          8           0        1.519630    0.245524   -0.395245
      3          6           0        0.332513   -0.325826    0.149999
      4          6           0       -0.815539    0.437128   -0.482549
      5          6           0       -2.404728   -1.164457    0.038852
      6          8           0       -1.160798    1.482130    0.313445
      7          1           0        2.759493   -0.191177    1.240057
      8          1           0        2.724576   -1.435792   -0.048677
      9          1           0        3.541762    0.133513   -0.341933
     10          1           0        0.336450   -0.234714    1.256842
     11          1           0        0.256219   -1.398617   -0.103831
     12          1           0       -1.715749   -0.283096   -0.861744
     13          1           0       -3.423799   -0.790734   -0.114841
     14          1           0       -2.119675   -1.113142    1.093160
     15          1           0       -2.242797   -2.158567   -0.389350
     16          1           0       -1.772497    2.050946   -0.194937
 ---------------------------------------------------------------------

 SCF Done:  E(RHF) =  -307.194403956     A.U. after    2 cycles

 The electronic state is 1-A.
 Alpha  occ. eigenvalues --  -20.59131 -20.54620 -11.31288 -11.29057 -11.28329
 Alpha  occ. eigenvalues --  -11.24723  -1.49821  -1.45640  -1.02087  -0.94320
 Alpha  occ. eigenvalues --   -0.89662  -0.81480  -0.72336  -0.65771  -0.65300
 Alpha  occ. eigenvalues --   -0.64494  -0.59627  -0.57724  -0.56889  -0.55117
 Alpha  occ. eigenvalues --   -0.54791  -0.49557  -0.48323  -0.41873  -0.30614
 Alpha virt. eigenvalues --    0.03553   0.03792   0.04249   0.04562   0.05667
 Alpha virt. eigenvalues --    0.06556   0.06807   0.07717   0.09425   0.09867
 Alpha virt. eigenvalues --    0.11199   0.12192   0.12634   0.14179   0.14804

 Mulliken charges:
               1
     1  C    0.028381
     2  O   -1.265954
     3  C    0.545093
     4  C    0.667564
     5  C   -0.660859
     6  O   -1.148008
     7  H    0.189922
     8  H    0.207335
     9  H   -0.013017
    10  H    0.137509
    11  H    0.096341
    12  H    0.604699
    13  H   -0.001559
    14  H    0.185811
    15  H    0.055973
    16  H    0.370767
 Sum of Mulliken charges =  -0.00000

 Dipole moment (field-independent basis, Debye):
    X=             -0.7247    Y=             -0.7526    Z=              0.6770  Tot=              1.2450

 Test job not archived.
 1\1\GINC-SE128\SP\RHF\Aug-CC-pVDZ\C4H10O2\OHZDE\09-Apr-2025\0\\#t hf a
 ug-cc-pvdz iop(5/13=1,5/36=2,99/5=2) pseudo=read geom=check guess=(rea
 d,tcheck) scf=(maxcycle=1)\\title\\0,1\C,0,2.65088233,-0.42905988,-0.7
 9927562\O,0,1.70414682,-0.31717827,0.24708269\C,0,0.38695949,-0.095723
 39,-0.25186809\C,0,-0.50997263,-0.04872449,0.97023735\C,0,-2.26036481,
 0.99298452,-0.13131683\O,0,-1.00137174,-1.28967701,1.22204146\H,0,2.43
 83558,-1.29062879,-1.46040474\H,0,2.68526457,0.48387896,-1.42460656\H,
 0,3.63016301,-0.57353936,-0.32663299\H,0,0.09986406,-0.90949797,-0.950

 Normal termination of Gaussian 16 at Wed Apr  9 03:08:07 2025.
