 Gaussian 16, Revision C.01,

 ----------------------------------------------------------------------
 #t hf aug-cc-pvdz symm=none int=(grid=ultrafine) guess=(read,tcheck) s
 table=(opt,rrhf)
 ----------------------------------------------------------------------
 -----
 title
 -----
 Symbolic Z-matrix:
 Charge =  0 Multiplicity = 1

 SCF Done:  E(RHF) =  -375.751752185     A.U. after   15 cycles
 Normal termination of Gaussian 16 at Wed Apr  9 03:46:46 2025.
 Gaussian 16:  ES64L-G16RevC.01  3-Jul-2019

 ----------------------------------------------------------------------
 #t hf aug-cc-pvdz iop(5/13=1,5/36=2,99/5=2) pseudo=read geom=check gue
 ss=(read,tcheck) scf=(maxcycle=1)
 ----------------------------------------------------------------------
 -----
 title
 -----
 Structure from the checkpoint file:  "Grambow2020_wb97xd3_007912_reverse_mol2.chk"
 Charge =  0 Multiplicity = 1

                         Standard orientation:
 ---------------------------------------------------------------------
 Center     Atomic      Atomic             Coordinates (Angstroms)
 Number     Number       Type             X           Y           Z
 ---------------------------------------------------------------------
      1          6           0        2.052249   -1.130747    0.163385
      2          8           0        2.019140    0.144870   -0.535812
      3          6           0        1.225818    1.019554   -0.048493
      4          7           0        0.522820    1.837177    0.361082
      5          7           0       -2.639278    0.345835   -0.343045
      6          6           0       -1.737023   -0.339975    0.386581
      7          8           0       -1.196428   -1.364346    0.026104
      8          1           0        2.695293   -1.763589   -0.440178
      9          1           0        1.042296   -1.534454    0.225019
     10          1           0        2.482598   -0.980971    1.153145
     11          1           0       -2.894819    1.276479   -0.067801
     12          1           0       -2.795207    0.067178   -1.296838
     13          1           0       -1.542917    0.117081    1.369228
 ---------------------------------------------------------------------

 SCF Done:  E(RHF) =  -376.125536070     A.U. after    2 cycles

 The electronic state is 1-A.
 Alpha  occ. eigenvalues --  -20.63731 -20.51985 -15.53355 -15.50446 -11.36426
 Alpha  occ. eigenvalues --  -11.34202 -11.32006  -1.57031  -1.46834  -1.23362
 Alpha  occ. eigenvalues --   -1.23118  -1.00121  -0.87538  -0.79374  -0.78292
 Alpha  occ. eigenvalues --   -0.70294  -0.70027  -0.69024  -0.62333  -0.61171
 Alpha  occ. eigenvalues --   -0.59272  -0.57706  -0.57275  -0.48869  -0.46022
 Alpha  occ. eigenvalues --   -0.44630  -0.43600
 Alpha virt. eigenvalues --    0.03335   0.03902   0.04890   0.05829   0.06082
 Alpha virt. eigenvalues --    0.06993   0.08859   0.11070   0.11521   0.11941
 Alpha virt. eigenvalues --    0.12745   0.13028   0.14371   0.14771   0.15406

 Mulliken charges:
               1
     1  C    0.421050
     2  O   -1.046100
     3  C   -0.508537
     4  N    0.793729
     5  N    0.593922
     6  C    0.264751
     7  O   -1.121804
     8  H    0.037469
     9  H    0.129028
    10  H    0.166264
    11  H    0.077669
    12  H    0.068071
    13  H    0.124488
 Sum of Mulliken charges =  -0.00000

 Dipole moment (field-independent basis, Debye):
    X=              0.3493    Y=             -1.2605    Z=             -0.1978  Tot=              1.3229

 Test job not archived.
 1\1\GINC-SE026\SP\RHF\Aug-CC-pVDZ\C3H6N2O2\OHZDE\09-Apr-2025\0\\#t hf
 aug-cc-pvdz iop(5/13=1,5/36=2,99/5=2) pseudo=read geom=check guess=(re
 ad,tcheck) scf=(maxcycle=1)\\title\\0,1\C,0,-1.75565797,-0.94224149,-0
 .98716353\O,0,-1.81957398,0.50909516,-0.90525519\C,0,-0.69681778,1.114
 54439,-0.97426297\N,0,0.29580839,1.69898763,-1.0341279\N,0,1.7946891,0
 .69200876,2.04127729\C,0,1.39429528,-0.25105962,1.16545744\O,0,0.49626
 882,-1.04104861,1.36791098\H,0,-2.77408203,-1.2768439,-0.8164683\H,0,-
 1.08031854,-1.31733157,-0.21904485\H,0,-1.4216235,-1.22623764,-1.98467

 Normal termination of Gaussian 16 at Wed Apr  9 03:46:51 2025.
