 Gaussian 16, Revision C.01,

 ----------------------------------------------------------------------
 #t hf aug-cc-pvdz symm=none int=(grid=ultrafine) guess=(read,tcheck) s
 table=(opt,rrhf)
 ----------------------------------------------------------------------
 -----
 title
 -----
 Symbolic Z-matrix:
 Charge =  0 Multiplicity = 1

 SCF Done:  E(RHF) =  -353.467590332     A.U. after   16 cycles
 Normal termination of Gaussian 16 at Wed Apr  9 18:36:10 2025.
 Gaussian 16:  ES64L-G16RevC.01  3-Jul-2019

 ----------------------------------------------------------------------
 #t hf aug-cc-pvdz iop(5/13=1,5/36=2,99/5=2) pseudo=read geom=check gue
 ss=(read,tcheck) scf=(maxcycle=1)
 ----------------------------------------------------------------------
 -----
 title
 -----
 Structure from the checkpoint file:  "Grambow2020_wb97xd3_007769_reverse_mol2.chk"
 Charge =  0 Multiplicity = 1

                         Standard orientation:
 ---------------------------------------------------------------------
 Center     Atomic      Atomic             Coordinates (Angstroms)
 Number     Number       Type             X           Y           Z
 ---------------------------------------------------------------------
      1          8           0        2.741563   -0.931235   -0.000236
      2          6           0        1.996902    0.007130    0.005419
      3          7           0        0.615757   -0.128551   -0.008562
      4          6           0       -2.145825   -1.325201    0.000562
      5          7           0       -2.941989   -0.503205    0.003695
      6          6           0       -0.711150    1.881027    0.001260
      7          7           0       -0.013626    0.970564   -0.003487
      8          1           0        2.360274    1.055823    0.023766
      9          1           0       -1.372962   -2.064844   -0.002243
     10          1           0       -1.380378    2.709504   -0.004597
 ---------------------------------------------------------------------

 SCF Done:  E(RHF) =  -353.813230857     A.U. after    2 cycles

 The electronic state is 1-A.
 Alpha  occ. eigenvalues --  -20.52276 -15.69068 -15.53928 -15.53297 -11.36930
 Alpha  occ. eigenvalues --  -11.36106 -11.29743  -1.47426  -1.42598  -1.25397
 Alpha  occ. eigenvalues --   -1.24036  -0.94877  -0.84601  -0.80853  -0.77977
 Alpha  occ. eigenvalues --   -0.71722  -0.70728  -0.62922  -0.62404  -0.54952
 Alpha  occ. eigenvalues --   -0.53259  -0.53229  -0.51028  -0.42523  -0.40207
 Alpha virt. eigenvalues --    0.02085   0.04379   0.04856   0.05077   0.06009
 Alpha virt. eigenvalues --    0.08352   0.08971   0.09114   0.09883   0.10475
 Alpha virt. eigenvalues --    0.12767   0.12958   0.13109   0.14874   0.15464

 Mulliken charges:
               1
     1  O   -1.043438
     2  C    0.774091
     3  N    0.113327
     4  C   -0.763635
     5  N    0.582316
     6  C   -0.111900
     7  N    0.058390
     8  H    0.104718
     9  H    0.202643
    10  H    0.083487
 Sum of Mulliken charges =  -0.00000

 Dipole moment (field-independent basis, Debye):
    X=             -1.8715    Y=              4.5985    Z=              0.0195  Tot=              4.9648

 Test job not archived.
 1\1\GINC-SE116\SP\RHF\Aug-CC-pVDZ\C3H3N3O1\OHZDE\09-Apr-2025\0\\#t hf
 aug-cc-pvdz iop(5/13=1,5/36=2,99/5=2) pseudo=read geom=check guess=(re
 ad,tcheck) scf=(maxcycle=1)\\title\\0,1\O,0,3.00338228,-0.30325154,0.2
 9042863\C,0,1.90420195,-0.77277746,0.37060752\N,0,0.75520665,-0.052487
 67,0.07537971\C,0,-1.10044717,2.15713889,-0.78047675\N,0,-2.18972136,1
 .80904679,-0.73712538\C,0,-1.36374886,-1.17392141,0.30252825\N,0,-0.31
 9153,-0.70770547,0.21906151\H,0,1.72619666,-1.8218686,0.68660355\H,0,-
 0.07072942,2.44576617,-0.80826754\H,0,-2.34518872,-1.57994069,0.381260

 Normal termination of Gaussian 16 at Wed Apr  9 18:36:13 2025.
