 Gaussian 16, Revision C.01,

 ----------------------------------------------------------------------
 #t hf aug-cc-pvdz symm=none int=(grid=ultrafine) guess=(read,tcheck) s
 table=(opt,rrhf)
 ----------------------------------------------------------------------
 -----
 title
 -----
 Symbolic Z-matrix:
 Charge =  0 Multiplicity = 1

 SCF Done:  E(RHF) =  -286.742522655     A.U. after   13 cycles
 Normal termination of Gaussian 16 at Wed Apr  9 18:43:41 2025.
 Gaussian 16:  ES64L-G16RevC.01  3-Jul-2019

 ----------------------------------------------------------------------
 #t hf aug-cc-pvdz iop(5/13=1,5/36=2,99/5=2) pseudo=read geom=check gue
 ss=(read,tcheck) scf=(maxcycle=1)
 ----------------------------------------------------------------------
 -----
 title
 -----
 Structure from the checkpoint file:  "Grambow2020_wb97xd3_007999_reverse_mol2.chk"
 Charge =  0 Multiplicity = 1

                         Standard orientation:
 ---------------------------------------------------------------------
 Center     Atomic      Atomic             Coordinates (Angstroms)
 Number     Number       Type             X           Y           Z
 ---------------------------------------------------------------------
      1          6           0       -2.954293    0.066862   -0.066780
      2          6           0       -1.661766   -0.082868   -0.050102
      3          6           0       -0.376830   -0.240672   -0.048593
      4          6           0        0.584934   -1.270563    0.555284
      5          6           0        1.709382   -0.552128   -0.195484
      6          6           0        0.755320    0.437959   -0.760032
      7          7           0        1.718626    0.828016    0.291247
      8          1           0       -3.450766    0.715534    0.646308
      9          1           0       -3.572812   -0.449667   -0.792504
     10          1           0       -0.337366    3.332661    1.083123
     11          1           0        0.388594   -2.274955    0.179522
     12          1           0        0.676300   -1.280728    1.641250
     13          1           0        2.586060   -0.994319   -0.646931
     14          1           0        0.122159    2.745463    1.128425
     15          1           0        0.735500    0.939530   -1.716803
     16          1           0        2.481466    1.318835   -0.166881
 ---------------------------------------------------------------------

 SCF Done:  E(RHF) =  -287.050905577     A.U. after    2 cycles

 The electronic state is 1-A.
 Alpha  occ. eigenvalues --  -15.51029 -11.27764 -11.27480 -11.25181 -11.24995
 Alpha  occ. eigenvalues --  -11.24758 -11.24289  -1.29962  -1.09294  -1.02845
 Alpha  occ. eigenvalues --   -0.93075  -0.88319  -0.80514  -0.75227  -0.68636
 Alpha  occ. eigenvalues --   -0.65319  -0.62263  -0.60788  -0.57959  -0.56380
 Alpha  occ. eigenvalues --   -0.53470  -0.51522  -0.50663  -0.40953  -0.37478
 Alpha  occ. eigenvalues --   -0.35652
 Alpha virt. eigenvalues --    0.03201   0.03929   0.04215   0.04757   0.05213
 Alpha virt. eigenvalues --    0.05750   0.06410   0.07503   0.09101   0.10244
 Alpha virt. eigenvalues --    0.10725   0.11546   0.12298   0.13257   0.13490

 Mulliken charges:
               1
     1  C   -0.230487
     2  C    0.319749
     3  C    0.877111
     4  C   -0.344307
     5  C    0.064233
     6  C   -0.743487
     7  N    0.373058
     8  H   -0.073692
     9  H   -0.066801
    10  H    0.033597
    11  H    0.102070
    12  H    0.128746
    13  H   -0.225015
    14  H    0.001409
    15  H   -0.336557
    16  H    0.120372
 Sum of Mulliken charges =  -0.00000

 Dipole moment (field-independent basis, Debye):
    X=              0.8900    Y=             -1.0602    Z=             -1.8652  Tot=              2.3227

 Test job not archived.
 1\1\GINC-SE168\SP\RHF\Aug-CC-pVDZ\C6H9N1\OHZDE\09-Apr-2025\0\\#t hf au
 g-cc-pvdz iop(5/13=1,5/36=2,99/5=2) pseudo=read geom=check guess=(read
 ,tcheck) scf=(maxcycle=1)\\title\\0,1\C,0,2.44654617,0.42784976,1.6348
 6966\C,0,1.36273447,0.0674295,1.01135392\C,0,0.27998751,-0.30097967,0.
 404806\C,0,-0.08028352,-1.41989884,-0.57934686\C,0,-1.53675085,-0.9663
 8118,-0.44816677\C,0,-1.15747211,0.11558113,0.49773215\N,0,-1.57821016
 ,0.43006514,-0.88406665\H,0,3.08517774,1.20953702,1.23880209\H,0,2.743
 11146,-0.03984362,2.56726204\H,0,0.09969188,3.30080608,-0.61777855\H,0

 Normal termination of Gaussian 16 at Wed Apr  9 18:43:47 2025.
