 Gaussian 16, Revision C.01,

 ----------------------------------------------------------------------
 #t hf aug-cc-pvdz symm=none int=(grid=ultrafine) guess=(read,tcheck) s
 table=(opt,rrhf)
 ----------------------------------------------------------------------
 -----
 title
 -----
 Symbolic Z-matrix:
 Charge =  0 Multiplicity = 1

 SCF Done:  E(RHF) =  -394.323685993     A.U. after   17 cycles
 Normal termination of Gaussian 16 at Wed Apr  9 18:13:23 2025.
 Gaussian 16:  ES64L-G16RevC.01  3-Jul-2019

 ----------------------------------------------------------------------
 #t hf aug-cc-pvdz iop(5/13=1,5/36=2,99/5=2) pseudo=read geom=check gue
 ss=(read,tcheck) scf=(maxcycle=1)
 ----------------------------------------------------------------------
 -----
 title
 -----
 Structure from the checkpoint file:  "Grambow2020_wb97xd3_007202_forward_mol1.chk"
 Charge =  0 Multiplicity = 1

                         Standard orientation:
 ---------------------------------------------------------------------
 Center     Atomic      Atomic             Coordinates (Angstroms)
 Number     Number       Type             X           Y           Z
 ---------------------------------------------------------------------
      1          7           0       -0.089104    1.657738   -0.051694
      2          6           0       -0.506126    0.435771    0.275087
      3          8           0        0.238098   -0.435850    0.788276
      4          6           0        1.779951   -0.089668   -0.353641
      5          8           0        2.712865   -0.708665   -0.215129
      6          6           0       -1.871226    0.032735   -0.284873
      7          8           0       -2.326798   -1.063060   -0.154563
      8          1           0        0.601085    1.985524    0.623302
      9          1           0        1.013628    0.945012   -0.625042
     10          1           0       -2.399897    0.852872   -0.804527
 ---------------------------------------------------------------------

 SCF Done:  E(RHF) =  -394.704039009     A.U. after    2 cycles

 The electronic state is 1-A.
 Alpha  occ. eigenvalues --  -20.68234 -20.57963 -20.57452 -15.51652 -11.44601
 Alpha  occ. eigenvalues --  -11.38189 -11.36134  -1.63761  -1.51952  -1.49644
 Alpha  occ. eigenvalues --   -1.22773  -0.96375  -0.86924  -0.79094  -0.77656
 Alpha  occ. eigenvalues --   -0.74531  -0.70844  -0.67959  -0.66874  -0.65469
 Alpha  occ. eigenvalues --   -0.59875  -0.55017  -0.50155  -0.48540  -0.48033
 Alpha  occ. eigenvalues --   -0.42818
 Alpha virt. eigenvalues --    0.02940   0.04090   0.04787   0.05197   0.06962
 Alpha virt. eigenvalues --    0.08100   0.09589   0.09949   0.10685   0.10983
 Alpha virt. eigenvalues --    0.12588   0.13105   0.14785   0.15249   0.15720

 Mulliken charges:
               1
     1  N    0.174029
     2  C    0.099082
     3  O   -1.340430
     4  C    0.646844
     5  O   -0.751481
     6  C    1.050206
     7  O   -1.057048
     8  H    0.223160
     9  H    0.764569
    10  H    0.191071
 Sum of Mulliken charges =  -0.00000

 Dipole moment (field-independent basis, Debye):
    X=              2.3258    Y=              2.0284    Z=             -1.0144  Tot=              3.2485

 Test job not archived.
 1\1\GINC-SE224\SP\RHF\Aug-CC-pVDZ\C3H3N1O3\OHZDE\09-Apr-2025\0\\#t hf
 aug-cc-pvdz iop(5/13=1,5/36=2,99/5=2) pseudo=read geom=check guess=(re
 ad,tcheck) scf=(maxcycle=1)\\title\\0,1\N,0,-0.24325432,1.00693179,-0.
 81784163\C,0,-0.43001841,0.24609635,0.25925771\O,0,0.46519816,0.018195
 46,1.10990695\C,0,1.90464944,-0.26230113,-0.17478359\O,0,2.93519623,-0
 .5184001,0.20608237\C,0,-1.70805528,-0.59420934,0.25996627\O,0,-1.9579
 7979,-1.39220614,1.11204122\H,0,0.38589544,1.77848155,-0.59805435\H,0,
 0.96167425,0.24173703,-0.94173499\H,0,-2.38208573,-0.38154347,-0.59010

 Normal termination of Gaussian 16 at Wed Apr  9 18:13:26 2025.
