 Gaussian 16, Revision C.01,

 ----------------------------------------------------------------------
 #t hf aug-cc-pvdz symm=none int=(grid=ultrafine) guess=(read,tcheck) s
 table=(opt,rrhf)
 ----------------------------------------------------------------------
 -----
 title
 -----
 Symbolic Z-matrix:
 Charge =  0 Multiplicity = 1

 SCF Done:  E(RHF) =  -271.926409305     A.U. after   15 cycles
 Normal termination of Gaussian 16 at Wed Apr  9 18:22:46 2025.
 Gaussian 16:  ES64L-G16RevC.01  3-Jul-2019

 ----------------------------------------------------------------------
 #t hf aug-cc-pvdz iop(5/13=1,5/36=2,99/5=2) pseudo=read geom=check gue
 ss=(read,tcheck) scf=(maxcycle=1)
 ----------------------------------------------------------------------
 -----
 title
 -----
 Structure from the checkpoint file:  "Grambow2020_wb97xd3_007428_forward_mol1.chk"
 Charge =  0 Multiplicity = 1

                         Standard orientation:
 ---------------------------------------------------------------------
 Center     Atomic      Atomic             Coordinates (Angstroms)
 Number     Number       Type             X           Y           Z
 ---------------------------------------------------------------------
      1          6           0        2.656943    0.171148   -0.178630
      2          6           0        1.399106   -0.684371   -0.093985
      3          6           0        0.250337    0.041491    0.592425
      4          6           0       -0.410252    1.223709   -0.159379
      5          6           0       -1.803363    0.612316   -0.080966
      6          6           0       -1.671814   -0.808806   -0.573650
      7          6           0       -1.022930   -0.838023    0.779402
      8          1           0        3.464630   -0.357930   -0.687032
      9          1           0        3.012536    0.446833    0.816876
     10          1           0        2.469883    1.096641   -0.729518
     11          1           0        1.103427   -0.995369   -1.100259
     12          1           0        1.612357   -1.604533    0.459667
     13          1           0        0.602869    0.369886    1.573342
     14          1           0       -0.069194    1.384463   -1.185922
     15          1           0       -0.317100    2.164699    0.381396
     16          1           0       -2.744261    1.136634   -0.228443
     17          1           0       -2.602033   -1.363281   -0.652178
     18          1           0       -1.046760   -0.912289   -1.455606
     19          1           0       -1.874518    0.329460    1.096372
 ---------------------------------------------------------------------

 SCF Done:  E(RHF) =  -272.223358234     A.U. after    2 cycles

 The electronic state is 1-A.
 Alpha  occ. eigenvalues --  -11.27160 -11.25113 -11.24048 -11.23407 -11.23268
 Alpha  occ. eigenvalues --  -11.22932 -11.22490  -1.19375  -1.05504  -0.96976
 Alpha  occ. eigenvalues --   -0.91874  -0.82908  -0.81940  -0.72913  -0.67183
 Alpha  occ. eigenvalues --   -0.62871  -0.61027  -0.60318  -0.56237  -0.53642
 Alpha  occ. eigenvalues --   -0.52010  -0.51675  -0.50268  -0.47798  -0.46332
 Alpha  occ. eigenvalues --   -0.44268  -0.32397
 Alpha virt. eigenvalues --    0.03065   0.03364   0.03510   0.04319   0.05485
 Alpha virt. eigenvalues --    0.05764   0.06287   0.06733   0.07058   0.08733
 Alpha virt. eigenvalues --    0.09422   0.09926   0.11506   0.12505   0.13363

 Mulliken charges:
               1
     1  C   -0.345333
     2  C   -0.241487
     3  C   -0.243273
     4  C    0.091949
     5  C   -0.316042
     6  C    0.332941
     7  C   -0.490543
     8  H    0.109152
     9  H    0.179221
    10  H    0.163886
    11  H    0.129827
    12  H    0.149312
    13  H   -0.034401
    14  H   -0.001143
    15  H    0.066235
    16  H   -0.099652
    17  H   -0.075820
    18  H    0.022134
    19  H    0.603036
 Sum of Mulliken charges =  -0.00000

 Dipole moment (field-independent basis, Debye):
    X=              0.1683    Y=              1.8594    Z=             -1.7291  Tot=              2.5447

 Test job not archived.
 1\1\GINC-SE232\SP\RHF\Aug-CC-pVDZ\C7H12\OHZDE\09-Apr-2025\0\\#t hf aug
 -cc-pvdz iop(5/13=1,5/36=2,99/5=2) pseudo=read geom=check guess=(read,
 tcheck) scf=(maxcycle=1)\\title\\0,1\C,0,2.36691084,0.3953137,-0.70767
 35\C,0,1.11450771,-0.46691226,-0.80403064\C,0,0.27336765,-0.4098258,0.
 46361658\C,0,-0.46694625,0.91313861,0.78130354\C,0,-1.82914299,0.23601
 644,0.86275901\C,0,-1.96582072,-0.59522141,-0.39023408\C,0,-0.9670263,
 -1.35337839,0.434545\H,0,2.94940846,0.35546716,-1.62955342\H,0,3.01120
 012,0.06270561,0.10948277\H,0,2.11336892,1.44231402,-0.52189488\H,0,0.

 Normal termination of Gaussian 16 at Wed Apr  9 18:22:54 2025.
