 Gaussian 16, Revision C.01,

 ----------------------------------------------------------------------
 #t hf aug-cc-pvdz symm=none int=(grid=ultrafine) guess=(read,tcheck) s
 table=(opt,rrhf)
 ----------------------------------------------------------------------
 -----
 title
 -----
 Symbolic Z-matrix:
 Charge =  0 Multiplicity = 1

 SCF Done:  E(RHF) =  -279.867044994     A.U. after   15 cycles
 Normal termination of Gaussian 16 at Wed Apr  9 15:56:40 2025.
 Gaussian 16:  ES64L-G16RevC.01  3-Jul-2019

 ----------------------------------------------------------------------
 #t hf aug-cc-pvdz iop(5/13=1,5/36=2,99/5=2) pseudo=read geom=check gue
 ss=(read,tcheck) scf=(maxcycle=1)
 ----------------------------------------------------------------------
 -----
 title
 -----
 Structure from the checkpoint file:  "Grambow2020_b97d3_007048_forward_mol2.chk"
 Charge =  0 Multiplicity = 1

                         Standard orientation:
 ---------------------------------------------------------------------
 Center     Atomic      Atomic             Coordinates (Angstroms)
 Number     Number       Type             X           Y           Z
 ---------------------------------------------------------------------
      1          7           0       -2.066216   -0.011117   -0.088205
      2          6           0       -0.667678    0.082897   -0.004984
      3          6           0        0.206194    1.166007    0.008985
      4          6           0        1.498610    0.578965    0.008257
      5          7           0        1.453226   -0.757397    0.004167
      6          7           0        0.119123   -1.031306   -0.007936
      7          1           0       -2.495064    0.911199   -0.043155
      8          1           0       -2.470417   -0.591244    0.648751
      9          1           0       -0.067469    2.215743    0.034028
     10          1           0        2.457183    1.087299    0.025420
     11          1           0       -0.189923   -1.991469   -0.094772
 ---------------------------------------------------------------------

 SCF Done:  E(RHF) =  -280.154225463     A.U. after    2 cycles

 The electronic state is 1-A.
 Alpha  occ. eigenvalues --  -15.56751 -15.53409 -15.51705 -11.32214 -11.26086
 Alpha  occ. eigenvalues --  -11.22225  -1.35825  -1.22626  -1.09722  -1.04010
 Alpha  occ. eigenvalues --   -0.84107  -0.83694  -0.77575  -0.71288  -0.65693
 Alpha  occ. eigenvalues --   -0.64104  -0.61388  -0.59003  -0.52823  -0.49234
 Alpha  occ. eigenvalues --   -0.39063  -0.34527
 Alpha virt. eigenvalues --    0.02499   0.04360   0.04407   0.05700   0.06688
 Alpha virt. eigenvalues --    0.10505   0.11220   0.11377   0.12684   0.12972
 Alpha virt. eigenvalues --    0.13214   0.13759   0.14738   0.15059   0.16721

 Mulliken charges:
               1
     1  N    0.690440
     2  C   -1.842784
     3  C    0.893746
     4  C   -0.261170
     5  N   -0.212152
     6  N    0.697562
     7  H    0.181599
     8  H    0.136519
     9  H   -0.162153
    10  H   -0.113806
    11  H   -0.007799
 Sum of Mulliken charges =   0.00000

 Dipole moment (field-independent basis, Debye):
    X=             -3.3179    Y=              1.3876    Z=              1.0655  Tot=              3.7509

 Test job not archived.
 1\1\GINC-SE042\SP\RHF\Aug-CC-pVDZ\C3H5N3\OHZDE\09-Apr-2025\0\\#t hf au
 g-cc-pvdz iop(5/13=1,5/36=2,99/5=2) pseudo=read geom=check guess=(read
 ,tcheck) scf=(maxcycle=1)\\title\\0,1\N,0,-1.86483048,-0.02826174,0.20
 159222\C,0,-0.46815846,0.02111228,0.06541959\C,0,0.51558772,-0.9633749
 ,0.06710468\C,0,1.73691053,-0.24444993,-0.01337188\N,0,1.54888333,1.07
 814246,-0.07110608\N,0,0.19442105,1.21051715,-0.01713686\H,0,-2.193803
 09,-0.99164477,0.21824691\H,0,-2.35500821,0.46722273,-0.54489966\H,0,0
 .3551685,-2.03594683,0.10340752\H,0,2.74316253,-0.64938136,-0.0457541\

 Normal termination of Gaussian 16 at Wed Apr  9 15:56:44 2025.
