 Gaussian 16, Revision C.01,

 ----------------------------------------------------------------------
 #t hf aug-cc-pvdz symm=none int=(grid=ultrafine) guess=(read,tcheck) s
 table=(opt,rrhf)
 ----------------------------------------------------------------------
 -----
 title
 -----
 Symbolic Z-matrix:
 Charge =  0 Multiplicity = 1

 SCF Done:  E(RHF) =  -286.686706346     A.U. after   15 cycles
 Normal termination of Gaussian 16 at Wed Apr  9 18:29:54 2025.
 Gaussian 16:  ES64L-G16RevC.01  3-Jul-2019

 ----------------------------------------------------------------------
 #t hf aug-cc-pvdz iop(5/13=1,5/36=2,99/5=2) pseudo=read geom=check gue
 ss=(read,tcheck) scf=(maxcycle=1)
 ----------------------------------------------------------------------
 -----
 title
 -----
 Structure from the checkpoint file:  "Grambow2020_wb97xd3_007636_reverse_mol1.chk"
 Charge =  0 Multiplicity = 1

                         Standard orientation:
 ---------------------------------------------------------------------
 Center     Atomic      Atomic             Coordinates (Angstroms)
 Number     Number       Type             X           Y           Z
 ---------------------------------------------------------------------
      1          6           0        2.077774   -0.674428    0.041355
      2          6           0        0.698553   -0.140277   -0.198385
      3          6           0        0.217729    1.573130   -0.539474
      4          6           0       -0.004911    0.830523    0.718318
      5          6           0       -1.259143   -0.091832    0.754608
      6          7           0       -1.773266   -0.309636   -0.572411
      7          6           0       -0.586468   -1.025206   -0.182321
      8          1           0        2.066769   -1.355217    0.896613
      9          1           0        2.777793    0.132567    0.260022
     10          1           0        2.451360   -1.226911   -0.822797
     11          1           0        1.194281    2.067424   -0.461450
     12          1           0        0.590220    0.497099   -1.263275
     13          1           0        0.485801    1.126087    1.637381
     14          1           0       -1.886003   -0.285172    1.613687
     15          1           0       -1.570024    0.485844   -1.176808
     16          1           0       -0.558539   -2.105720   -0.241101
 ---------------------------------------------------------------------

 SCF Done:  E(RHF) =  -286.994513197     A.U. after    2 cycles

 The electronic state is 1-A.
 Alpha  occ. eigenvalues --  -15.49744 -11.28856 -11.27562 -11.26654 -11.25561
 Alpha  occ. eigenvalues --  -11.25410 -11.24973  -1.31047  -1.15121  -1.00291
 Alpha  occ. eigenvalues --   -0.93579  -0.88278  -0.79769  -0.76143  -0.70435
 Alpha  occ. eigenvalues --   -0.68184  -0.61450  -0.60453  -0.58901  -0.55850
 Alpha  occ. eigenvalues --   -0.53124  -0.50277  -0.48290  -0.45378  -0.40904
 Alpha  occ. eigenvalues --   -0.32642
 Alpha virt. eigenvalues --    0.02989   0.03425   0.03645   0.04580   0.05389
 Alpha virt. eigenvalues --    0.06223   0.06844   0.07276   0.07742   0.11178
 Alpha virt. eigenvalues --    0.12070   0.12331   0.12859   0.13238   0.13836

 Mulliken charges:
               1
     1  C   -0.475937
     2  C   -0.569883
     3  C   -0.601816
     4  C    0.516301
     5  C   -0.164736
     6  N    0.593389
     7  C   -0.366709
     8  H    0.241563
     9  H    0.176546
    10  H    0.192972
    11  H   -0.004000
    12  H    0.616368
    13  H   -0.135612
    14  H   -0.179682
    15  H    0.401979
    16  H   -0.240744
 Sum of Mulliken charges =   0.00000

 Dipole moment (field-independent basis, Debye):
    X=              3.3883    Y=             -1.1239    Z=              1.8152  Tot=              4.0049

 Test job not archived.
 1\1\GINC-SE041\SP\RHF\Aug-CC-pVDZ\C6H9N1\OHZDE\09-Apr-2025\0\\#t hf au
 g-cc-pvdz iop(5/13=1,5/36=2,99/5=2) pseudo=read geom=check guess=(read
 ,tcheck) scf=(maxcycle=1)\\title\\0,1\C,0,1.56806289,-0.62568187,0.846
 77441\C,0,0.40496627,-0.23660473,-0.01396412\C,0,0.34948222,1.05446243
 ,-1.28414761\C,0,-0.28448928,1.10439477,0.04951684\C,0,-1.66862225,0.4
 0184754,0.1750461\N,0,-1.90795462,-0.46303117,-0.95076273\C,0,-0.99694
 304,-0.91678638,0.06750189\H,0,1.23747213,-0.74706517,1.88168346\H,0,2
 .34370002,0.14052323,0.8268128\H,0,2.01072149,-1.56943013,0.52280737\H

 Normal termination of Gaussian 16 at Wed Apr  9 18:30:00 2025.
