 Gaussian 16, Revision C.01,

 ----------------------------------------------------------------------
 #t hf aug-cc-pvdz symm=none int=(grid=ultrafine) guess=(read,tcheck) s
 table=(opt,rrhf)
 ----------------------------------------------------------------------
 -----
 title
 -----
 Symbolic Z-matrix:
 Charge =  0 Multiplicity = 1

 SCF Done:  E(RHF) =  -359.574296517     A.U. after   17 cycles
 Normal termination of Gaussian 16 at Wed Apr  9 18:56:47 2025.
 Gaussian 16:  ES64L-G16RevC.01  3-Jul-2019

 ----------------------------------------------------------------------
 #t hf aug-cc-pvdz iop(5/13=1,5/36=2,99/5=2) pseudo=read geom=check gue
 ss=(read,tcheck) scf=(maxcycle=1)
 ----------------------------------------------------------------------
 -----
 title
 -----
 Structure from the checkpoint file:  "Grambow2020_wb97xd3_008370_forward_mol1.chk"
 Charge =  0 Multiplicity = 1

                         Standard orientation:
 ---------------------------------------------------------------------
 Center     Atomic      Atomic             Coordinates (Angstroms)
 Number     Number       Type             X           Y           Z
 ---------------------------------------------------------------------
      1          8           0       -1.760056   -0.860764   -0.143138
      2          6           0       -0.555996   -0.550092    0.480032
      3          6           0        0.592954   -1.264973   -0.292534
      4          7           0        1.640460   -0.236446   -0.445205
      5          6           0        1.417649    0.532038    0.628351
      6          6           0       -0.324394    1.091571    0.401064
      7          8           0       -0.594292    1.606102   -0.677527
      8          1           0       -2.487199   -0.401461    0.282942
      9          1           0       -0.579063   -0.856284    1.532900
     10          1           0        0.240356   -1.566248   -1.277860
     11          1           0        0.961626   -2.138114    0.246464
     12          1           0        1.487940    0.289777   -1.301753
     13          1           0        1.491544   -0.084781    1.537567
     14          1           0       -0.544911    1.598267    1.360022
 ---------------------------------------------------------------------

 SCF Done:  E(RHF) =  -359.939885372     A.U. after    2 cycles

 The electronic state is 1-A.
 Alpha  occ. eigenvalues --  -20.57221 -20.49507 -15.54197 -11.34167 -11.32546
 Alpha  occ. eigenvalues --  -11.32508 -11.30268  -1.48556  -1.43171  -1.29885
 Alpha  occ. eigenvalues --   -1.02565  -0.96524  -0.85622  -0.81001  -0.73588
 Alpha  occ. eigenvalues --   -0.70613  -0.68847  -0.66297  -0.63201  -0.60073
 Alpha  occ. eigenvalues --   -0.58397  -0.56080  -0.53176  -0.47770  -0.46848
 Alpha  occ. eigenvalues --   -0.37993  -0.35649
 Alpha virt. eigenvalues --    0.01241   0.02981   0.03713   0.04495   0.05082
 Alpha virt. eigenvalues --    0.06087   0.06686   0.07030   0.10086   0.10884
 Alpha virt. eigenvalues --    0.12599   0.13096   0.13626   0.13904   0.14620

 Mulliken charges:
               1
     1  O   -1.340507
     2  C    0.956998
     3  C   -0.517162
     4  N    0.445485
     5  C   -0.639193
     6  C    1.157034
     7  O   -1.349775
     8  H    0.257744
     9  H    0.099901
    10  H    0.121947
    11  H    0.073250
    12  H    0.390274
    13  H    0.191612
    14  H    0.152392
 Sum of Mulliken charges =   0.00000

 Dipole moment (field-independent basis, Debye):
    X=              0.4851    Y=             -2.7550    Z=              2.9430  Tot=              4.0603

 Test job not archived.
 1\1\GINC-SE229\SP\RHF\Aug-CC-pVDZ\C4H7N1O2\OHZDE\09-Apr-2025\0\\#t hf
 aug-cc-pvdz iop(5/13=1,5/36=2,99/5=2) pseudo=read geom=check guess=(re
 ad,tcheck) scf=(maxcycle=1)\\title\\0,1\O,0,-1.03353337,-0.88249508,1.
 42030159\C,0,-0.45970292,-0.60024943,0.18511965\C,0,-0.93656998,0.8136
 479,-0.26375816\N,0,0.28521178,1.48755986,-0.74494171\C,0,1.01760988,0
 .44649816,-1.16029692\C,0,1.19122132,-0.58785091,0.35609066\O,0,1.6085
 8835,-0.01919514,1.35777924\H,0,-0.72668375,-1.73112606,1.74727221\H,0
 ,-0.73590883,-1.365971,-0.54986112\H,0,-1.3313535,1.35687328,0.5935702

 Normal termination of Gaussian 16 at Wed Apr  9 18:56:52 2025.
