 Gaussian 16, Revision C.01,

 ----------------------------------------------------------------------
 #t hf aug-cc-pvdz symm=none int=(grid=ultrafine) guess=(read,tcheck) s
 table=(opt,rrhf)
 ----------------------------------------------------------------------
 -----
 title
 -----
 Symbolic Z-matrix:
 Charge =  0 Multiplicity = 1

 SCF Done:  E(RHF) =  -322.652023017     A.U. after   16 cycles
 Normal termination of Gaussian 16 at Wed Apr  9 03:33:22 2025.
 Gaussian 16:  ES64L-G16RevC.01  3-Jul-2019

 ----------------------------------------------------------------------
 #t hf aug-cc-pvdz iop(5/13=1,5/36=2,99/5=2) pseudo=read geom=check gue
 ss=(read,tcheck) scf=(maxcycle=1)
 ----------------------------------------------------------------------
 -----
 title
 -----
 Structure from the checkpoint file:  "Grambow2020_wb97xd3_007012_forward_mol1.chk"
 Charge =  0 Multiplicity = 1

                         Standard orientation:
 ---------------------------------------------------------------------
 Center     Atomic      Atomic             Coordinates (Angstroms)
 Number     Number       Type             X           Y           Z
 ---------------------------------------------------------------------
      1          6           0       -0.968904    0.926047    1.098655
      2          6           0        0.221203    0.879593   -0.738094
      3          6           0        1.536621    0.628889   -0.398928
      4          6           0        1.555190   -0.603826    0.254443
      5          7           0        0.334524   -1.090167    0.357788
      6          6           0       -0.664115   -0.202620   -0.276327
      7          8           0       -1.727681   -0.662144   -0.726472
      8          1           0       -1.491659    1.807565    0.739594
      9          1           0       -0.127525    1.181091    1.738844
     10          1           0       -1.677612    0.261129    1.585184
     11          1           0       -0.174089    1.738071   -1.258706
     12          1           0        2.386717    1.277682   -0.532915
     13          1           0        2.405971   -1.105567    0.695308
     14          1           0        0.078002   -2.000148    0.701455
 ---------------------------------------------------------------------

 SCF Done:  E(RHF) =  -322.984180193     A.U. after    2 cycles

 The electronic state is 1-A.
 Alpha  occ. eigenvalues --  -20.43714 -15.56276 -11.34119 -11.33502 -11.29601
 Alpha  occ. eigenvalues --  -11.25051 -11.24758  -1.39590  -1.30528  -1.10013
 Alpha  occ. eigenvalues --   -1.01218  -0.92310  -0.84877  -0.82787  -0.75306
 Alpha  occ. eigenvalues --   -0.65334  -0.63531  -0.62795  -0.60253  -0.59716
 Alpha  occ. eigenvalues --   -0.56178  -0.55214  -0.48564  -0.40339  -0.37697
 Alpha  occ. eigenvalues --   -0.31079
 Alpha virt. eigenvalues --    0.02336   0.03247   0.03471   0.04287   0.04816
 Alpha virt. eigenvalues --    0.05352   0.06983   0.07589   0.09492   0.10711
 Alpha virt. eigenvalues --    0.11891   0.12525   0.13096   0.14063   0.14780

 Mulliken charges:
               1
     1  C   -0.305625
     2  C    0.391533
     3  C    0.729311
     4  C   -0.512659
     5  N    0.727871
     6  C    0.467463
     7  O   -1.669192
     8  H    0.123075
     9  H    0.173754
    10  H    0.125698
    11  H   -0.104626
    12  H   -0.121433
    13  H   -0.152566
    14  H    0.127398
 Sum of Mulliken charges =  -0.00000

 Dipole moment (field-independent basis, Debye):
    X=              5.4111    Y=              1.1176    Z=              2.4456  Tot=              6.0423

 Test job not archived.
 1\1\GINC-SE435\SP\RHF\Aug-CC-pVDZ\C5H7N1O1\OHZDE\09-Apr-2025\0\\#t hf
 aug-cc-pvdz iop(5/13=1,5/36=2,99/5=2) pseudo=read geom=check guess=(re
 ad,tcheck) scf=(maxcycle=1)\\title\\0,1\C,0,-1.41777177,-0.41693253,0.
 50260328\C,0,-0.18420984,0.72709066,-0.89800191\C,0,0.80877124,1.36703
 664,-0.18199226\C,0,1.54880633,0.37145912,0.45675394\N,0,1.04368019,-0
 .81791156,0.19699108\C,0,-0.12010255,-0.73212522,-0.71150871\O,0,-0.41
 8536,-1.68368243,-1.45342685\H,0,-2.31481669,-0.07059966,-0.00201252\H
 ,0,-1.1665236,0.20092687,1.36163279\H,0,-1.53353475,-1.46593787,0.7619

 Normal termination of Gaussian 16 at Wed Apr  9 03:33:27 2025.
