 Gaussian 16, Revision C.01,

 ----------------------------------------------------------------------
 #t hf aug-cc-pvdz symm=none int=(grid=ultrafine) guess=(read,tcheck) s
 table=(opt,rrhf)
 ----------------------------------------------------------------------
 -----
 title
 -----
 Symbolic Z-matrix:
 Charge =  0 Multiplicity = 1

 SCF Done:  E(RHF) =  -301.651112751     A.U. after   15 cycles
 Normal termination of Gaussian 16 at Wed Apr  9 18:38:30 2025.
 Gaussian 16:  ES64L-G16RevC.01  3-Jul-2019

 ----------------------------------------------------------------------
 #t hf aug-cc-pvdz iop(5/13=1,5/36=2,99/5=2) pseudo=read geom=check gue
 ss=(read,tcheck) scf=(maxcycle=1)
 ----------------------------------------------------------------------
 -----
 title
 -----
 Structure from the checkpoint file:  "Grambow2020_wb97xd3_007931_forward_mol1.chk"
 Charge =  0 Multiplicity = 1

                         Standard orientation:
 ---------------------------------------------------------------------
 Center     Atomic      Atomic             Coordinates (Angstroms)
 Number     Number       Type             X           Y           Z
 ---------------------------------------------------------------------
      1          6           0       -1.428496    0.603686    0.674824
      2          6           0       -1.793714   -0.464815   -0.275626
      3          6           0       -0.311354   -0.372467   -0.361401
      4          7           0        0.597574   -1.237494    0.084452
      5          6           0        1.699154   -0.473542    0.212569
      6          6           0        1.421280    0.855398   -0.073563
      7          7           0        0.135810    0.941634   -0.472671
      8          1           0       -1.154213    0.312635    1.681532
      9          1           0       -1.750422    1.622792    0.533060
     10          1           0       -2.112736   -1.407379    0.153515
     11          1           0       -2.357926   -0.155737   -1.148078
     12          1           0        2.649343   -0.907235    0.493596
     13          1           0        2.071039    1.716384   -0.056905
 ---------------------------------------------------------------------

 SCF Done:  E(RHF) =  -301.961272952     A.U. after    2 cycles

 The electronic state is 1-A.
 Alpha  occ. eigenvalues --  -15.52733 -15.47845 -11.33462 -11.30783 -11.27511
 Alpha  occ. eigenvalues --  -11.26021 -11.23737  -1.33648  -1.17022  -1.12893
 Alpha  occ. eigenvalues --   -0.95750  -0.88685  -0.82192  -0.77566  -0.71007
 Alpha  occ. eigenvalues --   -0.69663  -0.64532  -0.59464  -0.58609  -0.56836
 Alpha  occ. eigenvalues --   -0.54057  -0.49752  -0.47658  -0.42304  -0.32657
 Alpha virt. eigenvalues --    0.03233   0.04079   0.04441   0.04541   0.05146
 Alpha virt. eigenvalues --    0.05965   0.06870   0.08776   0.10152   0.11793
 Alpha virt. eigenvalues --    0.12393   0.13078   0.13460   0.14092   0.14786

 Mulliken charges:
               1
     1  C    0.440824
     2  C    0.303322
     3  C   -2.182862
     4  N    1.078483
     5  C   -0.057161
     6  C   -0.213803
     7  N    0.829422
     8  H    0.026364
     9  H   -0.039163
    10  H    0.055095
    11  H    0.052456
    12  H   -0.116365
    13  H   -0.176611
 Sum of Mulliken charges =  -0.00000

 Dipole moment (field-independent basis, Debye):
    X=             -2.4394    Y=              1.4464    Z=              1.5031  Tot=              3.2097

 Test job not archived.
 1\1\GINC-SE115\SP\RHF\Aug-CC-pVDZ\C5H6N2\OHZDE\09-Apr-2025\0\\#t hf au
 g-cc-pvdz iop(5/13=1,5/36=2,99/5=2) pseudo=read geom=check guess=(read
 ,tcheck) scf=(maxcycle=1)\\title\\0,1\C,0,-1.39136838,-0.33437872,-0.2
 9355293\C,0,-1.3777465,1.02721188,0.27593628\C,0,0.04561696,0.5948313,
 0.2949066\N,0,1.05044415,1.02636935,-0.46489976\C,0,1.92931286,0.00782
 364,-0.40431658\C,0,1.41016582,-1.05744691,0.31738266\N,0,0.20553108,-
 0.69228704,0.8018102\H,0,-1.20325656,-0.44017364,-1.35507269\H,0,-1.90
 542324,-1.14734472,0.19342147\H,0,-1.53952709,1.84440446,-0.4171634\H,

 Normal termination of Gaussian 16 at Wed Apr  9 18:38:34 2025.
