 Gaussian 16, Revision C.01,

 ----------------------------------------------------------------------
 #t hf aug-cc-pvdz symm=none int=(grid=ultrafine) guess=(read,tcheck) s
 table=(opt,rrhf)
 ----------------------------------------------------------------------
 -----
 title
 -----
 Symbolic Z-matrix:
 Charge =  0 Multiplicity = 1

 SCF Done:  E(RHF) =  -295.889526405     A.U. after   15 cycles
 Normal termination of Gaussian 16 at Wed Apr  9 15:48:41 2025.
 Gaussian 16:  ES64L-G16RevC.01  3-Jul-2019

 ----------------------------------------------------------------------
 #t hf aug-cc-pvdz iop(5/13=1,5/36=2,99/5=2) pseudo=read geom=check gue
 ss=(read,tcheck) scf=(maxcycle=1)
 ----------------------------------------------------------------------
 -----
 title
 -----
 Structure from the checkpoint file:  "Grambow2020_b97d3_006780_forward_mol2.chk"
 Charge =  0 Multiplicity = 1

                         Standard orientation:
 ---------------------------------------------------------------------
 Center     Atomic      Atomic             Coordinates (Angstroms)
 Number     Number       Type             X           Y           Z
 ---------------------------------------------------------------------
      1          7           0        2.028676    0.004758   -0.088542
      2          6           0        0.647722    0.000318   -0.008923
      3          7           0       -0.071834   -1.133903    0.002002
      4          7           0       -1.347785   -0.641834    0.005768
      5          6           0       -1.337261    0.711554    0.006137
      6          7           0       -0.089215    1.160483   -0.004745
      7          1           0        2.434128    0.834225    0.334272
      8          1           0        2.439871   -0.857279    0.258219
      9          1           0       -2.132331   -1.284906    0.011681
     10          1           0       -2.243327    1.310207    0.011163
 ---------------------------------------------------------------------

 SCF Done:  E(RHF) =  -296.188901692     A.U. after    2 cycles

 The electronic state is 1-A.
 Alpha  occ. eigenvalues --  -15.58683 -15.51810 -15.51510 -15.49685 -11.33202
 Alpha  occ. eigenvalues --  -11.33045  -1.39515  -1.23272  -1.18958  -1.10224
 Alpha  occ. eigenvalues --   -0.89997  -0.84969  -0.80178  -0.72436  -0.68568
 Alpha  occ. eigenvalues --   -0.66725  -0.63764  -0.55368  -0.53709  -0.49545
 Alpha  occ. eigenvalues --   -0.45228  -0.37576
 Alpha virt. eigenvalues --    0.02856   0.04620   0.04700   0.06626   0.08663
 Alpha virt. eigenvalues --    0.08881   0.10646   0.12371   0.13387   0.13788
 Alpha virt. eigenvalues --    0.14252   0.14574   0.16812   0.17532   0.17780

 Mulliken charges:
               1
     1  N    0.469097
     2  C   -1.581238
     3  N    0.132736
     4  N    0.189203
     5  C   -0.068687
     6  N    0.470118
     7  H    0.151586
     8  H    0.175181
     9  H    0.054495
    10  H    0.007510
 Sum of Mulliken charges =   0.00000

 Dipole moment (field-independent basis, Debye):
    X=             -1.9817    Y=              0.0021    Z=              1.2045  Tot=              2.3190

 Test job not archived.
 1\1\GINC-SE042\SP\RHF\Aug-CC-pVDZ\C2H4N4\OHZDE\09-Apr-2025\0\\#t hf au
 g-cc-pvdz iop(5/13=1,5/36=2,99/5=2) pseudo=read geom=check guess=(read
 ,tcheck) scf=(maxcycle=1)\\title\\0,1\N,0,1.96646882,-0.04398918,-0.36
 648538\C,0,0.60354627,-0.02079446,-0.13133329\N,0,-0.1437709,-1.136584
 47,-0.10188869\N,0,-1.3960713,-0.61588648,0.07365491\C,0,-1.34523299,0
 .73454976,0.14787557\N,0,-0.09339558,1.154051,0.02061355\H,0,2.4411733
 7,0.74964001,0.053023\H,0,2.38795607,-0.9341975,-0.11686821\H,0,-2.193
 86185,-1.23968952,0.13272418\H,0,-2.22681193,1.35290084,0.28868436\\Ve

 Normal termination of Gaussian 16 at Wed Apr  9 15:48:44 2025.
