 Gaussian 16, Revision C.01,

 ----------------------------------------------------------------------
 #t hf aug-cc-pvdz symm=none int=(grid=ultrafine) guess=(read,tcheck) s
 table=(opt,rrhf)
 ----------------------------------------------------------------------
 -----
 title
 -----
 Symbolic Z-matrix:
 Charge =  0 Multiplicity = 1

 SCF Done:  E(RHF) =  -359.637101937     A.U. after   15 cycles
 Normal termination of Gaussian 16 at Wed Apr  9 03:52:38 2025.
 Gaussian 16:  ES64L-G16RevC.01  3-Jul-2019

 ----------------------------------------------------------------------
 #t hf aug-cc-pvdz iop(5/13=1,5/36=2,99/5=2) pseudo=read geom=check gue
 ss=(read,tcheck) scf=(maxcycle=1)
 ----------------------------------------------------------------------
 -----
 title
 -----
 Structure from the checkpoint file:  "Grambow2020_wb97xd3_008270_forward_mol1.chk"
 Charge =  0 Multiplicity = 1

                         Standard orientation:
 ---------------------------------------------------------------------
 Center     Atomic      Atomic             Coordinates (Angstroms)
 Number     Number       Type             X           Y           Z
 ---------------------------------------------------------------------
      1          6           0        1.839083   -0.879995   -0.531845
      2          6           0        1.161585    0.115342    0.387529
      3          6           0        0.459819    1.290608   -0.400022
      4          7           0       -0.972838    1.149488   -0.037798
      5          6           0       -1.275724   -0.131053   -0.106494
      6          8           0       -1.979381   -1.000882   -0.378012
      7          8           0        0.105415   -0.463599    1.111338
      8          1           0        1.125062   -1.293487   -1.249530
      9          1           0        2.256555   -1.706607    0.043065
     10          1           0        2.646820   -0.400529   -1.090288
     11          1           0        1.888598    0.530648    1.092626
     12          1           0        0.594323    1.193743   -1.477680
     13          1           0        0.781839    2.281815   -0.089761
     14          1           0       -0.600190    0.694442    1.074544
 ---------------------------------------------------------------------

 SCF Done:  E(RHF) =  -360.004475686     A.U. after    2 cycles

 The electronic state is 1-A.
 Alpha  occ. eigenvalues --  -20.62900 -20.53739 -15.54456 -11.46749 -11.29881
 Alpha  occ. eigenvalues --  -11.29764 -11.23568  -1.58736  -1.45069  -1.27957
 Alpha  occ. eigenvalues --   -1.05525  -0.96619  -0.82149  -0.79122  -0.76336
 Alpha  occ. eigenvalues --   -0.73174  -0.70585  -0.63592  -0.63146  -0.60089
 Alpha  occ. eigenvalues --   -0.57688  -0.54852  -0.54192  -0.52538  -0.48072
 Alpha  occ. eigenvalues --   -0.43358  -0.41828
 Alpha virt. eigenvalues --    0.03068   0.04028   0.04241   0.04915   0.06220
 Alpha virt. eigenvalues --    0.06969   0.07227   0.09420   0.10056   0.11129
 Alpha virt. eigenvalues --    0.12405   0.13620   0.13806   0.14130   0.14593

 Mulliken charges:
               1
     1  C   -0.366044
     2  C    0.985930
     3  C   -0.358588
     4  N    0.324527
     5  C    0.359105
     6  O   -0.935474
     7  O   -1.623029
     8  H    0.162577
     9  H    0.126719
    10  H    0.193403
    11  H    0.022977
    12  H    0.018245
    13  H    0.024028
    14  H    1.065623
 Sum of Mulliken charges =   0.00000

 Dipole moment (field-independent basis, Debye):
    X=              2.3282    Y=              1.3633    Z=             -0.9138  Tot=              2.8486

 Test job not archived.
 1\1\GINC-SE250\SP\RHF\Aug-CC-pVDZ\C4H7N1O2\OHZDE\09-Apr-2025\0\\#t hf
 aug-cc-pvdz iop(5/13=1,5/36=2,99/5=2) pseudo=read geom=check guess=(re
 ad,tcheck) scf=(maxcycle=1)\\title\\0,1\C,0,-1.37159328,-0.92339862,0.
 0518444\C,0,-0.34645406,-0.09656678,-0.69674528\C,0,0.04561574,1.22658
 121,0.07106015\N,0,1.49859651,1.0653305,0.32888004\C,0,1.69363784,-0.1
 696802,0.74475584\O,0,2.19696531,-0.95094092,1.42427794\O,0,0.88108745
 ,-0.76708172,-0.83135272\H,0,-1.01181927,-1.17290922,1.05393291\H,0,-1
 .5691491,-1.85555399,-0.47744769\H,0,-2.31065745,-0.37364967,0.1524418

 Normal termination of Gaussian 16 at Wed Apr  9 03:52:44 2025.
