 Gaussian 16, Revision C.01,

 ----------------------------------------------------------------------
 #t hf aug-cc-pvdz symm=none int=(grid=ultrafine) guess=(read,tcheck) s
 table=(opt,rrhf)
 ----------------------------------------------------------------------
 -----
 title
 -----
 Symbolic Z-matrix:
 Charge =  0 Multiplicity = 1

 SCF Done:  E(RHF) =  -302.891210486     A.U. after   13 cycles
 Normal termination of Gaussian 16 at Wed Apr  9 19:09:56 2025.
 Gaussian 16:  ES64L-G16RevC.01  3-Jul-2019

 ----------------------------------------------------------------------
 #t hf aug-cc-pvdz iop(5/13=1,5/36=2,99/5=2) pseudo=read geom=check gue
 ss=(read,tcheck) scf=(maxcycle=1)
 ----------------------------------------------------------------------
 -----
 title
 -----
 Structure from the checkpoint file:  "Grambow2020_wb97xd3_008833_forward_mol2.chk"
 Charge =  0 Multiplicity = 1

                         Standard orientation:
 ---------------------------------------------------------------------
 Center     Atomic      Atomic             Coordinates (Angstroms)
 Number     Number       Type             X           Y           Z
 ---------------------------------------------------------------------
      1          6           0       -0.640875    1.604292    0.051219
      2          6           0       -0.615923    0.105272   -0.100250
      3          6           0        0.598245   -0.451637   -0.825502
      4          6           0        1.838453   -0.213995   -0.089247
      5          7           0        2.799616   -0.014720    0.504259
      6          6           0       -1.283657   -0.743568    0.905580
      7          7           0       -1.842010   -0.601605   -0.441511
      8          1           0        0.243893    1.956261    0.585206
      9          1           0       -0.660467    2.091558   -0.927139
     10          1           0       -1.520905    1.924958    0.611220
     11          1           0        0.688400    0.005690   -1.814251
     12          1           0        0.473652   -1.524851   -0.973968
     13          1           0       -1.781565   -0.246532    1.730554
     14          1           0       -0.891603   -1.727243    1.137472
     15          1           0       -2.632105    0.032263   -0.439125
 ---------------------------------------------------------------------

 SCF Done:  E(RHF) =  -303.209443382     A.U. after    2 cycles

 The electronic state is 1-A.
 Alpha  occ. eigenvalues --  -15.51582 -15.51025 -11.29617 -11.28979 -11.27945
 Alpha  occ. eigenvalues --  -11.27668 -11.24991  -1.29555  -1.23620  -1.07358
 Alpha  occ. eigenvalues --   -0.99553  -0.91699  -0.82128  -0.72223  -0.70339
 Alpha  occ. eigenvalues --   -0.67831  -0.64410  -0.61044  -0.59204  -0.57238
 Alpha  occ. eigenvalues --   -0.54916  -0.52453  -0.51215  -0.49442  -0.48833
 Alpha  occ. eigenvalues --   -0.43198
 Alpha virt. eigenvalues --    0.02998   0.03775   0.04029   0.04621   0.05285
 Alpha virt. eigenvalues --    0.05390   0.07310   0.08602   0.09426   0.09986
 Alpha virt. eigenvalues --    0.12102   0.13564   0.13928   0.14152   0.14790

 Mulliken charges:
               1
     1  C   -0.346480
     2  C   -1.615229
     3  C   -0.108398
     4  C   -1.369307
     5  N    0.911039
     6  C    0.633404
     7  N    0.645550
     8  H    0.290762
     9  H    0.257655
    10  H    0.082694
    11  H    0.307875
    12  H    0.242222
    13  H   -0.095052
    14  H   -0.072588
    15  H    0.235852
 Sum of Mulliken charges =  -0.00000

 Dipole moment (field-independent basis, Debye):
    X=             -3.9176    Y=              0.8460    Z=             -0.8228  Tot=              4.0915

 Test job not archived.
 1\1\GINC-SE362\SP\RHF\Aug-CC-pVDZ\C5H8N2\OHZDE\09-Apr-2025\0\\#t hf au
 g-cc-pvdz iop(5/13=1,5/36=2,99/5=2) pseudo=read geom=check guess=(read
 ,tcheck) scf=(maxcycle=1)\\title\\0,1\C,0,-0.95432842,1.13597891,-0.11
 391843\C,0,-0.20079397,-0.16893871,-0.11537856\C,0,1.21544015,-0.09765
 863,-0.66268296\C,0,2.08513116,0.73836472,0.16276477\N,0,2.7489634,1.4
 0038998,0.82370646\C,0,-0.51072171,-1.19462599,0.89951221\N,0,-0.88718
 759,-1.39305943,-0.50243849\H,0,-0.42168104,1.89230004,0.46582615\H,0,
 -1.07437692,1.51435293,-1.13245582\H,0,-1.94591244,1.01308483,0.324874

 Normal termination of Gaussian 16 at Wed Apr  9 19:10:01 2025.
