 Gaussian 16, Revision C.01,

 ----------------------------------------------------------------------
 #t hf aug-cc-pvdz symm=none int=(grid=ultrafine) guess=(read,tcheck) s
 table=(opt,rrhf)
 ----------------------------------------------------------------------
 -----
 title
 -----
 Symbolic Z-matrix:
 Charge =  0 Multiplicity = 1

 SCF Done:  E(RHF) =  -224.754474637     A.U. after   14 cycles
 Normal termination of Gaussian 16 at Wed Apr  9 15:55:35 2025.
 Gaussian 16:  ES64L-G16RevC.01  3-Jul-2019

 ----------------------------------------------------------------------
 #t hf aug-cc-pvdz iop(5/13=1,5/36=2,99/5=2) pseudo=read geom=check gue
 ss=(read,tcheck) scf=(maxcycle=1)
 ----------------------------------------------------------------------
 -----
 title
 -----
 Structure from the checkpoint file:  "Grambow2020_b97d3_006887_reverse_mol2.chk"
 Charge =  0 Multiplicity = 1

                         Standard orientation:
 ---------------------------------------------------------------------
 Center     Atomic      Atomic             Coordinates (Angstroms)
 Number     Number       Type             X           Y           Z
 ---------------------------------------------------------------------
      1          7           0        1.564474   -0.689302    0.049398
      2          6           0        1.071606    0.492775   -0.030929
      3          6           0       -0.388271    0.693516   -0.197639
      4          6           0       -1.259047   -0.443756   -0.469821
      5          7           0       -1.341205   -0.132281    0.747785
      6          1           0        2.584217   -0.643123    0.178247
      7          1           0        1.661747    1.425584    0.008022
      8          1           0       -0.730010    1.709171   -0.408915
      9          1           0       -1.624567   -1.195759   -1.167296
 ---------------------------------------------------------------------

 SCF Done:  E(RHF) =  -224.981588066     A.U. after    2 cycles

 The electronic state is 1-A.
 Alpha  occ. eigenvalues --  -15.54652 -15.50514 -11.31395 -11.30268 -11.29305
 Alpha  occ. eigenvalues --   -1.31573  -1.21038  -0.95944  -0.81672  -0.79375
 Alpha  occ. eigenvalues --   -0.73586  -0.66722  -0.64443  -0.58172  -0.50803
 Alpha  occ. eigenvalues --   -0.48400  -0.45676  -0.41497
 Alpha virt. eigenvalues --    0.03297   0.04076   0.04453   0.05947   0.07221
 Alpha virt. eigenvalues --    0.08568   0.09399   0.12033   0.12437   0.12849
 Alpha virt. eigenvalues --    0.13757   0.14164   0.15048   0.15379   0.16191

 Mulliken charges:
               1
     1  N    0.473122
     2  C   -0.653481
     3  C   -0.087771
     4  C   -0.129174
     5  N    0.500512
     6  H    0.150745
     7  H   -0.092530
     8  H   -0.135193
     9  H   -0.026230
 Sum of Mulliken charges =  -0.00000

 Dipole moment (field-independent basis, Debye):
    X=              0.7973    Y=              2.0404    Z=             -2.7736  Tot=              3.5343

 Test job not archived.
 1\1\GINC-SE129\SP\RHF\Aug-CC-pVDZ\C3H4N2\OHZDE\09-Apr-2025\0\\#t hf au
 g-cc-pvdz iop(5/13=1,5/36=2,99/5=2) pseudo=read geom=check guess=(read
 ,tcheck) scf=(maxcycle=1)\\title\\0,1\N,0,-1.43129857,-0.60240001,0.51
 883831\C,0,-0.88661327,0.42989465,-0.01441787\C,0,0.56710278,0.4515962
 4,-0.30694019\C,0,1.43054713,-0.61551554,0.18444466\N,0,1.17422243,-0.
 8082935,-1.03353127\H,0,-2.44241709,-0.45236107,0.63604883\H,0,-1.4233
 4354,1.35628825,-0.28576995\H,0,0.99752482,1.40536319,-0.62005782\H,0,
 1.94814732,-1.09150922,1.01577229\\Version=ES64L-G16RevC.01\State=1-A\

 Normal termination of Gaussian 16 at Wed Apr  9 15:55:38 2025.
