 Gaussian 16, Revision C.01,

 ----------------------------------------------------------------------
 #t hf aug-cc-pvdz symm=none int=(grid=ultrafine) guess=(read,tcheck) s
 table=(opt,rrhf)
 ----------------------------------------------------------------------
 -----
 title
 -----
 Symbolic Z-matrix:
 Charge =  0 Multiplicity = 1

 SCF Done:  E(RHF) =  -308.945425536     A.U. after   14 cycles

 1\1\GINC-SE437\Stability\RHF\Aug-CC-pVDZ\C6H12O1\OHZDE\09-Apr-2025\0\\
 #t hf aug-cc-pvdz symm=none int=(grid=ultrafine) guess=(read,tcheck) s
 table=(opt,rrhf)\\title\\0,1\C,0,1.62121574,1.08781256,0.08206378\C,0,
 0.75568254,-0.1654193,0.09023947\C,0,1.55277842,-1.38263032,-0.3986966
 \C,0,-0.39925431,-0.08050332,-0.88157933\C,0,-1.60539051,-0.79086287,-
 0.38736859\C,0,-1.90394671,0.61447954,0.09969746\O,0,-1.88113065,0.723
 72141,1.48590153\H,0,1.07078618,1.95209181,0.46467969\H,0,2.5080073,0.
 96006449,0.7075574\H,0,1.940997,1.32211831,-0.93541007\H,0,0.43303216,

 Normal termination of Gaussian 16 at Wed Apr  9 03:52:59 2025.
 Gaussian 16:  ES64L-G16RevC.01  3-Jul-2019

 ----------------------------------------------------------------------
 #t hf aug-cc-pvdz iop(5/13=1,5/36=2,99/5=2) pseudo=read geom=check gue
 ss=(read,tcheck) scf=(maxcycle=1)
 ----------------------------------------------------------------------
 -----
 title
 -----
 Structure from the checkpoint file:  "Grambow2020_wb97xd3_008300_forward_mol1.chk"
 Charge =  0 Multiplicity = 1

                         Standard orientation:
 ---------------------------------------------------------------------
 Center     Atomic      Atomic             Coordinates (Angstroms)
 Number     Number       Type             X           Y           Z
 ---------------------------------------------------------------------
      1          6           0        1.540551    1.440980   -0.339161
      2          6           0        0.979647    0.131899    0.200746
      3          6           0        2.102217   -0.889254    0.431193
      4          6           0        0.064761   -0.558841   -0.784843
      5          6           0       -1.039133   -1.289380   -0.113018
      6          6           0       -1.725692    0.033929   -0.393813
      7          8           0       -2.019654    0.747926    0.762824
      8          1           0        0.750825    2.186235   -0.470592
      9          1           0        2.281797    1.864725    0.342716
     10          1           0        2.010487    1.280611   -1.311711
     11          1           0        0.498621    0.319590    1.171633
     12          1           0        2.830377   -0.484378    1.136370
     13          1           0        2.616369   -1.116093   -0.505075
     14          1           0        1.719384   -1.825346    0.842522
     15          1           0       -0.929669    0.565516   -1.077731
     16          1           0       -1.462582   -2.141475   -0.636733
     17          1           0       -0.966036   -1.460166    0.963282
     18          1           0       -2.552337   -0.055839   -1.100585
     19          1           0       -2.174117    1.667216    0.536690
 ---------------------------------------------------------------------

 SCF Done:  E(RHF) =  -309.276495522     A.U. after    2 cycles

 The electronic state is 1-A.
 Alpha  occ. eigenvalues --  -20.57531 -11.32356 -11.24841 -11.23607 -11.23060
 Alpha  occ. eigenvalues --  -11.22336 -11.21808  -1.48435  -1.13533  -1.05214
 Alpha  occ. eigenvalues --   -0.93136  -0.86947  -0.83876  -0.76544  -0.71552
 Alpha  occ. eigenvalues --   -0.66379  -0.62027  -0.60525  -0.58381  -0.57251
 Alpha  occ. eigenvalues --   -0.54619  -0.53987  -0.52175  -0.49328  -0.48310
 Alpha  occ. eigenvalues --   -0.46516  -0.44679  -0.32832
 Alpha virt. eigenvalues --    0.02860   0.03515   0.04091   0.04514   0.05635
 Alpha virt. eigenvalues --    0.05844   0.06583   0.06982   0.07589   0.08761
 Alpha virt. eigenvalues --    0.09509   0.10025   0.12230   0.13191   0.13543

 Mulliken charges:
               1
     1  C   -0.225678
     2  C   -1.142606
     3  C   -0.083613
     4  C   -0.335435
     5  C   -0.023257
     6  C    0.913592
     7  O   -1.291880
     8  H    0.141356
     9  H    0.168225
    10  H    0.263848
    11  H    0.232111
    12  H    0.155203
    13  H    0.284928
    14  H    0.161132
    15  H    0.319689
    16  H   -0.013127
    17  H    0.091852
    18  H    0.068019
    19  H    0.315642
 Sum of Mulliken charges =  -0.00000

 Dipole moment (field-independent basis, Debye):
    X=             -1.2345    Y=              1.2968    Z=              0.5535  Tot=              1.8740

 Test job not archived.
 1\1\GINC-SE437\SP\RHF\Aug-CC-pVDZ\C6H12O1\OHZDE\09-Apr-2025\0\\#t hf a
 ug-cc-pvdz iop(5/13=1,5/36=2,99/5=2) pseudo=read geom=check guess=(rea
 d,tcheck) scf=(maxcycle=1)\\title\\0,1\C,0,1.62121574,1.08781256,0.082
 06378\C,0,0.75568254,-0.1654193,0.09023947\C,0,1.55277842,-1.38263032,
 -0.3986966\C,0,-0.39925431,-0.08050332,-0.88157933\C,0,-1.60539051,-0.
 79086287,-0.38736859\C,0,-1.90394671,0.61447954,0.09969746\O,0,-1.8811
 3065,0.72372141,1.48590153\H,0,1.07078618,1.95209181,0.46467969\H,0,2.
 5080073,0.96006449,0.7075574\H,0,1.940997,1.32211831,-0.93541007\H,0,0

 Normal termination of Gaussian 16 at Wed Apr  9 03:53:06 2025.
