 Gaussian 16, Revision C.01,

 ----------------------------------------------------------------------
 #t hf aug-cc-pvdz symm=none int=(grid=ultrafine) guess=(read,tcheck) s
 table=(opt,rrhf)
 ----------------------------------------------------------------------
 -----
 title
 -----
 Symbolic Z-matrix:
 Charge =  0 Multiplicity = 1

 SCF Done:  E(RHF) =  -247.766984207     A.U. after   17 cycles
 Normal termination of Gaussian 16 at Wed Apr  9 16:53:07 2025.
 Gaussian 16:  ES64L-G16RevC.01  3-Jul-2019

 ----------------------------------------------------------------------
 #t hf aug-cc-pvdz iop(5/13=1,5/36=2,99/5=2) pseudo=read geom=check gue
 ss=(read,tcheck) scf=(maxcycle=1)
 ----------------------------------------------------------------------
 -----
 title
 -----
 Structure from the checkpoint file:  "Grambow2020_wb97xd3_006167_reverse_mol2.chk"
 Charge =  0 Multiplicity = 1

                         Standard orientation:
 ---------------------------------------------------------------------
 Center     Atomic      Atomic             Coordinates (Angstroms)
 Number     Number       Type             X           Y           Z
 ---------------------------------------------------------------------
      1          6           0       -0.966790    1.408601   -0.173240
      2          6           0       -0.920117    0.034984    0.487966
      3          6           0       -1.354122   -1.089313   -0.510726
      4          6           0        0.375104   -0.509127    0.897703
      5          6           0        1.480441   -0.147773    0.126466
      6          7           0        2.473546    0.084246   -0.429845
      7          1           0       -0.610782    2.181368    0.509452
      8          1           0       -1.991184    1.658026   -0.456385
      9          1           0       -0.345155    1.436705   -1.070442
     10          1           0       -1.618941   -0.020868    1.325887
     11          1           0       -0.708077   -1.109456   -1.389198
     12          1           0       -2.367040   -0.845430   -0.832366
     13          1           0       -1.360738   -2.074296   -0.047045
 ---------------------------------------------------------------------

 SCF Done:  E(RHF) =  -248.020353452     A.U. after    2 cycles

 The electronic state is 1-A.
 Alpha  occ. eigenvalues --  -15.54281 -11.31891 -11.29137 -11.27820 -11.26643
 Alpha  occ. eigenvalues --  -11.24904  -1.25209  -1.13980  -0.98015  -0.96487
 Alpha  occ. eigenvalues --   -0.84326  -0.68446  -0.65755  -0.63051  -0.60527
 Alpha  occ. eigenvalues --   -0.58110  -0.55512  -0.54940  -0.53175  -0.52214
 Alpha  occ. eigenvalues --   -0.50597  -0.39023
 Alpha virt. eigenvalues --   -0.00590   0.02951   0.03811   0.03913   0.04891
 Alpha virt. eigenvalues --    0.06472   0.06755   0.07558   0.08861   0.09895
 Alpha virt. eigenvalues --    0.12052   0.14134   0.14263   0.14855   0.15222

 Mulliken charges:
               1
     1  C   -0.100139
     2  C   -0.789507
     3  C   -0.089776
     4  C    0.244049
     5  C   -1.446149
     6  N    0.883053
     7  H    0.202647
     8  H    0.154913
     9  H    0.269833
    10  H    0.128186
    11  H    0.220273
    12  H    0.170094
    13  H    0.152523
 Sum of Mulliken charges =  -0.00000

 Dipole moment (field-independent basis, Debye):
    X=             -4.6859    Y=              0.3784    Z=              0.0597  Tot=              4.7016

 Test job not archived.
 1\1\GINC-SE043\SP\RHF\Aug-CC-pVDZ\C5H7N1\OHZDE\09-Apr-2025\0\\#t hf au
 g-cc-pvdz iop(5/13=1,5/36=2,99/5=2) pseudo=read geom=check guess=(read
 ,tcheck) scf=(maxcycle=1)\\title\\0,1\C,0,1.29825632,0.47302139,0.0784
 5641\C,0,0.20396025,-0.43731003,-0.46927406\C,0,-0.56196323,-1.1615730
 2,0.68770274\C,0,-0.93767866,0.1649153,-1.15885629\C,0,-1.33438766,1.4
 3165193,-0.72856177\N,0,-1.75465259,2.48254966,-0.46671739\H,0,1.79176
 831,1.01699231,-0.72809289\H,0,2.05642127,-0.11627423,0.59776644\H,0,0
 .8902566,1.2037286,0.77973789\H,0,0.62753333,-1.22918755,-1.09144831\H

 Normal termination of Gaussian 16 at Wed Apr  9 16:53:12 2025.
