 Gaussian 16, Revision C.01,

 ----------------------------------------------------------------------
 #t hf aug-cc-pvdz symm=none int=(grid=ultrafine) guess=(read,tcheck) s
 table=(opt,rrhf)
 ----------------------------------------------------------------------
 -----
 title
 -----
 Symbolic Z-matrix:
 Charge =  0 Multiplicity = 1

 SCF Done:  E(RHF) =  -305.607182906     A.U. after   16 cycles
 Normal termination of Gaussian 16 at Wed Apr  9 03:16:08 2025.
 Gaussian 16:  ES64L-G16RevC.01  3-Jul-2019

 ----------------------------------------------------------------------
 #t hf aug-cc-pvdz iop(5/13=1,5/36=2,99/5=2) pseudo=read geom=check gue
 ss=(read,tcheck) scf=(maxcycle=1)
 ----------------------------------------------------------------------
 -----
 title
 -----
 Structure from the checkpoint file:  "Grambow2020_b97d3_006968_reverse_mol1.chk"
 Charge =  0 Multiplicity = 1

                         Standard orientation:
 ---------------------------------------------------------------------
 Center     Atomic      Atomic             Coordinates (Angstroms)
 Number     Number       Type             X           Y           Z
 ---------------------------------------------------------------------
      1          8           0       -2.278732   -0.092126    0.106510
      2          6           0       -0.430058    1.028029    0.097642
      3          6           0        1.150269    1.141732    0.116689
      4          6           0        1.494958   -0.280703   -0.220898
      5          6           0        0.651977   -1.251291    0.479282
      6          8           0       -0.138918   -0.612824   -0.554972
      7          1           0       -2.419022   -0.286772   -0.843205
      8          1           0       -0.902932    1.609089   -0.684393
      9          1           0       -0.883893    1.136266    1.073311
     10          1           0        1.516782    1.840374   -0.646741
     11          1           0        1.541564    1.463806    1.093871
     12          1           0        2.188274   -0.590106   -0.999412
     13          1           0        0.292347   -1.047335    1.491321
     14          1           0        0.805200   -2.312325    0.266658
 ---------------------------------------------------------------------

 SCF Done:  E(RHF) =  -305.924358936     A.U. after    2 cycles

 The electronic state is 1-A.
 Alpha  occ. eigenvalues --  -20.63015 -20.37225 -11.36582 -11.36159 -11.34399
 Alpha  occ. eigenvalues --  -11.29156  -1.50372  -1.19908  -1.09787  -1.02073
 Alpha  occ. eigenvalues --   -0.90300  -0.83301  -0.75569  -0.68973  -0.67293
 Alpha  occ. eigenvalues --   -0.61738  -0.60454  -0.57365  -0.54346  -0.52083
 Alpha  occ. eigenvalues --   -0.47776  -0.43903  -0.30300  -0.28521
 Alpha virt. eigenvalues --    0.01610   0.02855   0.02930   0.04466   0.05867
 Alpha virt. eigenvalues --    0.06234   0.07119   0.07482   0.08993   0.10630
 Alpha virt. eigenvalues --    0.11982   0.12662   0.13173   0.13514   0.13748

 Mulliken charges:
               1
     1  O   -1.111306
     2  C    0.498677
     3  C   -0.494204
     4  C    0.553131
     5  C    0.680833
     6  O   -1.010587
     7  H    0.284191
     8  H    0.081321
     9  H    0.145038
    10  H    0.165981
    11  H    0.218883
    12  H   -0.089191
    13  H    0.065204
    14  H    0.012028
 Sum of Mulliken charges =   0.00000

 Dipole moment (field-independent basis, Debye):
    X=              9.1614    Y=              0.9991    Z=             -0.3551  Tot=              9.2225

 Test job not archived.
 1\1\GINC-SE116\SP\RHF\Aug-CC-pVDZ\C4H8O2\OHZDE\09-Apr-2025\0\\#t hf au
 g-cc-pvdz iop(5/13=1,5/36=2,99/5=2) pseudo=read geom=check guess=(read
 ,tcheck) scf=(maxcycle=1)\\title\\0,1\O,0,1.44982543,1.96471055,0.3589
 2232\C,0,1.0475245,-0.15370274,0.20759712\C,0,0.08692469,-1.39485259,-
 0.0103929\C,0,-1.09970715,-0.67825939,-0.58874951\C,0,-1.39399712,0.58
 033138,0.09845591\O,0,-0.19659817,0.75822679,-0.69993228\H,0,1.5985263
 3,2.22447189,-0.57378285\H,0,1.94182925,-0.17780047,-0.4026968\H,0,1.2
 2145559,0.08179621,1.248702\H,0,0.51066222,-2.11706607,-0.72039998\H,0

 Normal termination of Gaussian 16 at Wed Apr  9 03:16:12 2025.
