 Gaussian 16, Revision C.01,

 ----------------------------------------------------------------------
 #t hf aug-cc-pvdz symm=none int=(grid=ultrafine) guess=(read,tcheck) s
 table=(opt,rrhf)
 ----------------------------------------------------------------------
 -----
 title
 -----
 Symbolic Z-matrix:
 Charge =  0 Multiplicity = 1

 SCF Done:  E(RHF) =  -270.002450152     A.U. after   14 cycles

 1\1\GINC-SE219\Stability\RHF\Aug-CC-pVDZ\C5H10O1\OHZDE\09-Apr-2025\0\\
 #t hf aug-cc-pvdz symm=none int=(grid=ultrafine) guess=(read,tcheck) s
 table=(opt,rrhf)\\title\\0,1\C,0,2.408458,-0.36428269,-0.16505915\C,0,
 1.07818288,0.30227537,-0.51197104\C,0,0.01814709,0.16817635,0.57660153
 \O,0,0.22887592,-0.42307057,1.6314842\C,0,-1.30445485,0.80520503,0.271
 60473\C,0,-2.3336526,0.75226917,1.13474076\H,0,3.13396886,-0.22743429,
 -0.97801544\H,0,2.8279993,0.06022641,0.75585404\H,0,2.27096238,-1.4400
 1012,0.0023346\H,0,0.65386206,-0.11364025,-1.44286458\H,0,1.21039795,1

 Normal termination of Gaussian 16 at Wed Apr  9 15:47:57 2025.
 Gaussian 16:  ES64L-G16RevC.01  3-Jul-2019

 ----------------------------------------------------------------------
 #t hf aug-cc-pvdz iop(5/13=1,5/36=2,99/5=2) pseudo=read geom=check gue
 ss=(read,tcheck) scf=(maxcycle=1)
 ----------------------------------------------------------------------
 -----
 title
 -----
 Structure from the checkpoint file:  "Grambow2020_b97d3_006748_reverse_mol2.chk"
 Charge =  0 Multiplicity = 1

                         Standard orientation:
 ---------------------------------------------------------------------
 Center     Atomic      Atomic             Coordinates (Angstroms)
 Number     Number       Type             X           Y           Z
 ---------------------------------------------------------------------
      1          6           0       -2.495351   -0.068599   -0.012386
      2          6           0       -1.185551    0.615621   -0.400387
      3          6           0        0.059726   -0.196892   -0.060155
      4          8           0        0.000209   -1.299796    0.475399
      5          6           0        1.366665    0.443370   -0.420821
      6          6           0        2.543796   -0.153626   -0.165843
      7          1           0       -3.355368    0.555651   -0.289289
      8          1           0       -2.590218   -1.040254   -0.513575
      9          1           0       -2.531306   -0.252124    1.068882
     10          1           0       -1.086893    1.598519    0.093350
     11          1           0       -1.153617    0.837747   -1.481740
     12          1           0        0.991215    1.901510    2.120039
     13          1           0        1.330183    1.426108   -0.897397
     14          1           0        3.495798    0.310538   -0.423326
     15          1           0        0.598136    2.354620    2.563631
     16          1           0        2.564689   -1.133191    0.313790
 ---------------------------------------------------------------------

 SCF Done:  E(RHF) =  -270.289501739     A.U. after    2 cycles

 The electronic state is 1-A.
 Alpha  occ. eigenvalues --  -20.53158 -11.34188 -11.26963 -11.25588 -11.25133
 Alpha  occ. eigenvalues --  -11.22976  -1.45599  -1.08110  -1.04546  -0.91648
 Alpha  occ. eigenvalues --   -0.82368  -0.73378  -0.68813  -0.64122  -0.63478
 Alpha  occ. eigenvalues --   -0.61303  -0.59623  -0.54893  -0.53459  -0.53112
 Alpha  occ. eigenvalues --   -0.52034  -0.49041  -0.41241  -0.39182
 Alpha virt. eigenvalues --    0.03230   0.03436   0.04481   0.04698   0.05972
 Alpha virt. eigenvalues --    0.06223   0.06366   0.07464   0.07993   0.08613
 Alpha virt. eigenvalues --    0.10042   0.11751   0.13025   0.14027   0.14271

 Mulliken charges:
               1
     1  C   -0.325349
     2  C   -0.685300
     3  C    0.934455
     4  O   -1.452446
     5  C    0.860481
     6  C   -0.034220
     7  H    0.147227
     8  H    0.185189
     9  H    0.188426
    10  H    0.233873
    11  H    0.265480
    12  H   -0.042988
    13  H   -0.236548
    14  H   -0.076954
    15  H    0.053088
    16  H   -0.014412
 Sum of Mulliken charges =   0.00000

 Dipole moment (field-independent basis, Debye):
    X=              0.6363    Y=              2.4939    Z=             -1.2276  Tot=              2.8515

 Test job not archived.
 1\1\GINC-SE219\SP\RHF\Aug-CC-pVDZ\C5H10O1\OHZDE\09-Apr-2025\0\\#t hf a
 ug-cc-pvdz iop(5/13=1,5/36=2,99/5=2) pseudo=read geom=check guess=(rea
 d,tcheck) scf=(maxcycle=1)\\title\\0,1\C,0,2.408458,-0.36428269,-0.165
 05915\C,0,1.07818288,0.30227537,-0.51197104\C,0,0.01814709,0.16817635,
 0.57660153\O,0,0.22887592,-0.42307057,1.6314842\C,0,-1.30445485,0.8052
 0503,0.27160473\C,0,-2.3336526,0.75226917,1.13474076\H,0,3.13396886,-0
 .22743429,-0.97801544\H,0,2.8279993,0.06022641,0.75585404\H,0,2.270962
 38,-1.44001012,0.0023346\H,0,0.65386206,-0.11364025,-1.44286458\H,0,1.

 Normal termination of Gaussian 16 at Wed Apr  9 15:48:02 2025.
