 Gaussian 16, Revision C.01,

 ----------------------------------------------------------------------
 #t hf aug-cc-pvdz symm=none int=(grid=ultrafine) guess=(read,tcheck) s
 table=(opt,rrhf)
 ----------------------------------------------------------------------
 -----
 title
 -----
 Symbolic Z-matrix:
 Charge =  0 Multiplicity = 1

 SCF Done:  E(RHF) =  -307.824295786     A.U. after   15 cycles

 1\1\GINC-SE014\Stability\RHF\Aug-CC-pVDZ\C6H10O1\OHZDE\09-Apr-2025\0\\
 #t hf aug-cc-pvdz symm=none int=(grid=ultrafine) guess=(read,tcheck) s
 table=(opt,rrhf)\\title\\0,1\C,0,2.48558931,0.13848525,0.15940747\C,0,
 1.0138626,0.39936909,0.33179441\C,0,0.07850424,-0.52293128,0.0703591\C
 ,0,-1.41507613,-0.35905224,0.0434372\C,0,-1.98639612,-0.68321135,-1.33
 697728\C,0,0.68980225,1.79868258,0.65428185\O,0,-0.0015142,1.91426713,
 1.75288216\H,0,3.03959845,0.36798697,1.07294499\H,0,2.88931187,0.77733
 043,-0.62809517\H,0,2.66683252,-0.90480799,-0.0990283\H,0,0.43009641,-

 Normal termination of Gaussian 16 at Wed Apr  9 18:35:58 2025.
 Gaussian 16:  ES64L-G16RevC.01  3-Jul-2019

 ----------------------------------------------------------------------
 #t hf aug-cc-pvdz iop(5/13=1,5/36=2,99/5=2) pseudo=read geom=check gue
 ss=(read,tcheck) scf=(maxcycle=1)
 ----------------------------------------------------------------------
 -----
 title
 -----
 Structure from the checkpoint file:  "Grambow2020_wb97xd3_007746_reverse_mol2.chk"
 Charge =  0 Multiplicity = 1

                         Standard orientation:
 ---------------------------------------------------------------------
 Center     Atomic      Atomic             Coordinates (Angstroms)
 Number     Number       Type             X           Y           Z
 ---------------------------------------------------------------------
      1          6           0       -1.880608   -1.518704    0.034538
      2          6           0       -0.848982   -0.423713    0.012187
      3          6           0        0.397279   -0.610839   -0.441353
      4          6           0        1.566689    0.330952   -0.379107
      5          6           0        2.724597   -0.270357    0.417577
      6          6           0       -1.280238    0.815908    0.678859
      7          8           0       -1.204260    1.858093   -0.099780
      8          1           0       -2.797231   -1.211645   -0.475037
      9          1           0       -2.152005   -1.756383    1.064648
     10          1           0       -1.502291   -2.417907   -0.451682
     11          1           0        0.642055   -1.607374   -0.807664
     12          1           0        1.284306    1.288518    0.061473
     13          1           0        1.910421    0.543401   -1.397365
     14          1           0        3.584109    0.401923    0.426418
     15          1           0        2.427597   -0.455559    1.451290
     16          1           0        3.046864   -1.220748   -0.014029
     17          1           0       -0.882164    1.631545   -0.996017
 ---------------------------------------------------------------------

 SCF Done:  E(RHF) =  -308.146726166     A.U. after    2 cycles

 The electronic state is 1-A.
 Alpha  occ. eigenvalues --  -20.61703 -11.30420 -11.25077 -11.24632 -11.24541
 Alpha  occ. eigenvalues --  -11.24033 -11.23262  -1.53562  -1.11693  -1.04519
 Alpha  occ. eigenvalues --   -0.94326  -0.89663  -0.84309  -0.78908  -0.68072
 Alpha  occ. eigenvalues --   -0.65305  -0.63515  -0.59600  -0.58633  -0.56850
 Alpha  occ. eigenvalues --   -0.56621  -0.53842  -0.53531  -0.50336  -0.49635
 Alpha  occ. eigenvalues --   -0.39206  -0.33976
 Alpha virt. eigenvalues --    0.03099   0.03478   0.03676   0.04418   0.05763
 Alpha virt. eigenvalues --    0.06066   0.06394   0.07359   0.07929   0.09185
 Alpha virt. eigenvalues --    0.09414   0.10479   0.12091   0.13496   0.13910

 Mulliken charges:
               1
     1  C   -0.657692
     2  C    0.554406
     3  C    0.539134
     4  C   -0.611490
     5  C   -0.417941
     6  C    0.110617
     7  O   -1.023177
     8  H    0.227606
     9  H    0.271884
    10  H    0.106724
    11  H   -0.288065
    12  H    0.027501
    13  H    0.225045
    14  H    0.111196
    15  H    0.171408
    16  H    0.169841
    17  H    0.483005
 Sum of Mulliken charges =   0.00000

 Dipole moment (field-independent basis, Debye):
    X=              1.4808    Y=             -1.3555    Z=             -2.6880  Tot=              3.3549

 Test job not archived.
 1\1\GINC-SE014\SP\RHF\Aug-CC-pVDZ\C6H10O1\OHZDE\09-Apr-2025\0\\#t hf a
 ug-cc-pvdz iop(5/13=1,5/36=2,99/5=2) pseudo=read geom=check guess=(rea
 d,tcheck) scf=(maxcycle=1)\\title\\0,1\C,0,2.48558931,0.13848525,0.159
 40747\C,0,1.0138626,0.39936909,0.33179441\C,0,0.07850424,-0.52293128,0
 .0703591\C,0,-1.41507613,-0.35905224,0.0434372\C,0,-1.98639612,-0.6832
 1135,-1.33697728\C,0,0.68980225,1.79868258,0.65428185\O,0,-0.0015142,1
 .91426713,1.75288216\H,0,3.03959845,0.36798697,1.07294499\H,0,2.889311
 87,0.77733043,-0.62809517\H,0,2.66683252,-0.90480799,-0.0990283\H,0,0.

 Normal termination of Gaussian 16 at Wed Apr  9 18:36:05 2025.
