 Gaussian 16, Revision C.01,

 ----------------------------------------------------------------------
 #t hf aug-cc-pvdz symm=none int=(grid=ultrafine) guess=(read,tcheck) s
 table=(opt,rrhf)
 ----------------------------------------------------------------------
 -----
 title
 -----
 Symbolic Z-matrix:
 Charge =  0 Multiplicity = 1

 SCF Done:  E(RHF) =  -381.871859542     A.U. after   12 cycles

 1\1\GINC-SE118\Stability\RHF\Aug-CC-pVDZ\C4H10O3\OHZDE\09-Apr-2025\0\\
 #t hf aug-cc-pvdz symm=none int=(grid=ultrafine) guess=(read,tcheck) s
 table=(opt,rrhf)\\title\\0,1\C,0,3.16084829,0.6747723,0.71703929\O,0,1
 .97155153,-0.05516199,0.90451533\C,0,-0.40447887,-0.25056389,-1.415382
 58\C,0,-1.012486,-0.6377239,-0.15169124\O,0,-0.46556538,0.6727272,-0.3
 2049373\C,0,-2.50672452,-0.67552331,0.04279758\O,0,-3.18949476,0.21063
 936,-0.80682608\H,0,3.98503129,0.05986914,1.07934348\H,0,3.16224045,1.
 6146088,1.28113036\H,0,3.34577931,0.9039891,-0.33947223\H,0,-1.0436606

 Normal termination of Gaussian 16 at Wed Apr  9 19:13:05 2025.
 Gaussian 16:  ES64L-G16RevC.01  3-Jul-2019

 ----------------------------------------------------------------------
 #t hf aug-cc-pvdz iop(5/13=1,5/36=2,99/5=2) pseudo=read geom=check gue
 ss=(read,tcheck) scf=(maxcycle=1)
 ----------------------------------------------------------------------
 -----
 title
 -----
 Structure from the checkpoint file:  "Grambow2020_wb97xd3_008924_reverse_mol2.chk"
 Charge =  0 Multiplicity = 1

                         Standard orientation:
 ---------------------------------------------------------------------
 Center     Atomic      Atomic             Coordinates (Angstroms)
 Number     Number       Type             X           Y           Z
 ---------------------------------------------------------------------
      1          6           0       -3.582482    0.065274   -0.240252
      2          8           0       -2.392306   -0.585780    0.136559
      3          6           0        0.455721    1.044469    0.681226
      4          6           0        0.800019   -0.353935    0.475293
      5          8           0        0.161204    0.394710   -0.562178
      6          6           0        2.205226   -0.797041    0.157403
      7          8           0        2.958656    0.199344   -0.485155
      8          1           0       -4.392483   -0.360711    0.352271
      9          1           0       -3.818516   -0.085727   -1.299959
     10          1           0       -3.546868    1.143593   -0.042979
     11          1           0        1.235370    1.795144    0.619442
     12          1           0       -0.416995    1.290742    1.276997
     13          1           0        0.159736   -1.107358    0.928856
     14          1           0       -1.654751   -0.214260   -0.365312
     15          1           0        2.155322   -1.711078   -0.448881
     16          1           0        2.721942   -1.045154    1.086969
     17          1           0        2.465909    0.476016   -1.263232
 ---------------------------------------------------------------------

 SCF Done:  E(RHF) =  -382.267939243     A.U. after    2 cycles

 The electronic state is 1-A.
 Alpha  occ. eigenvalues --  -20.57833 -20.55653 -20.52962 -11.30534 -11.30124
 Alpha  occ. eigenvalues --  -11.29905 -11.27280  -1.51776  -1.46042  -1.43299
 Alpha  occ. eigenvalues --   -1.01577  -0.93468  -0.91927  -0.83293  -0.74363
 Alpha  occ. eigenvalues --   -0.71214  -0.67842  -0.65972  -0.62169  -0.61301
 Alpha  occ. eigenvalues --   -0.58951  -0.58704  -0.55171  -0.51749  -0.49752
 Alpha  occ. eigenvalues --   -0.48623  -0.45475  -0.44260  -0.43017
 Alpha virt. eigenvalues --    0.03743   0.03970   0.04093   0.04393   0.06006
 Alpha virt. eigenvalues --    0.06302   0.06606   0.07489   0.07886   0.09755
 Alpha virt. eigenvalues --    0.10928   0.12034   0.14097   0.14472   0.14878

 Mulliken charges:
               1
     1  C    0.438630
     2  O   -1.102836
     3  C    0.577844
     4  C    0.665986
     5  O   -1.303594
     6  C    0.657591
     7  O   -1.147481
     8  H   -0.008963
     9  H    0.097567
    10  H    0.080725
    11  H   -0.040862
    12  H   -0.015236
    13  H   -0.058899
    14  H    0.509158
    15  H    0.165641
    16  H    0.150563
    17  H    0.334165
 Sum of Mulliken charges =  -0.00000

 Dipole moment (field-independent basis, Debye):
    X=             -0.1787    Y=              0.6063    Z=              0.3558  Tot=              0.7253

 Test job not archived.
 1\1\GINC-SE118\SP\RHF\Aug-CC-pVDZ\C4H10O3\OHZDE\09-Apr-2025\0\\#t hf a
 ug-cc-pvdz iop(5/13=1,5/36=2,99/5=2) pseudo=read geom=check guess=(rea
 d,tcheck) scf=(maxcycle=1)\\title\\0,1\C,0,3.16084829,0.6747723,0.7170
 3929\O,0,1.97155153,-0.05516199,0.90451533\C,0,-0.40447887,-0.25056389
 ,-1.41538258\C,0,-1.012486,-0.6377239,-0.15169124\O,0,-0.46556538,0.67
 27272,-0.32049373\C,0,-2.50672452,-0.67552331,0.04279758\O,0,-3.189494
 76,0.21063936,-0.80682608\H,0,3.98503129,0.05986914,1.07934348\H,0,3.1
 6224045,1.6146088,1.28113036\H,0,3.34577931,0.9039891,-0.33947223\H,0,

 Normal termination of Gaussian 16 at Wed Apr  9 19:13:10 2025.
