 Gaussian 16, Revision C.01,

 ----------------------------------------------------------------------
 #t hf aug-cc-pvdz symm=none int=(grid=ultrafine) guess=(read,tcheck) s
 table=(opt,rrhf)
 ----------------------------------------------------------------------
 -----
 title
 -----
 Symbolic Z-matrix:
 Charge =  0 Multiplicity = 1

 SCF Done:  E(RHF) =  -344.759681557     A.U. after   14 cycles

 1\1\GINC-SE367\Stability\RHF\Aug-CC-pVDZ\C5H10O2\OHZDE\09-Apr-2025\0\\
 #t hf aug-cc-pvdz symm=none int=(grid=ultrafine) guess=(read,tcheck) s
 table=(opt,rrhf)\\title\\0,1\C,0,1.77174773,-0.09398324,-1.03273584\C,
 0,0.91082989,0.20225292,0.17777798\O,0,0.24366702,1.44643652,0.0262667
 4\C,0,-1.15180156,1.29916354,0.25457397\C,0,-1.4661105,-0.14090004,-0.
 10275865\C,0,-0.19902781,-0.85818189,0.32064393\O,0,0.02737958,-2.1307
 0049,0.07026271\H,0,2.5149421,0.69447988,-1.15058402\H,0,1.16603386,-0
 .13474608,-1.93915596\H,0,2.27354421,-1.05320335,-0.90904018\H,0,1.529

 Normal termination of Gaussian 16 at Wed Apr  9 03:39:35 2025.
 Gaussian 16:  ES64L-G16RevC.01  3-Jul-2019

 ----------------------------------------------------------------------
 #t hf aug-cc-pvdz iop(5/13=1,5/36=2,99/5=2) pseudo=read geom=check gue
 ss=(read,tcheck) scf=(maxcycle=1)
 ----------------------------------------------------------------------
 -----
 title
 -----
 Structure from the checkpoint file:  "Grambow2020_wb97xd3_007408_forward_mol1.chk"
 Charge =  0 Multiplicity = 1

                         Standard orientation:
 ---------------------------------------------------------------------
 Center     Atomic      Atomic             Coordinates (Angstroms)
 Number     Number       Type             X           Y           Z
 ---------------------------------------------------------------------
      1          6           0        1.364838    1.429173   -0.419234
      2          6           0        0.369024    0.726423    0.480086
      3          8           0       -0.952922    1.164344    0.203071
      4          6           0       -1.812909    0.054787   -0.021545
      5          6           0       -0.913651   -1.049519   -0.543181
      6          6           0        0.377410   -0.791182    0.208940
      7          8           0        1.495995   -1.441681   -0.033699
      8          1           0        1.306071    2.504892   -0.254081
      9          1           0        1.147561    1.229496   -1.469505
     10          1           0        2.374475    1.081193   -0.203025
     11          1           0        0.609809    0.922812    1.530022
     12          1           0       -2.582185    0.364469   -0.728172
     13          1           0       -2.305174   -0.243940    0.913585
     14          1           0       -1.287051   -2.063133   -0.418050
     15          1           0       -0.663777   -0.897681   -1.597792
     16          1           0       -0.035137   -1.265778    1.512209
     17          1           0        0.782557   -1.631730    1.129429
 ---------------------------------------------------------------------

 SCF Done:  E(RHF) =  -345.120465399     A.U. after    2 cycles

 The electronic state is 1-A.
 Alpha  occ. eigenvalues --  -20.55504 -20.49902 -11.37460 -11.30215 -11.30030
 Alpha  occ. eigenvalues --  -11.25519 -11.22822  -1.48328  -1.43594  -1.08092
 Alpha  occ. eigenvalues --   -1.05435  -0.92918  -0.85355  -0.79833  -0.75273
 Alpha  occ. eigenvalues --   -0.68429  -0.66344  -0.64007  -0.60734  -0.57762
 Alpha  occ. eigenvalues --   -0.56175  -0.54606  -0.53811  -0.52440  -0.51012
 Alpha  occ. eigenvalues --   -0.42889  -0.39375  -0.39278
 Alpha virt. eigenvalues --    0.02813   0.03376   0.04051   0.04488   0.05878
 Alpha virt. eigenvalues --    0.06180   0.06553   0.06828   0.08781   0.09707
 Alpha virt. eigenvalues --    0.11217   0.11989   0.13063   0.13612   0.14215

 Mulliken charges:
               1
     1  C   -0.279627
     2  C    0.899080
     3  O   -1.509631
     4  C    0.751878
     5  C   -0.325381
     6  C    0.532948
     7  O   -1.603813
     8  H    0.181880
     9  H    0.187062
    10  H    0.230680
    11  H    0.075365
    12  H    0.054006
    13  H    0.064181
    14  H    0.178359
    15  H    0.201431
    16  H    0.318440
    17  H    0.043143
 Sum of Mulliken charges =  -0.00000

 Dipole moment (field-independent basis, Debye):
    X=             -2.4012    Y=             -0.0811    Z=              0.9295  Tot=              2.5761

 Test job not archived.
 1\1\GINC-SE367\SP\RHF\Aug-CC-pVDZ\C5H10O2\OHZDE\09-Apr-2025\0\\#t hf a
 ug-cc-pvdz iop(5/13=1,5/36=2,99/5=2) pseudo=read geom=check guess=(rea
 d,tcheck) scf=(maxcycle=1)\\title\\0,1\C,0,1.77174773,-0.09398324,-1.0
 3273584\C,0,0.91082989,0.20225292,0.17777798\O,0,0.24366702,1.44643652
 ,0.02626674\C,0,-1.15180156,1.29916354,0.25457397\C,0,-1.4661105,-0.14
 090004,-0.10275865\C,0,-0.19902781,-0.85818189,0.32064393\O,0,0.027379
 58,-2.13070049,0.07026271\H,0,2.5149421,0.69447988,-1.15058402\H,0,1.1
 6603386,-0.13474608,-1.93915596\H,0,2.27354421,-1.05320335,-0.90904018

 Normal termination of Gaussian 16 at Wed Apr  9 03:39:40 2025.
