 Gaussian 16, Revision C.01,

 ----------------------------------------------------------------------
 #t hf aug-cc-pvdz symm=none int=(grid=ultrafine) guess=(read,tcheck) s
 table=(opt,rrhf)
 ----------------------------------------------------------------------
 -----
 title
 -----
 Symbolic Z-matrix:
 Charge =  0 Multiplicity = 1

 SCF Done:  E(RHF) =  -289.121143455     A.U. after   14 cycles

 1\1\GINC-SE186\Stability\RHF\Aug-CC-pVDZ\C6H13N1\OHZDE\09-Apr-2025\0\\
 #t hf aug-cc-pvdz symm=none int=(grid=ultrafine) guess=(read,tcheck) s
 table=(opt,rrhf)\\title\\0,1\C,0,-1.11579086,1.83597959,0.66698891\C,0
 ,-0.41083317,0.50706212,0.74267385\N,0,-0.02711763,-0.20388532,-0.5057
 4476\C,0,-0.40915496,-1.60998731,-0.62270962\C,0,1.03256392,0.33032271
 ,0.49661402\C,0,1.71635538,-0.75528886,1.28543569\C,0,-0.08870139,0.48
 956161,-1.78812769\H,0,-2.13050263,1.75187428,0.26748898\H,0,-1.191744
 12,2.2347684,1.68064818\H,0,-0.54668174,2.55364533,0.07855716\H,0,-0.9

 Normal termination of Gaussian 16 at Wed Apr  9 04:05:20 2025.
 Gaussian 16:  ES64L-G16RevC.01  3-Jul-2019

 ----------------------------------------------------------------------
 #t hf aug-cc-pvdz iop(5/13=1,5/36=2,99/5=2) pseudo=read geom=check gue
 ss=(read,tcheck) scf=(maxcycle=1)
 ----------------------------------------------------------------------
 -----
 title
 -----
 Structure from the checkpoint file:  "Grambow2020_wb97xd3_009128_reverse_mol2.chk"
 Charge =  0 Multiplicity = 1

                         Standard orientation:
 ---------------------------------------------------------------------
 Center     Atomic      Atomic             Coordinates (Angstroms)
 Number     Number       Type             X           Y           Z
 ---------------------------------------------------------------------
      1          6           0        1.882659   -1.172042    0.294369
      2          6           0        0.442827   -0.755380    0.442669
      3          7           0        0.003209    0.583946   -0.030803
      4          6           0       -0.767588    1.406037    0.900216
      5          6           0       -0.521508   -0.729586   -0.672934
      6          6           0       -1.953647   -1.039727   -0.324865
      7          6           0        0.886859    1.387145   -0.869373
      8          1           0        2.555351   -0.597533    0.937594
      9          1           0        1.961237   -2.221028    0.587216
     10          1           0        2.211729   -1.099397   -0.740821
     11          1           0        0.077227   -0.903119    1.467397
     12          1           0       -1.411783    2.079914    0.332483
     13          1           0       -1.386143    0.780166    1.535365
     14          1           0       -0.096048    1.997066    1.527119
     15          1           0       -2.141705   -2.069969   -0.634989
     16          1           0       -2.235702   -0.979645    0.742166
     17          1           0       -2.649249   -0.419505   -0.895922
     18          1           0        1.340097    0.743380   -1.614961
     19          1           0        1.650676    1.885390   -0.264978
     20          1           0        0.284236    2.137976   -1.382536
 ---------------------------------------------------------------------

 SCF Done:  E(RHF) =  -289.438930507     A.U. after    2 cycles

 The electronic state is 1-A.
 Alpha  occ. eigenvalues --  -15.56667 -11.27833 -11.26848 -11.26188 -11.22456
 Alpha  occ. eigenvalues --  -11.20257 -11.19170  -1.30598  -1.06210  -0.99951
 Alpha  occ. eigenvalues --   -0.97548  -0.93201  -0.80836  -0.76630  -0.69551
 Alpha  occ. eigenvalues --   -0.66901  -0.63702  -0.58844  -0.58130  -0.57131
 Alpha  occ. eigenvalues --   -0.56503  -0.55081  -0.54643  -0.52944  -0.50890
 Alpha  occ. eigenvalues --   -0.45958  -0.42467  -0.28121
 Alpha virt. eigenvalues --    0.03157   0.03855   0.03984   0.04579   0.05364
 Alpha virt. eigenvalues --    0.05538   0.05828   0.05952   0.06742   0.08978
 Alpha virt. eigenvalues --    0.09382   0.09835   0.10201   0.12083   0.13729

 Mulliken charges:
               1
     1  C   -0.624311
     2  C   -0.312854
     3  N    1.042841
     4  C   -0.353588
     5  C   -0.821685
     6  C   -0.352411
     7  C   -0.169232
     8  H    0.249764
     9  H    0.142151
    10  H    0.217749
    11  H   -0.252814
    12  H    0.148060
    13  H    0.054911
    14  H    0.156118
    15  H    0.108505
    16  H    0.151911
    17  H    0.187377
    18  H    0.138894
    19  H    0.171139
    20  H    0.117474
 Sum of Mulliken charges =  -0.00000

 Dipole moment (field-independent basis, Debye):
    X=              0.9450    Y=              2.5033    Z=              2.5663  Tot=              3.7075

 Test job not archived.
 1\1\GINC-SE186\SP\RHF\Aug-CC-pVDZ\C6H13N1\OHZDE\09-Apr-2025\0\\#t hf a
 ug-cc-pvdz iop(5/13=1,5/36=2,99/5=2) pseudo=read geom=check guess=(rea
 d,tcheck) scf=(maxcycle=1)\\title\\0,1\C,0,-1.11579086,1.83597959,0.66
 698891\C,0,-0.41083317,0.50706212,0.74267385\N,0,-0.02711763,-0.203885
 32,-0.50574476\C,0,-0.40915496,-1.60998731,-0.62270962\C,0,1.03256392,
 0.33032271,0.49661402\C,0,1.71635538,-0.75528886,1.28543569\C,0,-0.088
 70139,0.48956161,-1.78812769\H,0,-2.13050263,1.75187428,0.26748898\H,0
 ,-1.19174412,2.2347684,1.68064818\H,0,-0.54668174,2.55364533,0.0785571

 Normal termination of Gaussian 16 at Wed Apr  9 04:05:29 2025.
