 Gaussian 16, Revision C.01,

 ----------------------------------------------------------------------
 #t hf aug-cc-pvdz symm=none int=(grid=ultrafine) guess=(read,tcheck) s
 table=(opt,rrhf)
 ----------------------------------------------------------------------
 -----
 title
 -----
 Symbolic Z-matrix:
 Charge =  0 Multiplicity = 1

 SCF Done:  E(RHF) =  -299.514598505     A.U. after   16 cycles
 Normal termination of Gaussian 16 at Wed Apr  9 16:17:40 2025.
 Gaussian 16:  ES64L-G16RevC.01  3-Jul-2019

 ----------------------------------------------------------------------
 #t hf aug-cc-pvdz iop(5/13=1,5/36=2,99/5=2) pseudo=read geom=check gue
 ss=(read,tcheck) scf=(maxcycle=1)
 ----------------------------------------------------------------------
 -----
 title
 -----
 Structure from the checkpoint file:  "Grambow2020_b97d3_007184_forward_mol1.chk"
 Charge =  0 Multiplicity = 1

                         Standard orientation:
 ---------------------------------------------------------------------
 Center     Atomic      Atomic             Coordinates (Angstroms)
 Number     Number       Type             X           Y           Z
 ---------------------------------------------------------------------
      1          6           0       -2.067913    0.046264   -0.139714
      2          6           0       -0.667643   -0.231752    0.125188
      3          7           0        0.160325   -1.250679    0.076127
      4          8           0        1.508692   -0.550986   -0.059598
      5          6           0        1.255081    0.750048   -0.051041
      6          7           0       -0.014045    1.017712    0.126504
      7          1           0       -2.647531   -0.725212   -0.650800
      8          1           0       -2.601599    0.490384    0.708828
      9          1           0       -1.029441    1.440347   -0.378851
     10          1           0        2.067924    1.445771   -0.227405
 ---------------------------------------------------------------------

 SCF Done:  E(RHF) =  -299.813426105     A.U. after    2 cycles

 The electronic state is 1-A.
 Alpha  occ. eigenvalues --  -20.65696 -15.58421 -15.57553 -11.43332 -11.34642
 Alpha  occ. eigenvalues --  -11.20703  -1.57805  -1.32252  -1.19331  -1.01556
 Alpha  occ. eigenvalues --   -0.91845  -0.82863  -0.79488  -0.71030  -0.65135
 Alpha  occ. eigenvalues --   -0.64423  -0.59181  -0.56712  -0.54327  -0.52919
 Alpha  occ. eigenvalues --   -0.47552  -0.31773
 Alpha virt. eigenvalues --    0.02264   0.04399   0.05035   0.05829   0.06204
 Alpha virt. eigenvalues --    0.08240   0.08493   0.09728   0.11728   0.12327
 Alpha virt. eigenvalues --    0.13125   0.13982   0.14762   0.15603   0.16982

 Mulliken charges:
               1
     1  C   -0.122115
     2  C   -1.502308
     3  N    1.154163
     4  O   -1.250788
     5  C    0.550403
     6  N    0.488180
     7  H   -0.011280
     8  H    0.095390
     9  H    0.486125
    10  H    0.112229
 Sum of Mulliken charges =   0.00000

 Dipole moment (field-independent basis, Debye):
    X=              2.5661    Y=              3.9306    Z=             -0.0983  Tot=              4.6951

 Test job not archived.
 1\1\GINC-SE174\SP\RHF\Aug-CC-pVDZ\C3H4N2O1\OHZDE\09-Apr-2025\0\\#t hf
 aug-cc-pvdz iop(5/13=1,5/36=2,99/5=2) pseudo=read geom=check guess=(re
 ad,tcheck) scf=(maxcycle=1)\\title\\0,1\C,0,-1.66943067,-0.07344694,-0
 .09797216\C,0,-0.26930066,-0.42476812,-0.25427784\N,0,0.51174658,-0.98
 212254,-1.15175717\O,0,1.87828326,-0.42648774,-0.76454339\C,0,1.679635
 16,0.34413675,0.29553088\N,0,0.43453479,0.3384159,0.69993291\H,0,-2.30
 805123,-0.14056178,-0.98114918\H,0,-2.13620195,-0.49456183,0.80028936\
 H,0,-0.58904555,0.97630925,0.80194884\H,0,2.50951026,0.91934206,0.6908

 Normal termination of Gaussian 16 at Wed Apr  9 16:17:43 2025.
