 Gaussian 16, Revision C.01,

 ----------------------------------------------------------------------
 #t hf aug-cc-pvdz symm=none int=(grid=ultrafine) guess=(read,tcheck) s
 table=(opt,rrhf)
 ----------------------------------------------------------------------
 -----
 title
 -----
 Symbolic Z-matrix:
 Charge =  0 Multiplicity = 1

 SCF Done:  E(RHF) =  -360.871389873     A.U. after   14 cycles
 Normal termination of Gaussian 16 at Wed Apr  9 19:08:01 2025.
 Gaussian 16:  ES64L-G16RevC.01  3-Jul-2019

 ----------------------------------------------------------------------
 #t hf aug-cc-pvdz iop(5/13=1,5/36=2,99/5=2) pseudo=read geom=check gue
 ss=(read,tcheck) scf=(maxcycle=1)
 ----------------------------------------------------------------------
 -----
 title
 -----
 Structure from the checkpoint file:  "Grambow2020_wb97xd3_008625_reverse_mol1.chk"
 Charge =  0 Multiplicity = 1

                         Standard orientation:
 ---------------------------------------------------------------------
 Center     Atomic      Atomic             Coordinates (Angstroms)
 Number     Number       Type             X           Y           Z
 ---------------------------------------------------------------------
      1          6           0       -2.407991   -0.802266    0.609781
      2          6           0       -1.697110    0.024242   -0.443618
      3          6           0       -1.116194    1.247080   -0.105104
      4          8           0        0.833293    1.090994    0.136550
      5          6           0        1.303266   -0.061984   -0.068946
      6          8           0        0.686361   -0.987649   -0.684027
      7          7           0        2.538833   -0.348134    0.419881
      8          1           0       -3.434822   -0.465463    0.776082
      9          1           0       -2.450176   -1.854731    0.324266
     10          1           0       -1.880956   -0.748984    1.565159
     11          1           0       -0.531220   -0.561714   -0.659786
     12          1           0       -2.101314   -0.028629   -1.453379
     13          1           0       -0.952252    2.000979   -0.862164
     14          1           0       -1.149276    1.620755    0.910614
     15          1           0        2.976222   -1.201464    0.125405
     16          1           0        3.102903    0.406992    0.761772
 ---------------------------------------------------------------------

 SCF Done:  E(RHF) =  -361.244879074     A.U. after    2 cycles

 The electronic state is 1-A.
 Alpha  occ. eigenvalues --  -20.51831 -20.51595 -15.51421 -11.39326 -11.32649
 Alpha  occ. eigenvalues --  -11.22729 -11.20692  -1.50521  -1.40583  -1.21001
 Alpha  occ. eigenvalues --   -1.08291  -0.94448  -0.83619  -0.81482  -0.74799
 Alpha  occ. eigenvalues --   -0.69725  -0.67449  -0.64298  -0.62585  -0.60216
 Alpha  occ. eigenvalues --   -0.59572  -0.54323  -0.53067  -0.50663  -0.45915
 Alpha  occ. eigenvalues --   -0.45255  -0.43434  -0.34715
 Alpha virt. eigenvalues --    0.03482   0.03725   0.04337   0.04502   0.06314
 Alpha virt. eigenvalues --    0.06507   0.06721   0.07462   0.09120   0.09946
 Alpha virt. eigenvalues --    0.12053   0.13634   0.13990   0.14897   0.15264

 Mulliken charges:
               1
     1  C   -0.335282
     2  C   -0.396619
     3  C    0.339109
     4  O   -1.260321
     5  C    0.814005
     6  O   -1.492795
     7  N    0.819011
     8  H    0.159211
     9  H    0.152465
    10  H    0.121632
    11  H    0.951068
    12  H    0.011735
    13  H   -0.056238
    14  H   -0.023109
    15  H    0.092041
    16  H    0.104088
 Sum of Mulliken charges =  -0.00000

 Dipole moment (field-independent basis, Debye):
    X=             -0.1495    Y=              1.1672    Z=              0.4993  Tot=              1.2783

 Test job not archived.
 1\1\GINC-SE173\SP\RHF\Aug-CC-pVDZ\C4H9N1O2\OHZDE\09-Apr-2025\0\\#t hf
 aug-cc-pvdz iop(5/13=1,5/36=2,99/5=2) pseudo=read geom=check guess=(re
 ad,tcheck) scf=(maxcycle=1)\\title\\0,1\C,0,-2.09545687,-0.4991706,-0.
 57162922\C,0,-1.25632838,0.5785003,0.08609884\C,0,-0.53980586,0.299925
 16,1.25073549\O,0,1.3673048,-0.02742531,0.87786632\C,0,1.69771516,0.08
 221785,-0.33509253\O,0,0.99055138,0.65776042,-1.2207683\N,0,2.87310629
 ,-0.47240977,-0.73296667\H,0,-3.07757201,-0.60247205,-0.10231715\H,0,-
 2.25823632,-0.28307421,-1.62888387\H,0,-1.59530334,-1.46868575,-0.5147

 Normal termination of Gaussian 16 at Wed Apr  9 19:08:07 2025.
