 Gaussian 16, Revision C.01,

 ----------------------------------------------------------------------
 #t hf aug-cc-pvdz symm=none int=(grid=ultrafine) guess=(read,tcheck) s
 table=(opt,rrhf)
 ----------------------------------------------------------------------
 -----
 title
 -----
 Symbolic Z-matrix:
 Charge =  0 Multiplicity = 1

 SCF Done:  E(RHF) =  -359.792617045     A.U. after   14 cycles
 Normal termination of Gaussian 16 at Wed Apr  9 19:21:01 2025.
 Gaussian 16:  ES64L-G16RevC.01  3-Jul-2019

 ----------------------------------------------------------------------
 #t hf aug-cc-pvdz iop(5/13=1,5/36=2,99/5=2) pseudo=read geom=check gue
 ss=(read,tcheck) scf=(maxcycle=1)
 ----------------------------------------------------------------------
 -----
 title
 -----
 Structure from the checkpoint file:  "Grambow2020_wb97xd3_009385_forward_mol2.chk"
 Charge =  0 Multiplicity = 1

                         Standard orientation:
 ---------------------------------------------------------------------
 Center     Atomic      Atomic             Coordinates (Angstroms)
 Number     Number       Type             X           Y           Z
 ---------------------------------------------------------------------
      1          6           0       -0.769698    1.605236   -0.000147
      2          7           0       -0.286937    0.230346    0.000613
      3          6           0       -1.199036   -0.805770    0.000581
      4          8           0       -2.392234   -0.659671   -0.000425
      5          6           0        1.096607    0.038699   -0.000029
      6          8           0        1.827347    0.997697    0.000065
      7          6           0        1.635483   -1.371623   -0.000539
      8          1           0       -1.854971    1.575971   -0.002178
      9          1           0       -0.407574    2.128535    0.883352
     10          1           0       -0.405189    2.127426   -0.883238
     11          1           0       -0.733934   -1.800036    0.001555
     12          1           0        1.319611   -1.921642    0.886921
     13          1           0        2.719427   -1.299558   -0.005598
     14          1           0        1.310146   -1.926582   -0.881420
 ---------------------------------------------------------------------

 SCF Done:  E(RHF) =  -360.155945254     A.U. after    2 cycles

 The electronic state is 1-A.
 Alpha  occ. eigenvalues --  -20.54511 -20.54178 -15.56297 -11.38624 -11.38327
 Alpha  occ. eigenvalues --  -11.27290 -11.26979  -1.50112  -1.49067  -1.28495
 Alpha  occ. eigenvalues --   -1.05309  -0.98326  -0.92279  -0.79778  -0.73309
 Alpha  occ. eigenvalues --   -0.69839  -0.69136  -0.64238  -0.62685  -0.61859
 Alpha  occ. eigenvalues --   -0.59843  -0.56682  -0.56130  -0.53038  -0.46641
 Alpha  occ. eigenvalues --   -0.44427  -0.43348
 Alpha virt. eigenvalues --    0.02889   0.04438   0.04473   0.04746   0.06142
 Alpha virt. eigenvalues --    0.06504   0.07393   0.07972   0.10318   0.11893
 Alpha virt. eigenvalues --    0.12042   0.12843   0.13326   0.13461   0.14749

 Mulliken charges:
               1
     1  C   -0.210702
     2  N    0.889952
     3  C    0.640996
     4  O   -1.100069
     5  C    0.467681
     6  O   -1.241218
     7  C   -0.483057
     8  H    0.016866
     9  H    0.182324
    10  H    0.182458
    11  H    0.000248
    12  H    0.321917
    13  H    0.012046
    14  H    0.320559
 Sum of Mulliken charges =  -0.00000

 Dipole moment (field-independent basis, Debye):
    X=              1.2653    Y=             -1.9558    Z=              0.0010  Tot=              2.3294

 Test job not archived.
 1\1\GINC-SE041\SP\RHF\Aug-CC-pVDZ\C4H7N1O2\OHZDE\09-Apr-2025\0\\#t hf
 aug-cc-pvdz iop(5/13=1,5/36=2,99/5=2) pseudo=read geom=check guess=(re
 ad,tcheck) scf=(maxcycle=1)\\title\\0,1\C,0,-1.70636426,-0.79305664,-0
 .32325742\N,0,-0.51783054,-0.03214439,0.03975905\C,0,-0.65301422,1.104
 20597,0.81169887\O,0,-1.70186342,1.52694227,1.2194711\C,0,0.71143374,-
 0.50756509,-0.42263437\O,0,0.74486567,-1.5092087,-1.09289659\C,0,1.966
 0136,0.25296562,-0.06623696\H,0,-2.56605711,-0.29434799,0.11365882\H,0
 ,-1.80523846,-0.83663827,-1.40671088\H,0,-1.62764325,-1.81038062,0.056

 Normal termination of Gaussian 16 at Wed Apr  9 19:21:05 2025.
