 Gaussian 16, Revision C.01,

 ----------------------------------------------------------------------
 #t hf aug-cc-pvdz symm=none int=(grid=ultrafine) guess=(read,tcheck) s
 table=(opt,rrhf)
 ----------------------------------------------------------------------
 -----
 title
 -----
 Symbolic Z-matrix:
 Charge =  0 Multiplicity = 1

 SCF Done:  E(RHF) =  -306.521695056     A.U. after   17 cycles
 Normal termination of Gaussian 16 at Wed Apr  9 18:54:54 2025.
 Gaussian 16:  ES64L-G16RevC.01  3-Jul-2019

 ----------------------------------------------------------------------
 #t hf aug-cc-pvdz iop(5/13=1,5/36=2,99/5=2) pseudo=read geom=check gue
 ss=(read,tcheck) scf=(maxcycle=1)
 ----------------------------------------------------------------------
 -----
 title
 -----
 Structure from the checkpoint file:  "Grambow2020_wb97xd3_008224_forward_mol1.chk"
 Charge =  0 Multiplicity = 1

                         Standard orientation:
 ---------------------------------------------------------------------
 Center     Atomic      Atomic             Coordinates (Angstroms)
 Number     Number       Type             X           Y           Z
 ---------------------------------------------------------------------
      1          6           0       -1.621632    0.806927   -0.414056
      2          8           0       -1.770420   -0.598617   -0.172603
      3          6           0       -0.572031   -0.590366    0.652672
      4          6           0        0.559350   -1.043068   -0.209044
      5          6           0        1.838611   -0.499635   -0.156652
      6          6           0        2.093583    0.840954   -0.072539
      7          6           0       -0.384181    0.848537    0.436574
      8          1           0       -1.557106    1.060836   -1.475699
      9          1           0       -2.454000    1.361379    0.038749
     10          1           0       -0.731581   -1.092500    1.611043
     11          1           0        0.339021   -1.897840   -0.847207
     12          1           0        2.679818   -1.194370   -0.203430
     13          1           0        3.037944    1.217034    0.311199
     14          1           0        1.473187    1.536289   -0.612597
     15          1           0       -0.106121    1.618017    1.137038
 ---------------------------------------------------------------------

 SCF Done:  E(RHF) =  -306.841004060     A.U. after    2 cycles

 The electronic state is 1-A.
 Alpha  occ. eigenvalues --  -20.54455 -11.30166 -11.29618 -11.26841 -11.25817
 Alpha  occ. eigenvalues --  -11.24929 -11.24282  -1.47401  -1.10892  -1.01849
 Alpha  occ. eigenvalues --   -0.97544  -0.89070  -0.77319  -0.74184  -0.71031
 Alpha  occ. eigenvalues --   -0.67412  -0.64984  -0.61597  -0.59705  -0.56219
 Alpha  occ. eigenvalues --   -0.53757  -0.50024  -0.48483  -0.43366  -0.36936
 Alpha  occ. eigenvalues --   -0.27272
 Alpha virt. eigenvalues --    0.03265   0.03645   0.04081   0.04149   0.04947
 Alpha virt. eigenvalues --    0.05654   0.06060   0.06735   0.07680   0.10543
 Alpha virt. eigenvalues --    0.11434   0.12250   0.12758   0.13930   0.14530

 Mulliken charges:
               1
     1  C    0.430030
     2  O   -1.361891
     3  C    1.122595
     4  C   -0.021291
     5  C    0.505895
     6  C   -0.171429
     7  C   -0.203681
     8  H    0.052392
     9  H    0.061853
    10  H    0.000922
    11  H   -0.132242
    12  H   -0.140901
    13  H   -0.107518
    14  H    0.080073
    15  H   -0.114805
 Sum of Mulliken charges =   0.00000

 Dipole moment (field-independent basis, Debye):
    X=              0.8117    Y=              1.1973    Z=              0.6103  Tot=              1.5700

 Test job not archived.
 1\1\GINC-SE114\SP\RHF\Aug-CC-pVDZ\C6H8O1\OHZDE\09-Apr-2025\0\\#t hf au
 g-cc-pvdz iop(5/13=1,5/36=2,99/5=2) pseudo=read geom=check guess=(read
 ,tcheck) scf=(maxcycle=1)\\title\\0,1\C,0,-1.61612544,-0.85988873,-0.7
 174087\O,0,-0.77506333,-1.93768007,-0.28500465\C,0,-0.11630758,-1.0519
 4879,0.66304771\C,0,1.14043736,-0.57154751,0.01704109\C,0,1.62455478,0
 .72704079,0.13481697\C,0,0.84024083,1.84323778,0.04416218\C,0,-0.95888
 075,0.07765943,0.25502228\H,0,-1.54938742,-0.66045711,-1.79048456\H,0,
 -2.66213913,-1.06355239,-0.45347502\H,0,-0.05395758,-1.4943684,1.66126

 Normal termination of Gaussian 16 at Wed Apr  9 18:54:59 2025.
