 Gaussian 16, Revision C.01,

 ----------------------------------------------------------------------
 #t hf aug-cc-pvdz symm=none int=(grid=ultrafine) guess=(read,tcheck) s
 table=(opt,rrhf)
 ----------------------------------------------------------------------
 -----
 title
 -----
 Symbolic Z-matrix:
 Charge =  0 Multiplicity = 1

 SCF Done:  E(RHF) =  -306.648668235     A.U. after   15 cycles
 Normal termination of Gaussian 16 at Wed Apr  9 04:05:47 2025.
 Gaussian 16:  ES64L-G16RevC.01  3-Jul-2019

 ----------------------------------------------------------------------
 #t hf aug-cc-pvdz iop(5/13=1,5/36=2,99/5=2) pseudo=read geom=check gue
 ss=(read,tcheck) scf=(maxcycle=1)
 ----------------------------------------------------------------------
 -----
 title
 -----
 Structure from the checkpoint file:  "Grambow2020_wb97xd3_009216_reverse_mol2.chk"
 Charge =  0 Multiplicity = 1

                         Standard orientation:
 ---------------------------------------------------------------------
 Center     Atomic      Atomic             Coordinates (Angstroms)
 Number     Number       Type             X           Y           Z
 ---------------------------------------------------------------------
      1          6           0        2.342326   -1.416049   -0.273269
      2          6           0        1.805851   -0.239040   -0.077393
      3          6           0        1.287108    0.901303    0.118086
      4          6           0        0.731881    2.067875    0.316173
      5          6           0       -1.663805   -0.465357   -0.455618
      6          6           0       -1.690653   -1.087944    0.905737
      7          8           0       -2.091599    0.627125   -0.715512
      8          1           0        1.786284   -2.216236   -0.749346
      9          1           0       -0.671469   -1.351121    1.200054
     10          1           0        3.361973   -1.626174    0.029013
     11          1           0        1.280083    2.874913    0.788576
     12          1           0       -0.292582    2.250981    0.009130
     13          1           0       -1.214213   -1.090133   -1.255351
     14          1           0       -2.265474   -2.017220    0.866689
     15          1           0       -2.128058   -0.406752    1.633039
 ---------------------------------------------------------------------

 SCF Done:  E(RHF) =  -306.964604231     A.U. after    2 cycles

 The electronic state is 1-A.
 Alpha  occ. eigenvalues --  -20.54397 -11.34252 -11.26996 -11.26721 -11.26619
 Alpha  occ. eigenvalues --  -11.26368 -11.24590  -1.47917  -1.09894  -1.02436
 Alpha  occ. eigenvalues --   -1.02280  -0.90770  -0.80432  -0.70269  -0.68036
 Alpha  occ. eigenvalues --   -0.66619  -0.64152  -0.62865  -0.61662  -0.60412
 Alpha  occ. eigenvalues --   -0.56206  -0.50420  -0.48975  -0.41779  -0.38644
 Alpha  occ. eigenvalues --   -0.34777
 Alpha virt. eigenvalues --    0.03149   0.03758   0.04028   0.04422   0.05660
 Alpha virt. eigenvalues --    0.06240   0.06428   0.07660   0.07730   0.09924
 Alpha virt. eigenvalues --    0.11526   0.12151   0.12622   0.12977   0.13769

 Mulliken charges:
               1
     1  C   -0.276104
     2  C    0.320706
     3  C    0.351273
     4  C   -0.210066
     5  C    1.022879
     6  C   -0.598925
     7  O   -1.119374
     8  H   -0.072798
     9  H    0.219040
    10  H   -0.056539
    11  H   -0.048610
    12  H   -0.025626
    13  H    0.137019
    14  H    0.209007
    15  H    0.148118
 Sum of Mulliken charges =  -0.00000

 Dipole moment (field-independent basis, Debye):
    X=              0.8839    Y=             -2.2084    Z=              1.0831  Tot=              2.6137

 Test job not archived.
 1\1\GINC-SE105\SP\RHF\Aug-CC-pVDZ\C6H8O1\OHZDE\09-Apr-2025\0\\#t hf au
 g-cc-pvdz iop(5/13=1,5/36=2,99/5=2) pseudo=read geom=check guess=(read
 ,tcheck) scf=(maxcycle=1)\\title\\0,1\C,0,2.01504687,-0.46410785,-1.72
 241645\C,0,1.55048696,0.39428877,-0.85128898\C,0,1.10328972,1.223642,-
 0.00283459\C,0,0.62206919,2.06853681,0.87065595\C,0,-1.83648839,-0.256
 55273,-0.27026216\C,0,-1.38717605,-1.40341064,0.58088883\O,0,-2.351175
 45,0.7449155,0.14953356\H,0,1.34863719,-1.06182056,-2.33460039\H,0,-0.
 32294266,-1.58294705,0.40827869\H,0,3.0812314,-0.60020329,-1.86360567\

 Normal termination of Gaussian 16 at Wed Apr  9 04:05:52 2025.
