 Gaussian 16, Revision C.01,

 ----------------------------------------------------------------------
 #t hf aug-cc-pvdz symm=none int=(grid=ultrafine) guess=(read,tcheck) s
 table=(opt,rrhf)
 ----------------------------------------------------------------------
 -----
 title
 -----
 Symbolic Z-matrix:
 Charge =  0 Multiplicity = 1

 SCF Done:  E(RHF) =  -284.662804127     A.U. after   15 cycles
 Normal termination of Gaussian 16 at Wed Apr  9 03:07:22 2025.
 Gaussian 16:  ES64L-G16RevC.01  3-Jul-2019

 ----------------------------------------------------------------------
 #t hf aug-cc-pvdz iop(5/13=1,5/36=2,99/5=2) pseudo=read geom=check gue
 ss=(read,tcheck) scf=(maxcycle=1)
 ----------------------------------------------------------------------
 -----
 title
 -----
 Structure from the checkpoint file:  "Grambow2020_b97d3_006560_reverse_mol1.chk"
 Charge =  0 Multiplicity = 1

                         Standard orientation:
 ---------------------------------------------------------------------
 Center     Atomic      Atomic             Coordinates (Angstroms)
 Number     Number       Type             X           Y           Z
 ---------------------------------------------------------------------
      1          8           0        1.617674   -0.758206   -0.301344
      2          6           0        1.021351    0.224157    0.333532
      3          6           0        0.067431    1.222462   -0.490511
      4          7           0       -1.183013    0.574686    0.141592
      5          6           0       -1.137109   -0.926570   -0.451745
      6          6           0       -0.357411   -0.152380    0.987175
      7          1           0       -0.058208   -1.387452   -0.480427
      8          1           0        1.624006    0.776928    1.105009
      9          1           0        0.112591    1.130552   -1.579895
     10          1           0        0.072040    2.275516   -0.177874
     11          1           0       -1.271019   -0.714563   -1.517754
     12          1           0       -1.956134   -1.517383   -0.040757
     13          1           0       -0.749145   -0.726755    1.840609
 ---------------------------------------------------------------------

 SCF Done:  E(RHF) =  -284.957399847     A.U. after    2 cycles

 The electronic state is 1-A.
 Alpha  occ. eigenvalues --  -20.42624 -15.58187 -11.37859 -11.31708 -11.30178
 Alpha  occ. eigenvalues --  -11.28305  -1.36609  -1.31064  -1.01397  -0.94345
 Alpha  occ. eigenvalues --   -0.92604  -0.78361  -0.73270  -0.67132  -0.65880
 Alpha  occ. eigenvalues --   -0.59948  -0.58535  -0.54383  -0.52930  -0.52800
 Alpha  occ. eigenvalues --   -0.50353  -0.34495  -0.33286
 Alpha virt. eigenvalues --    0.02557   0.03272   0.04094   0.05110   0.05420
 Alpha virt. eigenvalues --    0.06326   0.06639   0.07093   0.10271   0.10875
 Alpha virt. eigenvalues --    0.12356   0.13143   0.13459   0.14308   0.14694

 Mulliken charges:
               1
     1  O   -1.577549
     2  C    1.557966
     3  C   -0.186743
     4  N    0.430138
     5  C   -0.517864
     6  C   -0.711368
     7  H    0.531493
     8  H    0.167255
     9  H    0.019244
    10  H   -0.004979
    11  H    0.213982
    12  H    0.085260
    13  H   -0.006833
 Sum of Mulliken charges =  -0.00000

 Dipole moment (field-independent basis, Debye):
    X=             -4.4505    Y=              0.7769    Z=              1.5033  Tot=              4.7613

 Test job not archived.
 1\1\GINC-SE106\SP\RHF\Aug-CC-pVDZ\C4H7N1O1\OHZDE\09-Apr-2025\0\\#t hf
 aug-cc-pvdz iop(5/13=1,5/36=2,99/5=2) pseudo=read geom=check guess=(re
 ad,tcheck) scf=(maxcycle=1)\\title\\0,1\O,0,-1.51297394,-0.90885732,0.
 8463095\C,0,-1.26999391,0.0073324,-0.06213058\C,0,-0.31291311,1.244266
 07,0.31152063\N,0,0.8209274,0.6474018,-0.54925646\C,0,1.17641198,-0.71
 71715,0.23782439\C,0,-0.06400854,-0.31324197,-1.01755934\H,0,0.2321006
 ,-1.29087851,0.63329625\H,0,-2.13341169,0.33628912,-0.70261754\H,0,-0.
 0599116,1.34511752,1.37126683\H,0,-0.57060934,2.21567825,-0.13191688\H

 Normal termination of Gaussian 16 at Wed Apr  9 03:07:26 2025.
