 Gaussian 16, Revision C.01,

 ----------------------------------------------------------------------
 #t hf aug-cc-pvdz symm=none int=(grid=ultrafine) guess=(read,tcheck) s
 table=(opt,rrhf)
 ----------------------------------------------------------------------
 -----
 title
 -----
 Symbolic Z-matrix:
 Charge =  0 Multiplicity = 1

 SCF Done:  E(RHF) =  -284.809718682     A.U. after   15 cycles
 Normal termination of Gaussian 16 at Wed Apr  9 03:21:35 2025.
 Gaussian 16:  ES64L-G16RevC.01  3-Jul-2019

 ----------------------------------------------------------------------
 #t hf aug-cc-pvdz iop(5/13=1,5/36=2,99/5=2) pseudo=read geom=check gue
 ss=(read,tcheck) scf=(maxcycle=1)
 ----------------------------------------------------------------------
 -----
 title
 -----
 Structure from the checkpoint file:  "Grambow2020_wb97xd3_006088_reverse_mol2.chk"
 Charge =  0 Multiplicity = 1

                         Standard orientation:
 ---------------------------------------------------------------------
 Center     Atomic      Atomic             Coordinates (Angstroms)
 Number     Number       Type             X           Y           Z
 ---------------------------------------------------------------------
      1          6           0        1.587224   -1.188611    0.168120
      2          6           0        1.837391    0.211413   -0.296365
      3          7           0        0.840911    1.044390   -0.115129
      4          6           0       -0.482150    0.814320    0.467546
      5          6           0       -1.358398   -0.078677   -0.390610
      6          8           0       -2.329007   -0.638201    0.029324
      7          1           0        0.709754   -1.392717    0.794582
      8          1           0        2.479934   -1.546554    0.683028
      9          1           0        1.515038   -1.805816   -0.733841
     10          1           0       -0.420232    0.392509    1.470759
     11          1           0        0.995307    1.986918   -0.438929
     12          1           0       -0.992186    1.776956    0.555728
     13          1           0       -1.046338   -0.167082   -1.452166
 ---------------------------------------------------------------------

 SCF Done:  E(RHF) =  -285.100882101     A.U. after    2 cycles

 The electronic state is 1-A.
 Alpha  occ. eigenvalues --  -20.56549 -15.55828 -11.35931 -11.30304 -11.26041
 Alpha  occ. eigenvalues --  -11.23516  -1.50164  -1.27924  -1.04599  -0.99670
 Alpha  occ. eigenvalues --   -0.85640  -0.81619  -0.74126  -0.67585  -0.66888
 Alpha  occ. eigenvalues --   -0.64129  -0.59906  -0.58277  -0.55414  -0.52885
 Alpha  occ. eigenvalues --   -0.50526  -0.43226  -0.34867
 Alpha virt. eigenvalues --    0.02836   0.04157   0.04407   0.05305   0.05724
 Alpha virt. eigenvalues --    0.06344   0.06970   0.09468   0.09891   0.10316
 Alpha virt. eigenvalues --    0.12163   0.13047   0.13150   0.13974   0.14983

 Mulliken charges:
               1
     1  C   -0.212939
     2  C   -0.841804
     3  N    0.754625
     4  C   -0.810998
     5  C    1.142721
     6  O   -1.155737
     7  H    0.091767
     8  H    0.111136
     9  H    0.219140
    10  H    0.164339
    11  H    0.257245
    12  H    0.147831
    13  H    0.132674
 Sum of Mulliken charges =  -0.00000

 Dipole moment (field-independent basis, Debye):
    X=             -0.3437    Y=              1.5809    Z=              0.3759  Tot=              1.6610

 Test job not archived.
 1\1\GINC-SE174\SP\RHF\Aug-CC-pVDZ\C4H7N1O1\OHZDE\09-Apr-2025\0\\#t hf
 aug-cc-pvdz iop(5/13=1,5/36=2,99/5=2) pseudo=read geom=check guess=(re
 ad,tcheck) scf=(maxcycle=1)\\title\\0,1\C,0,-1.06617172,-0.49313987,1.
 29798841\C,0,-1.50648025,-0.59916221,-0.12794421\N,0,-0.55774568,-0.43
 060645,-1.01741634\C,0,0.86659098,-0.14917743,-0.83034766\C,0,1.125916
 25,1.23347168,-0.26226328\O,0,2.16081833,1.54413478,0.25150623\H,0,0.0
 0748077,-0.48848754,1.5245189\H,0,-1.54396352,-1.29165113,1.86744463\H
 ,0,-1.50258963,0.43233541,1.68878514\H,0,1.3506136,-0.89062834,-0.1946

 Normal termination of Gaussian 16 at Wed Apr  9 03:21:38 2025.
