 Gaussian 16, Revision C.01,

 ----------------------------------------------------------------------
 #t hf aug-cc-pvdz symm=none int=(grid=ultrafine) guess=(read,tcheck) s
 table=(opt,rrhf)
 ----------------------------------------------------------------------
 -----
 title
 -----
 Symbolic Z-matrix:
 Charge =  0 Multiplicity = 1

 SCF Done:  E(RHF) =  -344.868081836     A.U. after   13 cycles

 1\1\GINC-SE014\Stability\RHF\Aug-CC-pVDZ\C5H10O2\OHZDE\09-Apr-2025\0\\
 #t hf aug-cc-pvdz symm=none int=(grid=ultrafine) guess=(read,tcheck) s
 table=(opt,rrhf)\\title\\0,1\O,0,0.75923859,-1.34031387,2.25920081\C,0
 ,1.89160631,0.03819878,-0.83885086\C,0,0.65301585,-0.20898609,-1.23799
 054\C,0,-0.59266855,0.47654557,-0.7742342\C,0,-1.593306,-0.41821079,-0
 .01474005\O,0,-1.38188764,0.31358034,1.20490605\C,0,-0.55472302,1.2810
 2256,0.53240329\H,0,-0.04082045,-0.80918053,2.14580917\H,0,2.72936453,
 -0.51335096,-1.24663166\H,0,2.12374887,0.80058598,-0.10398388\H,0,1.17

 Normal termination of Gaussian 16 at Wed Apr  9 18:25:53 2025.
 Gaussian 16:  ES64L-G16RevC.01  3-Jul-2019

 ----------------------------------------------------------------------
 #t hf aug-cc-pvdz iop(5/13=1,5/36=2,99/5=2) pseudo=read geom=check gue
 ss=(read,tcheck) scf=(maxcycle=1)
 ----------------------------------------------------------------------
 -----
 title
 -----
 Structure from the checkpoint file:  "Grambow2020_wb97xd3_007552_reverse_mol2.chk"
 Charge =  0 Multiplicity = 1

                         Standard orientation:
 ---------------------------------------------------------------------
 Center     Atomic      Atomic             Coordinates (Angstroms)
 Number     Number       Type             X           Y           Z
 ---------------------------------------------------------------------
      1          8           0        0.678818    2.459400   -0.167587
      2          6           0       -2.207125    0.400152    0.292101
      3          6           0       -1.536728   -0.460900   -0.458683
      4          6           0       -0.291240   -1.198770   -0.083103
      5          6           0        0.959621   -0.845256   -0.913205
      6          8           0        1.603976   -0.263609    0.233200
      7          6           0        0.541228   -0.694149    1.103606
      8          1           0        1.208688    1.669419    0.006260
      9          1           0       -3.108029    0.875979   -0.074358
     10          1           0       -1.896949    0.657654    1.298400
     11          1           0       -0.202500    2.123156   -0.345058
     12          1           0       -1.909014   -0.685027   -1.456409
     13          1           0       -0.500251   -2.269686   -0.056314
     14          1           0        0.813919   -0.112079   -1.710915
     15          1           0        1.523124   -1.699253   -1.297118
     16          1           0        0.880869   -1.473497    1.789608
     17          1           0        0.133258    0.140550    1.676716
 ---------------------------------------------------------------------

 SCF Done:  E(RHF) =  -345.229991034     A.U. after    2 cycles

 The electronic state is 1-A.
 Alpha  occ. eigenvalues --  -20.55723 -20.52479 -11.30202 -11.30088 -11.26311
 Alpha  occ. eigenvalues --  -11.26244 -11.24987  -1.48558  -1.40795  -1.10617
 Alpha  occ. eigenvalues --   -1.00733  -0.95768  -0.84092  -0.75674  -0.72166
 Alpha  occ. eigenvalues --   -0.69858  -0.67836  -0.65765  -0.61437  -0.59097
 Alpha  occ. eigenvalues --   -0.58448  -0.54986  -0.53011  -0.49854  -0.48182
 Alpha  occ. eigenvalues --   -0.46764  -0.42955  -0.39110
 Alpha virt. eigenvalues --    0.02763   0.03396   0.03578   0.04765   0.05529
 Alpha virt. eigenvalues --    0.06106   0.07064   0.07650   0.08527   0.09919
 Alpha virt. eigenvalues --    0.11125   0.11382   0.12520   0.13624   0.13779

 Mulliken charges:
               1
     1  O   -1.031400
     2  C   -0.119437
     3  C    0.620461
     4  C   -0.580339
     5  C    0.831655
     6  O   -1.292400
     7  C    0.898625
     8  H    0.613674
     9  H   -0.128209
    10  H   -0.115374
    11  H    0.423583
    12  H   -0.187718
    13  H    0.008022
    14  H    0.036395
    15  H   -0.024793
    16  H    0.015537
    17  H    0.031717
 Sum of Mulliken charges =   0.00000

 Dipole moment (field-independent basis, Debye):
    X=             -2.2247    Y=             -3.7022    Z=             -0.2537  Tot=              4.3266

 Test job not archived.
 1\1\GINC-SE014\SP\RHF\Aug-CC-pVDZ\C5H10O2\OHZDE\09-Apr-2025\0\\#t hf a
 ug-cc-pvdz iop(5/13=1,5/36=2,99/5=2) pseudo=read geom=check guess=(rea
 d,tcheck) scf=(maxcycle=1)\\title\\0,1\O,0,0.75923859,-1.34031387,2.25
 920081\C,0,1.89160631,0.03819878,-0.83885086\C,0,0.65301585,-0.2089860
 9,-1.23799054\C,0,-0.59266855,0.47654557,-0.7742342\C,0,-1.593306,-0.4
 1821079,-0.01474005\O,0,-1.38188764,0.31358034,1.20490605\C,0,-0.55472
 302,1.28102256,0.53240329\H,0,-0.04082045,-0.80918053,2.14580917\H,0,2
 .72936453,-0.51335096,-1.24663166\H,0,2.12374887,0.80058598,-0.1039838

 Normal termination of Gaussian 16 at Wed Apr  9 18:25:59 2025.
