 Gaussian 16, Revision C.01,

 ----------------------------------------------------------------------
 #t hf aug-cc-pvdz symm=none int=(grid=ultrafine) guess=(read,tcheck) s
 table=(opt,rrhf)
 ----------------------------------------------------------------------
 -----
 title
 -----
 Symbolic Z-matrix:
 Charge =  0 Multiplicity = 1

 SCF Done:  E(RHF) =  -286.817940583     A.U. after   14 cycles
 Normal termination of Gaussian 16 at Wed Apr  9 18:29:57 2025.
 Gaussian 16:  ES64L-G16RevC.01  3-Jul-2019

 ----------------------------------------------------------------------
 #t hf aug-cc-pvdz iop(5/13=1,5/36=2,99/5=2) pseudo=read geom=check gue
 ss=(read,tcheck) scf=(maxcycle=1)
 ----------------------------------------------------------------------
 -----
 title
 -----
 Structure from the checkpoint file:  "Grambow2020_wb97xd3_007638_reverse_mol2.chk"
 Charge =  0 Multiplicity = 1

                         Standard orientation:
 ---------------------------------------------------------------------
 Center     Atomic      Atomic             Coordinates (Angstroms)
 Number     Number       Type             X           Y           Z
 ---------------------------------------------------------------------
      1          6           0        1.984469   -0.673678    0.002876
      2          6           0        0.666402    0.066860   -0.000490
      3          6           0        0.807110    1.568399    0.021605
      4          6           0       -0.431119   -0.677787    0.773983
      5          6           0       -1.716824    0.054036    0.559120
      6          7           0       -1.698546    0.139406   -0.718907
      7          6           0       -0.429124   -0.640329   -0.736965
      8          1           0        1.838475   -1.755560   -0.021943
      9          1           0        2.558447   -0.430042    0.899655
     10          1           0        2.582876   -0.392318   -0.866187
     11          1           0        1.304111    1.889022    0.939804
     12          1           0        1.416826    1.897066   -0.823006
     13          1           0       -0.212944   -1.495480    1.445622
     14          1           0       -2.451819    0.503160    1.223737
     15          1           0       -0.155986    2.070977   -0.047106
     16          1           0       -0.275644   -1.447676   -1.438994
 ---------------------------------------------------------------------

 SCF Done:  E(RHF) =  -287.122201172     A.U. after    2 cycles

 The electronic state is 1-A.
 Alpha  occ. eigenvalues --  -15.49639 -11.28700 -11.26690 -11.26516 -11.24220
 Alpha  occ. eigenvalues --  -11.23632 -11.22597  -1.30388  -1.11696  -0.98262
 Alpha  occ. eigenvalues --   -0.94737  -0.89470  -0.76599  -0.73608  -0.69953
 Alpha  occ. eigenvalues --   -0.65087  -0.62922  -0.60373  -0.55787  -0.55145
 Alpha  occ. eigenvalues --   -0.54786  -0.50498  -0.48809  -0.46426  -0.41743
 Alpha  occ. eigenvalues --   -0.37178
 Alpha virt. eigenvalues --    0.03389   0.03635   0.03935   0.04097   0.05310
 Alpha virt. eigenvalues --    0.05898   0.06703   0.07691   0.08758   0.09502
 Alpha virt. eigenvalues --    0.10586   0.11642   0.12717   0.13345   0.14125

 Mulliken charges:
               1
     1  C   -0.347557
     2  C   -0.078364
     3  C   -0.627314
     4  C    0.779652
     5  C   -0.518395
     6  N    0.688423
     7  C   -0.446924
     8  H    0.073306
     9  H    0.248794
    10  H    0.218854
    11  H    0.218071
    12  H    0.216418
    13  H   -0.284950
    14  H   -0.095628
    15  H    0.215409
    16  H   -0.259795
 Sum of Mulliken charges =   0.00000

 Dipole moment (field-independent basis, Debye):
    X=              1.9503    Y=             -0.8689    Z=              2.1217  Tot=              3.0101

 Test job not archived.
 1\1\GINC-SE168\SP\RHF\Aug-CC-pVDZ\C6H9N1\OHZDE\09-Apr-2025\0\\#t hf au
 g-cc-pvdz iop(5/13=1,5/36=2,99/5=2) pseudo=read geom=check guess=(read
 ,tcheck) scf=(maxcycle=1)\\title\\0,1\C,0,1.582702,-0.47620112,0.64792
 844\C,0,0.29563651,-0.09748939,-0.04902739\C,0,0.48503108,0.38690644,-
 1.4647939\C,0,-0.73650831,0.51509474,0.90924212\C,0,-2.0140951,0.68837
 711,0.15259557\N,0,-2.12866576,-0.48936119,-0.3381003\C,0,-0.89344892,
 -0.89537331,0.3893186\H,0,1.40095934,-0.82866465,1.66534538\H,0,2.2558
 4622,0.3822552,0.70225587\H,0,2.09420217,-1.27052868,0.10026352\H,0,1.

 Normal termination of Gaussian 16 at Wed Apr  9 18:30:03 2025.
