 Gaussian 16, Revision C.01,

 ----------------------------------------------------------------------
 #t hf aug-cc-pvdz symm=none int=(grid=ultrafine) guess=(read,tcheck) s
 table=(opt,rrhf)
 ----------------------------------------------------------------------
 -----
 title
 -----
 Symbolic Z-matrix:
 Charge =  0 Multiplicity = 1

 SCF Done:  E(RHF) =  -318.734810464     A.U. after   14 cycles
 Normal termination of Gaussian 16 at Wed Apr  9 18:01:07 2025.
 Gaussian 16:  ES64L-G16RevC.01  3-Jul-2019

 ----------------------------------------------------------------------
 #t hf aug-cc-pvdz iop(5/13=1,5/36=2,99/5=2) pseudo=read geom=check gue
 ss=(read,tcheck) scf=(maxcycle=1)
 ----------------------------------------------------------------------
 -----
 title
 -----
 Structure from the checkpoint file:  "Grambow2020_wb97xd3_006935_reverse_mol2.chk"
 Charge =  0 Multiplicity = 1

                         Standard orientation:
 ---------------------------------------------------------------------
 Center     Atomic      Atomic             Coordinates (Angstroms)
 Number     Number       Type             X           Y           Z
 ---------------------------------------------------------------------
      1          7           0       -2.961900    0.475202   -0.003345
      2          6           0       -1.680282    0.382701    0.364402
      3          6           0        1.831514    1.161888   -0.398029
      4          6           0        1.208703   -0.040911   -0.111846
      5          7           0        2.639373   -0.062101    0.172847
      6          6           0        0.291283   -0.988159    0.031183
      7          7           0       -1.087594   -0.712918   -0.118328
      8          1           0       -3.440678   -0.185493   -0.607935
      9          1           0       -3.501114    1.255236    0.317781
     10          1           0        1.766196    1.962087    0.334168
     11          1           0        3.279422   -0.503976   -0.468774
     12          1           0        2.888510   -0.148535    1.149435
     13          1           0        0.570497   -1.998579    0.301142
     14          1           0       -1.599292   -1.375132   -0.698294
 ---------------------------------------------------------------------

 SCF Done:  E(RHF) =  -319.066482521     A.U. after    2 cycles

 The electronic state is 1-A.
 Alpha  occ. eigenvalues --  -15.58486 -15.51870 -15.51108 -11.28390 -11.25802
 Alpha  occ. eigenvalues --  -11.25490 -11.22497  -1.30620  -1.27182  -1.17841
 Alpha  occ. eigenvalues --   -1.01779  -0.95865  -0.86303  -0.78630  -0.76693
 Alpha  occ. eigenvalues --   -0.74894  -0.71735  -0.68185  -0.64315  -0.56325
 Alpha  occ. eigenvalues --   -0.54568  -0.52576  -0.46597  -0.40620  -0.35687
 Alpha  occ. eigenvalues --   -0.28482
 Alpha virt. eigenvalues --    0.02611   0.03468   0.04441   0.05268   0.05667
 Alpha virt. eigenvalues --    0.06131   0.07913   0.09935   0.11014   0.11274
 Alpha virt. eigenvalues --    0.11853   0.13079   0.13645   0.14330   0.14936

 Mulliken charges:
               1
     1  N    0.626831
     2  C   -0.919979
     3  C   -0.641070
     4  C   -0.400102
     5  N    0.549542
     6  C   -0.102091
     7  N    0.530486
     8  H   -0.041937
     9  H    0.067384
    10  H   -0.018795
    11  H    0.226253
    12  H    0.204563
    13  H   -0.178592
    14  H    0.097507
 Sum of Mulliken charges =  -0.00000

 Dipole moment (field-independent basis, Debye):
    X=              0.2183    Y=             -3.3681    Z=              0.6622  Tot=              3.4395

 Test job not archived.
 1\1\GINC-SE045\SP\RHF\Aug-CC-pVDZ\C4H7N3\OHZDE\09-Apr-2025\0\\#t hf au
 g-cc-pvdz iop(5/13=1,5/36=2,99/5=2) pseudo=read geom=check guess=(read
 ,tcheck) scf=(maxcycle=1)\\title\\0,1\N,0,-3.02012662,0.02175373,-0.15
 505974\C,0,-1.72865615,-0.2487761,-0.36779254\C,0,1.50950463,-1.247125
 58,1.06005792\C,0,1.15745699,-0.16142595,0.27657979\N,0,2.57601154,-0.
 48955967,0.18521902\C,0,0.45829753,0.79626216,-0.31790067\N,0,-0.95365
 877,0.83312184,-0.25132195\H,0,-3.3870988,0.93376347,0.09958916\H,0,-3
 .68775404,-0.72034118,-0.23184515\H,0,1.32288466,-2.24439358,0.6710512

 Normal termination of Gaussian 16 at Wed Apr  9 18:01:14 2025.
