 Gaussian 16, Revision C.01,

 ----------------------------------------------------------------------
 #t hf aug-cc-pvdz symm=none int=(grid=ultrafine) guess=(read,tcheck) s
 table=(opt,rrhf)
 ----------------------------------------------------------------------
 -----
 title
 -----
 Symbolic Z-matrix:
 Charge =  0 Multiplicity = 1

 SCF Done:  E(RHF) =  -344.773605215     A.U. after   15 cycles

 1\1\GINC-SE112\Stability\RHF\Aug-CC-pVDZ\C5H10O2\OHZDE\09-Apr-2025\0\\
 #t hf aug-cc-pvdz symm=none int=(grid=ultrafine) guess=(read,tcheck) s
 table=(opt,rrhf)\\title\\0,1\C,0,2.09476349,0.41051326,-0.63897488\C,0
 ,1.01237271,-0.55212816,-0.18937605\C,0,0.37308959,-0.13421514,1.13906
 491\O,0,-0.82172312,-0.91120336,1.19006525\C,0,-1.58265587,-0.77830871
 ,0.08620231\C,0,-2.27377547,0.53275708,-0.07355304\O,0,-0.0155323,-0.5
 6351685,-1.15365268\H,0,2.53388326,0.07245384,-1.57665558\H,0,2.888296
 93,0.47929191,0.10819739\H,0,1.67231693,1.40472394,-0.79569439\H,0,1.4

 Normal termination of Gaussian 16 at Wed Apr  9 18:07:54 2025.
 Gaussian 16:  ES64L-G16RevC.01  3-Jul-2019

 ----------------------------------------------------------------------
 #t hf aug-cc-pvdz iop(5/13=1,5/36=2,99/5=2) pseudo=read geom=check gue
 ss=(read,tcheck) scf=(maxcycle=1)
 ----------------------------------------------------------------------
 -----
 title
 -----
 Structure from the checkpoint file:  "Grambow2020_wb97xd3_007112_reverse_mol1.chk"
 Charge =  0 Multiplicity = 1

                         Standard orientation:
 ---------------------------------------------------------------------
 Center     Atomic      Atomic             Coordinates (Angstroms)
 Number     Number       Type             X           Y           Z
 ---------------------------------------------------------------------
      1          6           0       -2.338011   -0.391134    0.466240
      2          6           0       -1.157108    0.085172   -0.357767
      3          6           0       -0.304299    1.118771    0.385522
      4          8           0        0.908151    1.148354   -0.364798
      5          6           0        1.451589   -0.072828   -0.533863
      6          6           0        2.053150   -0.691158    0.681807
      7          8           0       -0.320684   -1.015452   -0.632666
      8          1           0       -2.926453   -1.111775   -0.100124
      9          1           0       -2.985458    0.445616    0.737078
     10          1           0       -1.988162   -0.875039    1.379979
     11          1           0       -1.508645    0.537929   -1.293377
     12          1           0       -0.137102    0.815294    1.423799
     13          1           0       -0.725855    2.122412    0.362595
     14          1           0        0.584781   -0.753478   -1.288746
     15          1           0        1.601126   -0.400626    1.633337
     16          1           0        2.056145   -1.775165    0.585860
     17          1           0        3.097970   -0.361329    0.687689
 ---------------------------------------------------------------------

 SCF Done:  E(RHF) =  -345.133133873     A.U. after    2 cycles

 The electronic state is 1-A.
 Alpha  occ. eigenvalues --  -20.57636 -20.54219 -11.32749 -11.30162 -11.29028
 Alpha  occ. eigenvalues --  -11.23842 -11.23215  -1.52272  -1.42352  -1.06837
 Alpha  occ. eigenvalues --   -1.01311  -0.94971  -0.82478  -0.80620  -0.73533
 Alpha  occ. eigenvalues --   -0.68025  -0.64685  -0.62781  -0.59026  -0.58149
 Alpha  occ. eigenvalues --   -0.57158  -0.55050  -0.54561  -0.52399  -0.49659
 Alpha  occ. eigenvalues --   -0.47170  -0.43425  -0.34187
 Alpha virt. eigenvalues --    0.03508   0.03736   0.04172   0.04609   0.05961
 Alpha virt. eigenvalues --    0.06259   0.06800   0.07314   0.07938   0.09760
 Alpha virt. eigenvalues --    0.09924   0.12063   0.13002   0.13674   0.13880

 Mulliken charges:
               1
     1  C   -0.319634
     2  C    0.451553
     3  C    0.604109
     4  O   -1.365832
     5  C    0.271461
     6  C   -0.297578
     7  O   -1.532836
     8  H    0.144633
     9  H    0.216272
    10  H    0.194278
    11  H    0.124590
    12  H    0.169346
    13  H    0.016845
    14  H    0.749749
    15  H    0.152068
    16  H    0.217026
    17  H    0.203951
 Sum of Mulliken charges =  -0.00000

 Dipole moment (field-independent basis, Debye):
    X=             -0.9105    Y=              0.8783    Z=              1.9188  Tot=              2.2983

 Test job not archived.
 1\1\GINC-SE112\SP\RHF\Aug-CC-pVDZ\C5H10O2\OHZDE\09-Apr-2025\0\\#t hf a
 ug-cc-pvdz iop(5/13=1,5/36=2,99/5=2) pseudo=read geom=check guess=(rea
 d,tcheck) scf=(maxcycle=1)\\title\\0,1\C,0,2.09476349,0.41051326,-0.63
 897488\C,0,1.01237271,-0.55212816,-0.18937605\C,0,0.37308959,-0.134215
 14,1.13906491\O,0,-0.82172312,-0.91120336,1.19006525\C,0,-1.58265587,-
 0.77830871,0.08620231\C,0,-2.27377547,0.53275708,-0.07355304\O,0,-0.01
 55323,-0.56351685,-1.15365268\H,0,2.53388326,0.07245384,-1.57665558\H,
 0,2.88829693,0.47929191,0.10819739\H,0,1.67231693,1.40472394,-0.795694

 Normal termination of Gaussian 16 at Wed Apr  9 18:08:00 2025.
