 Gaussian 16, Revision C.01,

 ----------------------------------------------------------------------
 #t hf aug-cc-pvdz symm=none int=(grid=ultrafine) guess=(read,tcheck) s
 table=(opt,rrhf)
 ----------------------------------------------------------------------
 -----
 title
 -----
 Symbolic Z-matrix:
 Charge =  0 Multiplicity = 1

 SCF Done:  E(RHF) =  -323.760748222     A.U. after   15 cycles
 Normal termination of Gaussian 16 at Wed Apr  9 18:49:48 2025.
 Gaussian 16:  ES64L-G16RevC.01  3-Jul-2019

 ----------------------------------------------------------------------
 #t hf aug-cc-pvdz iop(5/13=1,5/36=2,99/5=2) pseudo=read geom=check gue
 ss=(read,tcheck) scf=(maxcycle=1)
 ----------------------------------------------------------------------
 -----
 title
 -----
 Structure from the checkpoint file:  "Grambow2020_wb97xd3_008093_forward_mol1.chk"
 Charge =  0 Multiplicity = 1

                         Standard orientation:
 ---------------------------------------------------------------------
 Center     Atomic      Atomic             Coordinates (Angstroms)
 Number     Number       Type             X           Y           Z
 ---------------------------------------------------------------------
      1          6           0        2.061438   -0.790053    0.568576
      2          6           0        1.116991    0.027241   -0.265701
      3          7           0        1.075926    1.327296   -0.090705
      4          8           0        0.275367   -0.618718   -0.990380
      5          6           0       -1.348606    0.019607   -0.406526
      6          6           0       -1.056772    0.960605    0.620451
      7          6           0       -2.158042   -0.822929    0.327670
      8          1           0        1.483717   -1.364671    1.299654
      9          1           0        2.577517   -1.513325   -0.063483
     10          1           0        2.782707   -0.159393    1.082228
     11          1           0        0.533778    1.736846   -0.847796
     12          1           0       -1.712829    0.385948   -1.355968
     13          1           0       -0.745150    0.621737    1.596307
     14          1           0       -1.410856    1.981308    0.552238
     15          1           0       -1.835488   -1.198561    1.288800
     16          1           0       -3.097865   -1.198053   -0.060820
 ---------------------------------------------------------------------

 SCF Done:  E(RHF) =  -324.096605176     A.U. after    2 cycles

 The electronic state is 1-A.
 Alpha  occ. eigenvalues --  -20.51096 -15.45991 -11.33529 -11.31798 -11.31643
 Alpha  occ. eigenvalues --  -11.27800 -11.22194  -1.43950  -1.16436  -1.14290
 Alpha  occ. eigenvalues --   -0.98324  -0.93075  -0.82651  -0.75722  -0.71425
 Alpha  occ. eigenvalues --   -0.67910  -0.64306  -0.62159  -0.60709  -0.58356
 Alpha  occ. eigenvalues --   -0.56829  -0.54559  -0.53075  -0.47430  -0.42174
 Alpha  occ. eigenvalues --   -0.39496  -0.33914
 Alpha virt. eigenvalues --    0.03015   0.03485   0.03708   0.04854   0.05831
 Alpha virt. eigenvalues --    0.05996   0.06400   0.07068   0.07190   0.08431
 Alpha virt. eigenvalues --    0.11310   0.11796   0.13086   0.13557   0.14000

 Mulliken charges:
               1
     1  C   -0.360908
     2  C    0.099366
     3  N    0.411378
     4  O   -1.498506
     5  C    0.680941
     6  C   -0.006122
     7  C    0.103749
     8  H    0.179145
     9  H    0.199996
    10  H    0.216851
    11  H    0.284857
    12  H   -0.157887
    13  H    0.054178
    14  H   -0.071944
    15  H   -0.059844
    16  H   -0.075250
 Sum of Mulliken charges =  -0.00000

 Dipole moment (field-independent basis, Debye):
    X=             -3.7040    Y=             -0.3301    Z=              1.3983  Tot=              3.9729

 Test job not archived.
 1\1\GINC-SE041\SP\RHF\Aug-CC-pVDZ\C5H9N1O1\OHZDE\09-Apr-2025\0\\#t hf
 aug-cc-pvdz iop(5/13=1,5/36=2,99/5=2) pseudo=read geom=check guess=(re
 ad,tcheck) scf=(maxcycle=1)\\title\\0,1\C,0,1.93546939,-0.53128918,-1.
 12219182\C,0,1.28913288,0.19036528,0.02560207\N,0,1.33208459,-0.349082
 27,1.22126271\O,0,0.5789755,1.22138607,-0.26323597\C,0,-1.06781833,0.7
 9971882,0.44096296\C,0,-0.93171682,-0.49526827,1.01525507\C,0,-2.09997
 651,0.51727964,-0.43022926\H,0,1.15381996,-0.93453249,-1.77399132\H,0,
 2.51202639,0.17413145,-1.72129169\H,0,2.57598816,-1.33710907,-0.772634

 Normal termination of Gaussian 16 at Wed Apr  9 18:49:54 2025.
