 Gaussian 16, Revision C.01,

 ----------------------------------------------------------------------
 #t hf aug-cc-pvdz symm=none int=(grid=ultrafine) guess=(read,tcheck) s
 table=(opt,rrhf)
 ----------------------------------------------------------------------
 -----
 title
 -----
 Symbolic Z-matrix:
 Charge =  0 Multiplicity = 1

 SCF Done:  E(RHF) =  -299.544874972     A.U. after   16 cycles
 Normal termination of Gaussian 16 at Wed Apr  9 15:40:36 2025.
 Gaussian 16:  ES64L-G16RevC.01  3-Jul-2019

 ----------------------------------------------------------------------
 #t hf aug-cc-pvdz iop(5/13=1,5/36=2,99/5=2) pseudo=read geom=check gue
 ss=(read,tcheck) scf=(maxcycle=1)
 ----------------------------------------------------------------------
 -----
 title
 -----
 Structure from the checkpoint file:  "Grambow2020_b97d3_006598_forward_mol1.chk"
 Charge =  0 Multiplicity = 1

                         Standard orientation:
 ---------------------------------------------------------------------
 Center     Atomic      Atomic             Coordinates (Angstroms)
 Number     Number       Type             X           Y           Z
 ---------------------------------------------------------------------
      1          6           0       -2.179743   -0.272889   -0.000755
      2          6           0       -0.952319    0.523975    0.000631
      3          7           0       -0.149221    1.399248    0.000661
      4          6           0        1.701112    0.623323   -0.000013
      5          7           0        1.485390   -0.578757   -0.000550
      6          8           0        0.522919   -1.356056    0.000720
      7          1           0       -3.065626    0.377946   -0.015805
      8          1           0       -2.211749   -0.908424    0.892662
      9          1           0       -2.195870   -0.928994   -0.879416
     10          1           0        2.522409    1.318029   -0.003145
 ---------------------------------------------------------------------

 SCF Done:  E(RHF) =  -299.838171083     A.U. after    2 cycles

 The electronic state is 1-A.
 Alpha  occ. eigenvalues --  -20.54714 -15.62848 -15.53730 -11.33940 -11.33048
 Alpha  occ. eigenvalues --  -11.29406  -1.52665  -1.24844  -1.19493  -1.04397
 Alpha  occ. eigenvalues --   -0.81574  -0.73617  -0.72447  -0.67674  -0.64883
 Alpha  occ. eigenvalues --   -0.62783  -0.62680  -0.61697  -0.50706  -0.49976
 Alpha  occ. eigenvalues --   -0.38452  -0.38427
 Alpha virt. eigenvalues --    0.03106   0.04281   0.05308   0.05598   0.06772
 Alpha virt. eigenvalues --    0.08813   0.09026   0.09353   0.12494   0.12653
 Alpha virt. eigenvalues --    0.12708   0.14463   0.14894   0.15010   0.16280

 Mulliken charges:
               1
     1  C   -0.129090
     2  C   -1.297041
     3  N    0.738487
     4  C   -0.302229
     5  N    1.440570
     6  O   -1.266131
     7  H    0.219898
     8  H    0.278029
     9  H    0.277018
    10  H    0.040489
 Sum of Mulliken charges =  -0.00000

 Dipole moment (field-independent basis, Debye):
    X=             -2.1164    Y=              1.2509    Z=             -0.0061  Tot=              2.4584

 Test job not archived.
 1\1\GINC-SE037\SP\RHF\Aug-CC-pVDZ\C3H4N2O1\OHZDE\09-Apr-2025\0\\#t hf
 aug-cc-pvdz iop(5/13=1,5/36=2,99/5=2) pseudo=read geom=check guess=(re
 ad,tcheck) scf=(maxcycle=1)\\title\\0,1\C,0,-1.74948475,0.07266152,0.0
 6178475\C,0,-0.37786681,0.33515654,0.4991891\N,0,0.59684798,0.69699579
 ,1.07370908\C,0,2.23295237,0.03706071,0.1179674\N,0,1.76003945,-0.5770
 9618,-0.82579911\O,0,0.65118388,-0.86646623,-1.29189951\H,0,-2.4715867
 6,0.55091568,0.73887053\H,0,-1.9329023,-1.00856484,0.04101146\H,0,-1.8
 9523607,0.45682984,-0.95504854\H,0,3.186053,0.30250717,0.54021484\\Ver

 Normal termination of Gaussian 16 at Wed Apr  9 15:40:39 2025.
