 Gaussian 16, Revision C.01,

 ----------------------------------------------------------------------
 #t hf aug-cc-pvdz symm=none int=(grid=ultrafine) guess=(read,tcheck) s
 table=(opt,rrhf)
 ----------------------------------------------------------------------
 -----
 title
 -----
 Symbolic Z-matrix:
 Charge =  0 Multiplicity = 1

 SCF Done:  E(RHF) =  -284.731780758     A.U. after   16 cycles
 Normal termination of Gaussian 16 at Wed Apr  9 03:07:24 2025.
 Gaussian 16:  ES64L-G16RevC.01  3-Jul-2019

 ----------------------------------------------------------------------
 #t hf aug-cc-pvdz iop(5/13=1,5/36=2,99/5=2) pseudo=read geom=check gue
 ss=(read,tcheck) scf=(maxcycle=1)
 ----------------------------------------------------------------------
 -----
 title
 -----
 Structure from the checkpoint file:  "Grambow2020_b97d3_006559_reverse_mol2.chk"
 Charge =  0 Multiplicity = 1

                         Standard orientation:
 ---------------------------------------------------------------------
 Center     Atomic      Atomic             Coordinates (Angstroms)
 Number     Number       Type             X           Y           Z
 ---------------------------------------------------------------------
      1          8           0        1.856841   -0.397098   -0.329139
      2          6           0        0.856907    0.225011    0.482851
      3          6           0       -0.067031    1.236002   -0.224305
      4          7           0       -1.348018    0.442581   -0.238599
      5          6           0       -1.057894   -1.007585   -0.270835
      6          6           0       -0.336754   -0.635505    0.978835
      7          1           0        1.403532   -1.012576   -0.935448
      8          1           0        1.422689    0.668449    1.309061
      9          1           0        0.235868    1.487052   -1.250647
     10          1           0       -0.223726    2.155486    0.348724
     11          1           0       -0.575384   -1.275227   -1.230244
     12          1           0       -1.973759   -1.591761   -0.138496
     13          1           0       -2.079197    0.739767    0.401085
 ---------------------------------------------------------------------

 SCF Done:  E(RHF) =  -285.024336882     A.U. after    2 cycles

 The electronic state is 1-A.
 Alpha  occ. eigenvalues --  -20.55797 -15.53930 -11.29485 -11.28914 -11.28701
 Alpha  occ. eigenvalues --  -11.26669  -1.45041  -1.26943  -1.01525  -0.99104
 Alpha  occ. eigenvalues --   -0.85200  -0.78731  -0.72754  -0.66833  -0.64156
 Alpha  occ. eigenvalues --   -0.63230  -0.59489  -0.56804  -0.54668  -0.49905
 Alpha  occ. eigenvalues --   -0.47310  -0.41714  -0.34966
 Alpha virt. eigenvalues --    0.03334   0.03928   0.04646   0.04927   0.05793
 Alpha virt. eigenvalues --    0.06223   0.06790   0.08669   0.10487   0.11531
 Alpha virt. eigenvalues --    0.12728   0.14164   0.14932   0.14990   0.15891

 Mulliken charges:
               1
     1  O   -1.336370
     2  C    1.378568
     3  C   -0.595265
     4  N    0.274494
     5  C   -0.045365
     6  C   -0.277969
     7  H    0.301016
     8  H    0.051298
     9  H    0.040295
    10  H    0.058098
    11  H   -0.023106
    12  H   -0.016457
    13  H    0.190763
 Sum of Mulliken charges =  -0.00000

 Dipole moment (field-independent basis, Debye):
    X=             -1.4979    Y=              0.6577    Z=             -1.6340  Tot=              2.3122

 Test job not archived.
 1\1\GINC-SE092\SP\RHF\Aug-CC-pVDZ\C4H7N1O1\OHZDE\09-Apr-2025\0\\#t hf
 aug-cc-pvdz iop(5/13=1,5/36=2,99/5=2) pseudo=read geom=check guess=(re
 ad,tcheck) scf=(maxcycle=1)\\title\\0,1\O,0,-1.42462266,-0.75353027,1.
 29317724\C,0,-1.14319869,-0.17045764,0.01762151\C,0,-0.31759074,1.1311
 2194,0.02753181\N,0,0.98194637,0.6118667,-0.5312386\C,0,1.15738939,-0.
 81685139,-0.19039149\C,0,-0.13857348,-0.89108771,-0.921918\H,0,-0.5883
 7354,-1.11351346,1.6439079\H,0,-2.12939873,-0.04746971,-0.4424347\H,0,
 -0.1572579,1.55941389,1.02703714\H,0,-0.71205506,1.90054974,-0.6438441

 Normal termination of Gaussian 16 at Wed Apr  9 03:07:28 2025.
