 Gaussian 16, Revision C.01,

 ----------------------------------------------------------------------
 #t hf aug-cc-pvdz symm=none int=(grid=ultrafine) guess=(read,tcheck) s
 table=(opt,rrhf)
 ----------------------------------------------------------------------
 -----
 title
 -----
 Symbolic Z-matrix:
 Charge =  0 Multiplicity = 1

 SCF Done:  E(RHF) =  -373.208811974     A.U. after   16 cycles
 Normal termination of Gaussian 16 at Wed Apr  9 03:27:58 2025.
 Gaussian 16:  ES64L-G16RevC.01  3-Jul-2019

 ----------------------------------------------------------------------
 #t hf aug-cc-pvdz iop(5/13=1,5/36=2,99/5=2) pseudo=read geom=check gue
 ss=(read,tcheck) scf=(maxcycle=1)
 ----------------------------------------------------------------------
 -----
 title
 -----
 Structure from the checkpoint file:  "Grambow2020_wb97xd3_006702_reverse_mol2.chk"
 Charge =  0 Multiplicity = 1

                         Standard orientation:
 ---------------------------------------------------------------------
 Center     Atomic      Atomic             Coordinates (Angstroms)
 Number     Number       Type             X           Y           Z
 ---------------------------------------------------------------------
      1          8           0        2.297383    0.679427    0.001686
      2          6           0        1.726320   -0.375229   -0.000846
      3          6           0        0.268281   -0.513182   -0.001850
      4          7           0       -0.503202   -1.518121    0.000138
      5          6           0       -1.672368   -0.645403    0.001360
      6          7           0       -0.986354    0.469768   -0.000449
      7          8           0       -1.175145    1.663512   -0.000613
      8          1           0        2.245024   -1.352170   -0.001930
      9          1           0       -2.729435   -0.849979    0.003532
 ---------------------------------------------------------------------

 SCF Done:  E(RHF) =  -373.571372935     A.U. after    2 cycles

 The electronic state is 1-A.
 Alpha  occ. eigenvalues --  -20.59531 -20.57573 -15.71729 -15.59526 -11.39458
 Alpha  occ. eigenvalues --  -11.38087 -11.34418  -1.59553  -1.52628  -1.40617
 Alpha  occ. eigenvalues --   -1.15479  -1.01759  -0.90910  -0.79924  -0.76998
 Alpha  occ. eigenvalues --   -0.76799  -0.72892  -0.70123  -0.67359  -0.60230
 Alpha  occ. eigenvalues --   -0.58700  -0.53855  -0.49295  -0.44657  -0.35336
 Alpha virt. eigenvalues --   -0.02669   0.03003   0.03925   0.06820   0.07378
 Alpha virt. eigenvalues --    0.08256   0.08992   0.09492   0.11723   0.12962
 Alpha virt. eigenvalues --    0.13144   0.14184   0.14895   0.15563   0.15986

 Mulliken charges:
               1
     1  O   -1.105786
     2  C    1.675788
     3  C   -1.020623
     4  N    0.740822
     5  C   -0.328145
     6  N    1.520187
     7  O   -1.635056
     8  H    0.151453
     9  H    0.001361
 Sum of Mulliken charges =  -0.00000

 Dipole moment (field-independent basis, Debye):
    X=             -0.5851    Y=             -3.3727    Z=             -0.0030  Tot=              3.4231

 Test job not archived.
 1\1\GINC-SE345\SP\RHF\Aug-CC-pVDZ\C3H2N2O2\OHZDE\09-Apr-2025\0\\#t hf
 aug-cc-pvdz iop(5/13=1,5/36=2,99/5=2) pseudo=read geom=check guess=(re
 ad,tcheck) scf=(maxcycle=1)\\title\\0,1\O,0,-2.4244502,-0.70271005,-0.
 0969038\C,0,-1.74996468,0.28777576,-0.04766951\C,0,-0.28607127,0.27633
 402,-0.00529842\N,0,0.58256393,1.19681225,0.05202646\C,0,1.65704353,0.
 20985874,0.05385261\N,0,0.86226382,-0.82893957,-0.00486347\O,0,0.92943
 813,-2.03509534,-0.04152044\H,0,-2.1670772,1.31204181,-0.02852451\H,0,
 2.72882895,0.30543339,0.09110209\\Version=ES64L-G16RevC.01\State=1-A\H

 Normal termination of Gaussian 16 at Wed Apr  9 03:28:02 2025.
