 Gaussian 16, Revision C.01,

 ----------------------------------------------------------------------
 #t hf aug-cc-pvdz symm=none int=(grid=ultrafine) guess=(read,tcheck) s
 table=(opt,rrhf)
 ----------------------------------------------------------------------
 -----
 title
 -----
 Symbolic Z-matrix:
 Charge =  0 Multiplicity = 1

 SCF Done:  E(RHF) =  -333.543222559     A.U. after   18 cycles
 Normal termination of Gaussian 16 at Wed Apr  9 03:33:07 2025.
 Gaussian 16:  ES64L-G16RevC.01  3-Jul-2019

 ----------------------------------------------------------------------
 #t hf aug-cc-pvdz iop(5/13=1,5/36=2,99/5=2) pseudo=read geom=check gue
 ss=(read,tcheck) scf=(maxcycle=1)
 ----------------------------------------------------------------------
 -----
 title
 -----
 Structure from the checkpoint file:  "Grambow2020_wb97xd3_006993_reverse_mol1.chk"
 Charge =  0 Multiplicity = 1

                         Standard orientation:
 ---------------------------------------------------------------------
 Center     Atomic      Atomic             Coordinates (Angstroms)
 Number     Number       Type             X           Y           Z
 ---------------------------------------------------------------------
      1          7           0        2.376767   -0.038880    0.082314
      2          6           0        1.044903   -0.357276   -0.023555
      3          6           0        0.248270    1.250355   -0.163650
      4          7           0       -0.897640    1.525108   -0.021671
      5          6           0       -2.128886   -0.076114    0.188750
      6          7           0       -1.731564   -1.143434   -0.078409
      7          7           0        0.438870   -1.386945   -0.124071
      8          1           0        2.577067    0.797000    0.609247
      9          1           0        2.965266   -0.816729    0.334036
     10          1           0        1.106777    1.863079   -0.423699
     11          1           0       -2.939859    0.563917    0.464007
 ---------------------------------------------------------------------

 SCF Done:  E(RHF) =  -333.869370287     A.U. after    2 cycles

 The electronic state is 1-A.
 Alpha  occ. eigenvalues --  -15.57059 -15.55554 -15.53379 -15.51117 -11.33290
 Alpha  occ. eigenvalues --  -11.31154 -11.28821  -1.30487  -1.24769  -1.22037
 Alpha  occ. eigenvalues --   -1.20061  -0.88207  -0.81909  -0.79112  -0.74690
 Alpha  occ. eigenvalues --   -0.67231  -0.65103  -0.62825  -0.61658  -0.58294
 Alpha  occ. eigenvalues --   -0.53225  -0.49566  -0.47229  -0.44685  -0.40198
 Alpha virt. eigenvalues --   -0.02308   0.02118   0.04462   0.04839   0.05645
 Alpha virt. eigenvalues --    0.08224   0.09201   0.09661   0.10213   0.11113
 Alpha virt. eigenvalues --    0.11758   0.12309   0.12849   0.14885   0.15466

 Mulliken charges:
               1
     1  N    0.706357
     2  C   -2.137141
     3  C   -1.133730
     4  N    1.082855
     5  C   -0.772643
     6  N    0.724420
     7  N    1.183544
     8  H    0.145733
     9  H    0.074208
    10  H    0.007639
    11  H    0.118758
 Sum of Mulliken charges =  -0.00000

 Dipole moment (field-independent basis, Debye):
    X=              4.3312    Y=              3.7165    Z=              1.7264  Tot=              5.9625

 Test job not archived.
 1\1\GINC-SE127\SP\RHF\Aug-CC-pVDZ\C3H4N4\OHZDE\09-Apr-2025\0\\#t hf au
 g-cc-pvdz iop(5/13=1,5/36=2,99/5=2) pseudo=read geom=check guess=(read
 ,tcheck) scf=(maxcycle=1)\\title\\0,1\N,0,2.02628376,-0.13157273,-0.58
 42417\C,0,0.66676341,-0.3267278,-0.59231393\C,0,0.06227573,0.94826236,
 0.52470123\N,0,-1.00035383,1.03419752,1.04641846\C,0,-2.36613018,-0.32
 592988,0.40699339\N,0,-2.15439151,-0.93529481,-0.5688412\N,0,-0.069790
 1,-1.04033237,-1.21348639\H,0,2.41434166,0.14489817,0.30426793\H,0,2.5
 4843293,-0.86668071,-1.03337535\H,0,0.93330852,1.59653938,0.55830081\H

 Normal termination of Gaussian 16 at Wed Apr  9 03:33:12 2025.
