 Gaussian 16, Revision C.01,

 ----------------------------------------------------------------------
 #t hf aug-cc-pvdz symm=none int=(grid=ultrafine) guess=(read,tcheck) s
 table=(opt,rrhf)
 ----------------------------------------------------------------------
 -----
 title
 -----
 Symbolic Z-matrix:
 Charge =  0 Multiplicity = 1

 SCF Done:  E(RHF) =  -360.758910199     A.U. after   16 cycles
 Normal termination of Gaussian 16 at Wed Apr  9 17:41:00 2025.
 Gaussian 16:  ES64L-G16RevC.01  3-Jul-2019

 ----------------------------------------------------------------------
 #t hf aug-cc-pvdz iop(5/13=1,5/36=2,99/5=2) pseudo=read geom=check gue
 ss=(read,tcheck) scf=(maxcycle=1)
 ----------------------------------------------------------------------
 -----
 title
 -----
 Structure from the checkpoint file:  "Grambow2020_wb97xd3_006768_forward_mol1.chk"
 Charge =  0 Multiplicity = 1

                         Standard orientation:
 ---------------------------------------------------------------------
 Center     Atomic      Atomic             Coordinates (Angstroms)
 Number     Number       Type             X           Y           Z
 ---------------------------------------------------------------------
      1          6           0        0.831670    1.203669    0.795693
      2          7           0        1.277848    0.985605   -0.497944
      3          6           0        1.536406   -0.289514   -0.701851
      4          8           0        1.314181   -1.195877    0.147443
      5          6           0       -0.812252   -0.980290    0.775007
      6          6           0       -1.528139   -0.494823   -0.428016
      7          8           0       -2.128856    0.761869   -0.267017
      8          1           0        1.525052    0.908928    1.591624
      9          1           0        0.404566    2.192280    0.957461
     10          1           0        0.008019    0.387304    1.014795
     11          1           0        1.881417   -0.567985   -1.704417
     12          1           0       -0.490333   -2.009292    0.761191
     13          1           0       -1.200675   -0.649068    1.734542
     14          1           0       -0.862440   -0.518353   -1.298563
     15          1           0       -2.319722   -1.231364   -0.627245
     16          1           0       -1.539531    1.426123   -0.632183
 ---------------------------------------------------------------------

 SCF Done:  E(RHF) =  -361.130057756     A.U. after    2 cycles

 The electronic state is 1-A.
 Alpha  occ. eigenvalues --  -20.57717 -20.51091 -15.45989 -11.36915 -11.33099
 Alpha  occ. eigenvalues --  -11.30920 -11.27176  -1.48609  -1.43507  -1.19609
 Alpha  occ. eigenvalues --   -1.08151  -0.94973  -0.88302  -0.77232  -0.74809
 Alpha  occ. eigenvalues --   -0.70948  -0.68412  -0.65503  -0.64439  -0.61798
 Alpha  occ. eigenvalues --   -0.60359  -0.56754  -0.53260  -0.48981  -0.48798
 Alpha  occ. eigenvalues --   -0.43536  -0.41556  -0.36541
 Alpha virt. eigenvalues --    0.01257   0.03141   0.03587   0.04348   0.04834
 Alpha virt. eigenvalues --    0.06031   0.06500   0.06963   0.07739   0.09381
 Alpha virt. eigenvalues --    0.11575   0.12432   0.13060   0.13502   0.13534

 Mulliken charges:
               1
     1  C   -0.401549
     2  N    0.432354
     3  C    0.252680
     4  O   -1.164186
     5  C   -0.076602
     6  C    0.827225
     7  O   -1.206144
     8  H    0.090342
     9  H    0.043666
    10  H    0.283812
    11  H    0.022681
    12  H    0.018965
    13  H    0.166540
    14  H    0.239910
    15  H    0.101950
    16  H    0.368357
 Sum of Mulliken charges =   0.00000

 Dipole moment (field-independent basis, Debye):
    X=             -3.2967    Y=             -1.8699    Z=              1.2908  Tot=              4.0038

 Test job not archived.
 1\1\GINC-SE219\SP\RHF\Aug-CC-pVDZ\C4H9N1O2\OHZDE\09-Apr-2025\0\\#t hf
 aug-cc-pvdz iop(5/13=1,5/36=2,99/5=2) pseudo=read geom=check guess=(re
 ad,tcheck) scf=(maxcycle=1)\\title\\0,1\C,0,1.38604503,-0.14963266,-1.
 064618\N,0,1.67996652,-0.52471691,0.23655274\C,0,1.33293845,0.41538994
 ,1.09102987\O,0,0.72829422,1.47350314,0.76395032\C,0,-1.06802778,0.853
 40098,-0.3982589\C,0,-1.49188011,-0.4365648,0.19484713\O,0,-1.45851718
 ,-1.51528192,-0.70031339\H,0,1.87441029,0.76685926,-1.41490326\H,0,1.4
 5298526,-0.96192351,-1.78686521\H,0,0.28312139,0.27033408,-1.05786869\

 Normal termination of Gaussian 16 at Wed Apr  9 17:41:06 2025.
