 Gaussian 16, Revision C.01,

 ----------------------------------------------------------------------
 #t hf aug-cc-pvdz symm=none int=(grid=ultrafine) guess=(read,tcheck) s
 table=(opt,rrhf)
 ----------------------------------------------------------------------
 -----
 title
 -----
 Symbolic Z-matrix:
 Charge =  0 Multiplicity = 1

 SCF Done:  E(RHF) =  -359.607680894     A.U. after   15 cycles
 Normal termination of Gaussian 16 at Wed Apr  9 18:17:13 2025.
 Gaussian 16:  ES64L-G16RevC.01  3-Jul-2019

 ----------------------------------------------------------------------
 #t hf aug-cc-pvdz iop(5/13=1,5/36=2,99/5=2) pseudo=read geom=check gue
 ss=(read,tcheck) scf=(maxcycle=1)
 ----------------------------------------------------------------------
 -----
 title
 -----
 Structure from the checkpoint file:  "Grambow2020_wb97xd3_007279_reverse_mol1.chk"
 Charge =  0 Multiplicity = 1

                         Standard orientation:
 ---------------------------------------------------------------------
 Center     Atomic      Atomic             Coordinates (Angstroms)
 Number     Number       Type             X           Y           Z
 ---------------------------------------------------------------------
      1          8           0        1.575102   -1.258691    0.180148
      2          6           0        0.458813   -0.669322   -0.392645
      3          6           0       -0.898000   -1.157187    0.066388
      4          7           0       -1.724587   -0.102290   -0.174220
      5          6           0       -1.066210    1.058768    0.109904
      6          6           0        0.347587    0.831221   -0.100386
      7          8           0        1.304948    1.573781   -0.034003
      8          1           0        2.198984   -0.540620    0.350057
      9          1           0        0.467449   -0.770504   -1.492840
     10          1           0       -1.259773   -2.162004   -0.112827
     11          1           0       -0.606610   -0.725994    1.459798
     12          1           0       -2.719534   -0.179586   -0.048761
     13          1           0       -0.526852    0.185411    1.621324
     14          1           0       -1.575099    2.007730    0.174059
 ---------------------------------------------------------------------

 SCF Done:  E(RHF) =  -359.975864427     A.U. after    2 cycles

 The electronic state is 1-A.
 Alpha  occ. eigenvalues --  -20.56166 -20.51736 -15.58821 -11.33838 -11.31453
 Alpha  occ. eigenvalues --  -11.31223 -11.29671  -1.48183  -1.45011  -1.33692
 Alpha  occ. eigenvalues --   -1.05601  -1.01940  -0.86400  -0.80185  -0.78475
 Alpha  occ. eigenvalues --   -0.73917  -0.69393  -0.65507  -0.64125  -0.62208
 Alpha  occ. eigenvalues --   -0.60510  -0.55258  -0.52230  -0.48145  -0.46101
 Alpha  occ. eigenvalues --   -0.40497  -0.32454
 Alpha virt. eigenvalues --    0.02065   0.03724   0.04432   0.05148   0.05650
 Alpha virt. eigenvalues --    0.06234   0.07790   0.08638   0.08717   0.11249
 Alpha virt. eigenvalues --    0.12080   0.12801   0.13963   0.14754   0.14968

 Mulliken charges:
               1
     1  O   -1.299293
     2  C    0.898388
     3  C   -0.664826
     4  N    0.757951
     5  C   -0.573753
     6  C    1.400249
     7  O   -1.484062
     8  H    0.252585
     9  H    0.279671
    10  H   -0.080122
    11  H    0.348746
    12  H    0.150907
    13  H    0.186231
    14  H   -0.172674
 Sum of Mulliken charges =  -0.00000

 Dipole moment (field-independent basis, Debye):
    X=             -4.6474    Y=             -1.6063    Z=             -0.7976  Tot=              4.9814

 Test job not archived.
 1\1\GINC-SE454\SP\RHF\Aug-CC-pVDZ\C4H7N1O2\OHZDE\09-Apr-2025\0\\#t hf
 aug-cc-pvdz iop(5/13=1,5/36=2,99/5=2) pseudo=read geom=check guess=(re
 ad,tcheck) scf=(maxcycle=1)\\title\\0,1\O,0,2.1680714,-0.06051419,-0.0
 6258203\C,0,0.85624288,0.06370395,0.36779731\C,0,0.03477761,1.18986971
 ,-0.22094046\N,0,-1.25012296,0.7550162,-0.1031369\C,0,-1.29508121,-0.5
 8658181,-0.34877646\C,0,-0.01379371,-1.14945982,0.02040149\O,0,0.39315
 168,-2.29247825,0.03609153\H,0,2.32070311,-1.00676413,-0.18521157\H,0,
 0.79972938,0.18104007,1.46496623\H,0,0.25465098,2.23666559,-0.05203701

 Normal termination of Gaussian 16 at Wed Apr  9 18:17:18 2025.
