 Gaussian 16, Revision C.01,

 ----------------------------------------------------------------------
 #t hf aug-cc-pvdz symm=none int=(grid=ultrafine) guess=(read,tcheck) s
 table=(opt,rrhf)
 ----------------------------------------------------------------------
 -----
 title
 -----
 Symbolic Z-matrix:
 Charge =  0 Multiplicity = 1

 SCF Done:  E(RHF) =  -269.916000200     A.U. after   15 cycles

 1\1\GINC-SE219\Stability\RHF\Aug-CC-pVDZ\C5H10O1\OHZDE\09-Apr-2025\0\\
 #t hf aug-cc-pvdz symm=none int=(grid=ultrafine) guess=(read,tcheck) s
 table=(opt,rrhf)\\title\\0,1\O,0,2.44156903,0.32411607,0.07955544\C,0,
 1.36733465,-0.54625913,0.34639332\C,0,0.07152402,-0.18870858,-0.383494
 87\C,0,-0.99409191,-1.24031819,-0.08233781\C,0,-1.60326655,1.44462784,
 -0.74117987\C,0,-0.36683374,1.25906703,0.02277967\H,0,2.34194069,1.120
 00659,0.60356809\H,0,1.68643668,-1.53396881,0.00431424\H,0,1.1742052,-
 0.61926558,1.4253602\H,0,0.27898264,-0.17704836,-1.45562698\H,0,-1.311

 Normal termination of Gaussian 16 at Wed Apr  9 16:52:14 2025.
 Gaussian 16:  ES64L-G16RevC.01  3-Jul-2019

 ----------------------------------------------------------------------
 #t hf aug-cc-pvdz iop(5/13=1,5/36=2,99/5=2) pseudo=read geom=check gue
 ss=(read,tcheck) scf=(maxcycle=1)
 ----------------------------------------------------------------------
 -----
 title
 -----
 Structure from the checkpoint file:  "Grambow2020_wb97xd3_006159_reverse_mol2.chk"
 Charge =  0 Multiplicity = 1

                         Standard orientation:
 ---------------------------------------------------------------------
 Center     Atomic      Atomic             Coordinates (Angstroms)
 Number     Number       Type             X           Y           Z
 ---------------------------------------------------------------------
      1          8           0       -2.179891   -0.549524   -0.184453
      2          6           0       -1.303554    0.494219    0.169622
      3          6           0        0.132968    0.303045   -0.319827
      4          6           0        0.968692    1.526104    0.051398
      5          6           0        2.064796   -1.063281   -0.276844
      6          6           0        0.705781   -1.030184    0.269798
      7          1           0       -2.052384   -1.286783    0.414001
      8          1           0       -1.703203    1.396722   -0.299616
      9          1           0       -1.303549    0.661384    1.255372
     10          1           0        0.108872    0.194485   -1.406232
     11          1           0        1.113129    1.592703    1.133357
     12          1           0        0.472726    2.442379   -0.276090
     13          1           0        1.953331    1.502174   -0.419266
     14          1           0        2.746279   -0.659566    0.497470
     15          1           0        0.600002   -0.995941    1.363733
     16          1           0        0.091826   -1.830798   -0.151987
 ---------------------------------------------------------------------

 SCF Done:  E(RHF) =  -270.202071152     A.U. after    2 cycles

 The electronic state is 1-A.
 Alpha  occ. eigenvalues --  -20.55508 -11.29164 -11.27617 -11.25752 -11.24294
 Alpha  occ. eigenvalues --  -11.23983  -1.46009  -1.11604  -0.99908  -0.93483
 Alpha  occ. eigenvalues --   -0.83081  -0.76876  -0.71305  -0.64673  -0.63250
 Alpha  occ. eigenvalues --   -0.62518  -0.58677  -0.55936  -0.52372  -0.51702
 Alpha  occ. eigenvalues --   -0.50591  -0.47599  -0.43989  -0.36378
 Alpha virt. eigenvalues --    0.03118   0.03457   0.03943   0.04629   0.05205
 Alpha virt. eigenvalues --    0.06426   0.06599   0.06959   0.07493   0.08275
 Alpha virt. eigenvalues --    0.09618   0.12234   0.13620   0.14202   0.14265

 Mulliken charges:
               1
     1  O   -1.166109
     2  C    1.051946
     3  C   -1.340530
     4  C   -0.075873
     5  C   -0.235402
     6  C    0.138003
     7  H    0.301355
     8  H    0.075155
     9  H    0.192525
    10  H    0.084238
    11  H    0.225761
    12  H    0.144722
    13  H    0.169027
    14  H    0.138690
    15  H    0.101955
    16  H    0.194536
 Sum of Mulliken charges =  -0.00000

 Dipole moment (field-independent basis, Debye):
    X=             -0.1610    Y=              0.9325    Z=              2.7536  Tot=              2.9117

 Test job not archived.
 1\1\GINC-SE219\SP\RHF\Aug-CC-pVDZ\C5H10O1\OHZDE\09-Apr-2025\0\\#t hf a
 ug-cc-pvdz iop(5/13=1,5/36=2,99/5=2) pseudo=read geom=check guess=(rea
 d,tcheck) scf=(maxcycle=1)\\title\\0,1\O,0,2.44156903,0.32411607,0.079
 55544\C,0,1.36733465,-0.54625913,0.34639332\C,0,0.07152402,-0.18870858
 ,-0.38349487\C,0,-0.99409191,-1.24031819,-0.08233781\C,0,-1.60326655,1
 .44462784,-0.74117987\C,0,-0.36683374,1.25906703,0.02277967\H,0,2.3419
 4069,1.12000659,0.60356809\H,0,1.68643668,-1.53396881,0.00431424\H,0,1
 .1742052,-0.61926558,1.4253602\H,0,0.27898264,-0.17704836,-1.45562698\

 Normal termination of Gaussian 16 at Wed Apr  9 16:52:19 2025.
