 Gaussian 16, Revision C.01,

 ----------------------------------------------------------------------
 #t hf aug-cc-pvdz symm=none int=(grid=ultrafine) guess=(read,tcheck) s
 table=(opt,rrhf)
 ----------------------------------------------------------------------
 -----
 title
 -----
 Symbolic Z-matrix:
 Charge =  0 Multiplicity = 1

 SCF Done:  E(RHF) =  -322.625859374     A.U. after   13 cycles
 Normal termination of Gaussian 16 at Wed Apr  9 19:12:56 2025.
 Gaussian 16:  ES64L-G16RevC.01  3-Jul-2019

 ----------------------------------------------------------------------
 #t hf aug-cc-pvdz iop(5/13=1,5/36=2,99/5=2) pseudo=read geom=check gue
 ss=(read,tcheck) scf=(maxcycle=1)
 ----------------------------------------------------------------------
 -----
 title
 -----
 Structure from the checkpoint file:  "Grambow2020_wb97xd3_008894_reverse_mol2.chk"
 Charge =  0 Multiplicity = 1

                         Standard orientation:
 ---------------------------------------------------------------------
 Center     Atomic      Atomic             Coordinates (Angstroms)
 Number     Number       Type             X           Y           Z
 ---------------------------------------------------------------------
      1          8           0       -2.097325   -0.233961   -0.265314
      2          6           0       -0.761457    0.028341   -0.083033
      3          6           0        0.011759    1.313187   -0.259808
      4          7           0        1.153305    0.654213    0.465568
      5          6           0        0.153436   -0.348555    1.037830
      6          6           0        0.247100   -1.098305   -0.261521
      7          6           0        1.563303   -0.408909   -0.519730
      8          1           0       -0.381347    2.128566    0.350126
      9          1           0        0.248966    1.677041   -1.263024
     10          1           0       -2.604314    0.299512    0.350522
     11          1           0        0.039035   -0.633905    2.072259
     12          1           0       -0.091472   -2.100879   -0.482300
     13          1           0        2.418197   -0.957898   -0.125044
     14          1           0        1.791569   -0.034796   -1.521432
 ---------------------------------------------------------------------

 SCF Done:  E(RHF) =  -322.959584065     A.U. after    2 cycles

 The electronic state is 1-A.
 Alpha  occ. eigenvalues --  -20.57105 -15.50117 -11.30079 -11.26409 -11.26313
 Alpha  occ. eigenvalues --  -11.26225 -11.24490  -1.48140  -1.31554  -1.04230
 Alpha  occ. eigenvalues --   -0.99922  -0.90345  -0.78071  -0.76504  -0.74057
 Alpha  occ. eigenvalues --   -0.66450  -0.65894  -0.62400  -0.61111  -0.56271
 Alpha  occ. eigenvalues --   -0.52484  -0.50768  -0.49837  -0.46400  -0.38585
 Alpha  occ. eigenvalues --   -0.38117
 Alpha virt. eigenvalues --    0.03291   0.04092   0.04477   0.04717   0.05385
 Alpha virt. eigenvalues --    0.05800   0.06493   0.09485   0.10748   0.11849
 Alpha virt. eigenvalues --    0.12935   0.13572   0.13722   0.14559   0.15305

 Mulliken charges:
               1
     1  O   -1.520813
     2  C    1.685446
     3  C   -0.132821
     4  N    0.302655
     5  C   -0.294490
     6  C    0.346538
     7  C   -0.180279
     8  H    0.057514
     9  H    0.039718
    10  H    0.175059
    11  H   -0.326825
    12  H   -0.199646
    13  H    0.017711
    14  H    0.030232
 Sum of Mulliken charges =   0.00000

 Dipole moment (field-independent basis, Debye):
    X=             -1.1024    Y=             -0.2571    Z=              0.2004  Tot=              1.1496

 Test job not archived.
 1\1\GINC-SE018\SP\RHF\Aug-CC-pVDZ\C5H7N1O1\OHZDE\09-Apr-2025\0\\#t hf
 aug-cc-pvdz iop(5/13=1,5/36=2,99/5=2) pseudo=read geom=check guess=(re
 ad,tcheck) scf=(maxcycle=1)\\title\\0,1\O,0,-0.69549423,2.08249766,0.4
 6361873\C,0,-0.33010288,0.81468236,0.08190487\C,0,-1.09962021,-0.22950
 585,-0.69104677\N,0,0.19472147,-0.98077267,-0.84539983\C,0,0.93534488,
 0.32010536,-0.54215459\C,0,0.69078029,0.05361731,0.91674296\C,0,0.4721
 0505,-1.39885973,0.57495222\H,0,-1.42884813,0.12771418,-1.66849123\H,0
 ,-1.90446884,-0.78839137,-0.20631578\H,0,-0.85803516,2.60774062,-0.322

 Normal termination of Gaussian 16 at Wed Apr  9 19:13:01 2025.
