 Gaussian 16, Revision C.01,

 ----------------------------------------------------------------------
 #t hf aug-cc-pvdz symm=none int=(grid=ultrafine) guess=(read,tcheck) s
 table=(opt,rrhf)
 ----------------------------------------------------------------------
 -----
 title
 -----
 Symbolic Z-matrix:
 Charge =  0 Multiplicity = 1

 SCF Done:  E(RHF) =  -360.831555787     A.U. after   15 cycles
 Normal termination of Gaussian 16 at Wed Apr  9 17:29:38 2025.
 Gaussian 16:  ES64L-G16RevC.01  3-Jul-2019

 ----------------------------------------------------------------------
 #t hf aug-cc-pvdz iop(5/13=1,5/36=2,99/5=2) pseudo=read geom=check gue
 ss=(read,tcheck) scf=(maxcycle=1)
 ----------------------------------------------------------------------
 -----
 title
 -----
 Structure from the checkpoint file:  "Grambow2020_wb97xd3_006613_reverse_mol1.chk"
 Charge =  0 Multiplicity = 1

                         Standard orientation:
 ---------------------------------------------------------------------
 Center     Atomic      Atomic             Coordinates (Angstroms)
 Number     Number       Type             X           Y           Z
 ---------------------------------------------------------------------
      1          6           0       -2.470355   -0.518771   -0.097299
      2          6           0       -1.057840    0.019624   -0.283334
      3          8           0       -1.065746    1.449016   -0.075137
      4          6           0       -0.067470   -0.694699    0.603296
      5          7           0        1.150771   -1.091414   -0.046839
      6          6           0        2.076676   -0.210466   -0.263396
      7          8           0        1.892413    1.006573    0.128091
      8          1           0       -2.542321   -1.555283   -0.433388
      9          1           0       -3.186052    0.083371   -0.657852
     10          1           0       -2.750953   -0.488058    0.959953
     11          1           0       -0.778384   -0.065907   -1.341149
     12          1           0       -1.217278    1.574857    0.866458
     13          1           0        1.022182    0.946831    0.648395
     14          1           0       -0.481564   -1.556520    1.117489
     15          1           0        1.360831   -2.052504   -0.280513
     16          1           0        3.018738   -0.465730   -0.730755
 ---------------------------------------------------------------------

 SCF Done:  E(RHF) =  -361.205149146     A.U. after    2 cycles

 The electronic state is 1-A.
 Alpha  occ. eigenvalues --  -20.61060 -20.51663 -15.58507 -11.39941 -11.26556
 Alpha  occ. eigenvalues --  -11.20810 -11.18966  -1.55479  -1.41744  -1.29463
 Alpha  occ. eigenvalues --   -1.02652  -0.96124  -0.87543  -0.84272  -0.80306
 Alpha  occ. eigenvalues --   -0.72563  -0.66539  -0.65911  -0.61587  -0.60347
 Alpha  occ. eigenvalues --   -0.58723  -0.57383  -0.52762  -0.51907  -0.49454
 Alpha  occ. eigenvalues --   -0.45524  -0.41486  -0.27679
 Alpha virt. eigenvalues --    0.02066   0.04024   0.04819   0.04980   0.05950
 Alpha virt. eigenvalues --    0.06409   0.06951   0.07578   0.08589   0.09498
 Alpha virt. eigenvalues --    0.10373   0.12793   0.12973   0.13475   0.14248

 Mulliken charges:
               1
     1  C   -0.473422
     2  C    1.097293
     3  O   -1.334581
     4  C   -1.078874
     5  N    0.751284
     6  C    0.770030
     7  O   -1.212829
     8  H    0.201871
     9  H    0.152092
    10  H    0.161884
    11  H   -0.001177
    12  H    0.297206
    13  H    0.635753
    14  H   -0.210622
    15  H    0.179196
    16  H    0.064898
 Sum of Mulliken charges =   0.00000

 Dipole moment (field-independent basis, Debye):
    X=              3.1841    Y=             -3.1425    Z=             -1.0730  Tot=              4.6005

 Test job not archived.
 1\1\GINC-SE162\SP\RHF\Aug-CC-pVDZ\C4H9N1O2\OHZDE\09-Apr-2025\0\\#t hf
 aug-cc-pvdz iop(5/13=1,5/36=2,99/5=2) pseudo=read geom=check guess=(re
 ad,tcheck) scf=(maxcycle=1)\\title\\0,1\C,0,-1.88963325,-0.93854525,-0
 .50012036\C,0,-0.61179297,-0.11290078,-0.57162689\O,0,-0.92619836,1.20
 110196,-1.08261963\C,0,0.09836547,-0.06800749,0.75911014\N,0,1.5156766
 4,-0.29499004,0.69684221\C,0,2.30115269,0.66375627,0.31723804\O,0,1.79
 362023,1.81366232,0.01970401\H,0,-1.66693122,-1.98957883,-0.30460781\H
 ,0,-2.44548234,-0.8647195,-1.43532088\H,0,-2.53058706,-0.57473618,0.30

 Normal termination of Gaussian 16 at Wed Apr  9 17:29:44 2025.
