 Gaussian 16, Revision C.01,

 ----------------------------------------------------------------------
 #t hf aug-cc-pvdz symm=none int=(grid=ultrafine) guess=(read,tcheck) s
 table=(opt,rrhf)
 ----------------------------------------------------------------------
 -----
 title
 -----
 Symbolic Z-matrix:
 Charge =  0 Multiplicity = 1

 SCF Done:  E(RHF) =  -245.539982620     A.U. after   17 cycles
 Normal termination of Gaussian 16 at Wed Apr  9 16:23:39 2025.
 Gaussian 16:  ES64L-G16RevC.01  3-Jul-2019

 ----------------------------------------------------------------------
 #t hf aug-cc-pvdz iop(5/13=1,5/36=2,99/5=2) pseudo=read geom=check gue
 ss=(read,tcheck) scf=(maxcycle=1)
 ----------------------------------------------------------------------
 -----
 title
 -----
 Structure from the checkpoint file:  "Grambow2020_b97d3_007205_forward_mol1.chk"
 Charge =  0 Multiplicity = 1

                         Standard orientation:
 ---------------------------------------------------------------------
 Center     Atomic      Atomic             Coordinates (Angstroms)
 Number     Number       Type             X           Y           Z
 ---------------------------------------------------------------------
      1          8           0        1.998542   -0.307917   -0.270251
      2          6           0        0.985051    0.082145    0.200815
      3          6           0       -0.351937   -0.185416    0.654034
      4          6           0       -1.050282    0.672699   -0.411653
      5          7           0       -1.558507   -0.614571   -0.065983
      6          1           0        0.521562    1.898587    0.363886
      7          1           0       -0.553055    0.189294    1.658432
      8          1           0       -0.479301    1.857301    0.153579
      9          1           0       -0.559615    0.726772   -1.402606
     10          1           0       -1.505369   -1.323190   -0.808574
 ---------------------------------------------------------------------

 SCF Done:  E(RHF) =  -245.788352354     A.U. after    2 cycles

 The electronic state is 1-A.
 Alpha  occ. eigenvalues --  -20.63624 -15.57816 -11.44642 -11.31754 -11.30896
 Alpha  occ. eigenvalues --   -1.56084  -1.32244  -1.04253  -0.88139  -0.83293
 Alpha  occ. eigenvalues --   -0.75216  -0.70900  -0.64802  -0.62279  -0.58935
 Alpha  occ. eigenvalues --   -0.57763  -0.52787  -0.39628  -0.33991
 Alpha virt. eigenvalues --    0.02982   0.03292   0.04469   0.05588   0.06324
 Alpha virt. eigenvalues --    0.07599   0.09663   0.10332   0.10502   0.11098
 Alpha virt. eigenvalues --    0.12924   0.13436   0.14531   0.15263   0.16054

 Mulliken charges:
               1
     1  O   -1.016888
     2  C    0.921551
     3  C   -0.218739
     4  C   -0.772555
     5  N    0.421664
     6  H   -0.077184
     7  H    0.083615
     8  H    0.401746
     9  H    0.047505
    10  H    0.209284
 Sum of Mulliken charges =   0.00000

 Dipole moment (field-independent basis, Debye):
    X=             -0.4354    Y=             -1.4232    Z=             -0.5963  Tot=              1.6033

 Test job not archived.
 1\1\GINC-SE026\SP\RHF\Aug-CC-pVDZ\C3H5N1O1\OHZDE\09-Apr-2025\0\\#t hf
 aug-cc-pvdz iop(5/13=1,5/36=2,99/5=2) pseudo=read geom=check guess=(re
 ad,tcheck) scf=(maxcycle=1)\\title\\0,1\O,0,1.70456973,-0.60332267,1.4
 8677333\C,0,1.11310037,-0.31855251,0.50174239\C,0,0.38544162,0.6532519
 2,-0.26678866\C,0,-0.95756568,-0.09123479,-0.22428805\N,0,-0.9014803,1
 .32060017,-0.02827729\H,0,0.49349496,-1.56795715,-0.76156777\H,0,0.748
 22639,0.75757385,-1.29010492\H,0,-0.40665149,-1.15080854,-1.01332813\H
 ,0,-1.16889885,-0.67835382,0.69020451\H,0,-1.16071474,1.64554954,0.911

 Normal termination of Gaussian 16 at Wed Apr  9 16:23:42 2025.
