 Gaussian 16, Revision C.01,

 ----------------------------------------------------------------------
 #t hf aug-cc-pvdz symm=none int=(grid=ultrafine) guess=(read,tcheck) s
 table=(opt,rrhf)
 ----------------------------------------------------------------------
 -----
 title
 -----
 Symbolic Z-matrix:
 Charge =  0 Multiplicity = 1

 SCF Done:  E(RHF) =  -302.746750476     A.U. after   17 cycles
 Normal termination of Gaussian 16 at Wed Apr  9 18:45:55 2025.
 Gaussian 16:  ES64L-G16RevC.01  3-Jul-2019

 ----------------------------------------------------------------------
 #t hf aug-cc-pvdz iop(5/13=1,5/36=2,99/5=2) pseudo=read geom=check gue
 ss=(read,tcheck) scf=(maxcycle=1)
 ----------------------------------------------------------------------
 -----
 title
 -----
 Structure from the checkpoint file:  "Grambow2020_wb97xd3_008043_reverse_mol1.chk"
 Charge =  0 Multiplicity = 1

                         Standard orientation:
 ---------------------------------------------------------------------
 Center     Atomic      Atomic             Coordinates (Angstroms)
 Number     Number       Type             X           Y           Z
 ---------------------------------------------------------------------
      1          6           0       -1.548671   -1.456550   -0.015752
      2          6           0       -1.225468   -0.035648   -0.372526
      3          6           0       -0.766464    0.916999    0.744418
      4          7           0        0.184068    1.663439   -0.043671
      5          6           0        0.832718    0.660357   -0.836649
      6          6           0        1.447093   -0.423648   -0.096215
      7          7           0        2.087864   -1.260443    0.378128
      8          1           0       -0.694411   -1.946399    0.456176
      9          1           0       -2.373139   -1.464974    0.702987
     10          1           0       -1.854400   -2.034892   -0.887031
     11          1           0       -1.972539    0.445668   -1.010038
     12          1           0       -0.313989    0.341687    1.564955
     13          1           0       -1.577017    1.532062    1.141756
     14          1           0        0.798258    2.348295    0.369176
     15          1           0       -0.351524   -0.011479   -1.218837
 ---------------------------------------------------------------------

 SCF Done:  E(RHF) =  -303.057930894     A.U. after    2 cycles

 The electronic state is 1-A.
 Alpha  occ. eigenvalues --  -15.52191 -15.51388 -11.33428 -11.30736 -11.29388
 Alpha  occ. eigenvalues --  -11.27445 -11.25604  -1.27849  -1.22774  -1.08523
 Alpha  occ. eigenvalues --   -0.98200  -0.94628  -0.84656  -0.75109  -0.69086
 Alpha  occ. eigenvalues --   -0.67161  -0.63905  -0.62392  -0.60571  -0.56227
 Alpha  occ. eigenvalues --   -0.55840  -0.53374  -0.52026  -0.49670  -0.45810
 Alpha  occ. eigenvalues --   -0.36178
 Alpha virt. eigenvalues --    0.02680   0.03195   0.03475   0.03874   0.04829
 Alpha virt. eigenvalues --    0.06047   0.06300   0.07530   0.08020   0.09672
 Alpha virt. eigenvalues --    0.11345   0.11705   0.12949   0.13507   0.14356

 Mulliken charges:
               1
     1  C   -0.288086
     2  C   -0.592311
     3  C   -0.177436
     4  N    0.531478
     5  C   -0.688629
     6  C   -1.251871
     7  N    0.929253
     8  H    0.253202
     9  H    0.221029
    10  H    0.142538
    11  H    0.049507
    12  H    0.101015
    13  H    0.046840
    14  H    0.197914
    15  H    0.525557
 Sum of Mulliken charges =   0.00000

 Dipole moment (field-independent basis, Debye):
    X=             -4.8671    Y=              1.7755    Z=              0.9725  Tot=              5.2714

 Test job not archived.
 1\1\GINC-SE045\SP\RHF\Aug-CC-pVDZ\C5H8N2\OHZDE\09-Apr-2025\0\\#t hf au
 g-cc-pvdz iop(5/13=1,5/36=2,99/5=2) pseudo=read geom=check guess=(read
 ,tcheck) scf=(maxcycle=1)\\title\\0,1\C,0,1.66829897,-0.45011722,-0.41
 825876\C,0,0.68841547,0.29042286,0.4432162\C,0,-0.40667135,1.12667846,
 -0.24033883\N,0,-1.45333349,0.85670791,0.71537018\C,0,-1.29340114,-0.5
 3680751,1.01247504\C,0,-1.33251449,-1.42952663,-0.12870327\N,0,-1.4816
 0696,-2.24830872,-0.93068968\H,0,1.15494642,-1.13524999,-1.09611592\H,
 0,2.21966098,0.26934391,-1.03045028\H,0,2.38944074,-1.01046487,0.17591

 Normal termination of Gaussian 16 at Wed Apr  9 18:46:00 2025.
