 Gaussian 16, Revision C.01,

 ----------------------------------------------------------------------
 #t hf aug-cc-pvdz symm=none int=(grid=ultrafine) guess=(read,tcheck) s
 table=(opt,rrhf)
 ----------------------------------------------------------------------
 -----
 title
 -----
 Symbolic Z-matrix:
 Charge =  0 Multiplicity = 1

 SCF Done:  E(RHF) =  -323.699706519     A.U. after   15 cycles
 Normal termination of Gaussian 16 at Wed Apr  9 18:29:33 2025.
 Gaussian 16:  ES64L-G16RevC.01  3-Jul-2019

 ----------------------------------------------------------------------
 #t hf aug-cc-pvdz iop(5/13=1,5/36=2,99/5=2) pseudo=read geom=check gue
 ss=(read,tcheck) scf=(maxcycle=1)
 ----------------------------------------------------------------------
 -----
 title
 -----
 Structure from the checkpoint file:  "Grambow2020_wb97xd3_007621_forward_mol1.chk"
 Charge =  0 Multiplicity = 1

                         Standard orientation:
 ---------------------------------------------------------------------
 Center     Atomic      Atomic             Coordinates (Angstroms)
 Number     Number       Type             X           Y           Z
 ---------------------------------------------------------------------
      1          6           0       -2.529655   -0.245611   -0.599413
      2          6           0       -0.944257    0.891430   -0.495953
      3          7           0       -1.460093   -0.170007    0.822152
      4          6           0       -0.107129    0.231325    0.510988
      5          6           0        0.819522   -0.883644    0.102717
      6          6           0        2.191382   -0.399235   -0.276298
      7          8           0        2.589614    0.721865   -0.115352
      8          1           0       -2.167809   -1.074187   -1.193815
      9          1           0       -3.339972   -0.591537    0.053006
     10          1           0       -2.948746    0.522721   -1.248303
     11          1           0       -1.255622    1.879945   -0.137655
     12          1           0       -1.868479    0.451877    1.511051
     13          1           0        0.300478    0.880385    1.281152
     14          1           0        0.403012   -1.434535   -0.745683
     15          1           0        0.945128   -1.613696    0.912260
     16          1           0        2.856570   -1.171429   -0.716512
 ---------------------------------------------------------------------

 SCF Done:  E(RHF) =  -324.035834864     A.U. after    2 cycles

 The electronic state is 1-A.
 Alpha  occ. eigenvalues --  -20.54519 -15.54716 -11.34115 -11.30303 -11.26881
 Alpha  occ. eigenvalues --  -11.24699 -11.23903  -1.48023  -1.26133  -1.05008
 Alpha  occ. eigenvalues --   -0.96049  -0.92208  -0.82827  -0.75160  -0.74090
 Alpha  occ. eigenvalues --   -0.67868  -0.63224  -0.62294  -0.61370  -0.58456
 Alpha  occ. eigenvalues --   -0.57294  -0.54020  -0.51041  -0.49803  -0.43799
 Alpha  occ. eigenvalues --   -0.41465  -0.32139
 Alpha virt. eigenvalues --    0.03153   0.03632   0.04080   0.04700   0.05406
 Alpha virt. eigenvalues --    0.05574   0.06247   0.07436   0.09101   0.09747
 Alpha virt. eigenvalues --    0.11435   0.11944   0.13124   0.13734   0.14146

 Mulliken charges:
               1
     1  C   -0.179277
     2  C   -0.159409
     3  N    0.474213
     4  C   -0.742699
     5  C   -0.483883
     6  C    1.134467
     7  O   -1.153922
     8  H    0.131513
     9  H    0.046029
    10  H    0.189729
    11  H   -0.003677
    12  H    0.259665
    13  H   -0.133945
    14  H    0.240446
    15  H    0.274698
    16  H    0.106054
 Sum of Mulliken charges =  -0.00000

 Dipole moment (field-independent basis, Debye):
    X=             -2.1862    Y=             -1.7166    Z=              0.9489  Tot=              2.9371

 Test job not archived.
 1\1\GINC-SE162\SP\RHF\Aug-CC-pVDZ\C5H9N1O1\OHZDE\09-Apr-2025\0\\#t hf
 aug-cc-pvdz iop(5/13=1,5/36=2,99/5=2) pseudo=read geom=check guess=(re
 ad,tcheck) scf=(maxcycle=1)\\title\\0,1\C,0,-1.76066722,0.61884611,1.1
 9118949\C,0,-0.98768049,-0.75517408,0.03723366\N,0,-0.88790705,0.97483
 913,-0.31946769\C,0,0.06623669,-0.04403418,-0.69351321\C,0,1.43623038,
 0.09927867,-0.08433304\C,0,2.36402824,-1.02509169,-0.45214794\O,0,2.12
 741389,-1.86534566,-1.27637098\H,0,-1.0216375,0.68618336,1.97864507\H,
 0,-2.27942798,1.57987132,1.09503642\H,0,-2.51327809,-0.12523958,1.4499

 Normal termination of Gaussian 16 at Wed Apr  9 18:29:38 2025.
