 Gaussian 16, Revision C.01,

 ----------------------------------------------------------------------
 #t hf aug-cc-pvdz symm=none int=(grid=ultrafine) guess=(read,tcheck) s
 table=(opt,rrhf)
 ----------------------------------------------------------------------
 -----
 title
 -----
 Symbolic Z-matrix:
 Charge =  0 Multiplicity = 1

 SCF Done:  E(RHF) =  -344.676785847     A.U. after   16 cycles

 1\1\GINC-SE219\Stability\RHF\Aug-CC-pVDZ\C5H10O2\OHZDE\09-Apr-2025\0\\
 #t hf aug-cc-pvdz symm=none int=(grid=ultrafine) guess=(read,tcheck) s
 table=(opt,rrhf)\\title\\0,1\C,0,1.94230564,0.35572712,-0.75467578\C,0
 ,1.0027537,-0.80091806,-0.75211156\C,0,0.39699894,-0.32513223,1.553878
 35\O,0,-0.31417164,0.7367988,0.89468809\C,0,-1.03657565,-0.10230729,0.
 08200977\C,0,-2.38499404,0.37399835,-0.33685499\O,0,-0.29213855,-0.651
 89138,-0.96145938\H,0,1.93370775,0.84953664,-1.73248897\H,0,2.95589993
 ,-0.00630194,-0.57679576\H,0,1.69296736,1.12173097,-0.01712216\H,0,1.3

 Normal termination of Gaussian 16 at Wed Apr  9 18:07:56 2025.
 Gaussian 16:  ES64L-G16RevC.01  3-Jul-2019

 ----------------------------------------------------------------------
 #t hf aug-cc-pvdz iop(5/13=1,5/36=2,99/5=2) pseudo=read geom=check gue
 ss=(read,tcheck) scf=(maxcycle=1)
 ----------------------------------------------------------------------
 -----
 title
 -----
 Structure from the checkpoint file:  "Grambow2020_wb97xd3_007115_forward_mol1.chk"
 Charge =  0 Multiplicity = 1

                         Standard orientation:
 ---------------------------------------------------------------------
 Center     Atomic      Atomic             Coordinates (Angstroms)
 Number     Number       Type             X           Y           Z
 ---------------------------------------------------------------------
      1          6           0       -2.047489   -0.376686    0.673946
      2          6           0       -1.236612   -0.679629   -0.539024
      3          6           0       -0.310477    1.567986   -0.501641
      4          8           0        0.419350    0.989188    0.593958
      5          6           0        0.949061   -0.033346   -0.154535
      6          6           0        2.277957   -0.553559    0.274369
      7          8           0        0.031697   -1.037770   -0.462165
      8          1           0       -2.107616   -1.259022    1.320404
      9          1           0       -3.063434   -0.120323    0.370278
     10          1           0       -1.634194    0.428915    1.284774
     11          1           0       -1.743813   -1.181855   -1.358877
     12          1           0       -1.341314    1.818362   -0.257837
     13          1           0        0.217418    2.463057   -0.837940
     14          1           0        0.431699    0.726325   -1.245867
     15          1           0        2.248357   -0.883426    1.317051
     16          1           0        2.571481   -1.392523   -0.354205
     17          1           0        3.018397    0.240547    0.189191
 ---------------------------------------------------------------------

 SCF Done:  E(RHF) =  -345.035415221     A.U. after    2 cycles

 The electronic state is 1-A.
 Alpha  occ. eigenvalues --  -20.60499 -20.55844 -11.34143 -11.31962 -11.28959
 Alpha  occ. eigenvalues --  -11.23660 -11.23642  -1.55950  -1.47235  -1.05809
 Alpha  occ. eigenvalues --   -1.00115  -0.90852  -0.88649  -0.79831  -0.71341
 Alpha  occ. eigenvalues --   -0.69744  -0.67865  -0.63222  -0.59690  -0.57274
 Alpha  occ. eigenvalues --   -0.56750  -0.55636  -0.55201  -0.53806  -0.50428
 Alpha  occ. eigenvalues --   -0.45460  -0.41356  -0.26926
 Alpha virt. eigenvalues --    0.03665   0.03845   0.03999   0.04193   0.05942
 Alpha virt. eigenvalues --    0.06222   0.06528   0.07394   0.07535   0.08506
 Alpha virt. eigenvalues --    0.09140   0.11324   0.12979   0.14011   0.14373

 Mulliken charges:
               1
     1  C   -0.452576
     2  C    0.752342
     3  C    0.164264
     4  O   -1.348293
     5  C    1.184857
     6  C   -0.619847
     7  O   -1.329554
     8  H    0.144609
     9  H    0.190135
    10  H    0.119313
    11  H   -0.088848
    12  H   -0.027814
    13  H   -0.162896
    14  H    0.825074
    15  H    0.242120
    16  H    0.191946
    17  H    0.215169
 Sum of Mulliken charges =  -0.00000

 Dipole moment (field-independent basis, Debye):
    X=             -0.5179    Y=             -0.5938    Z=             -0.1443  Tot=              0.8010

 Test job not archived.
 1\1\GINC-SE219\SP\RHF\Aug-CC-pVDZ\C5H10O2\OHZDE\09-Apr-2025\0\\#t hf a
 ug-cc-pvdz iop(5/13=1,5/36=2,99/5=2) pseudo=read geom=check guess=(rea
 d,tcheck) scf=(maxcycle=1)\\title\\0,1\C,0,1.94230564,0.35572712,-0.75
 467578\C,0,1.0027537,-0.80091806,-0.75211156\C,0,0.39699894,-0.3251322
 3,1.55387835\O,0,-0.31417164,0.7367988,0.89468809\C,0,-1.03657565,-0.1
 0230729,0.08200977\C,0,-2.38499404,0.37399835,-0.33685499\O,0,-0.29213
 855,-0.65189138,-0.96145938\H,0,1.93370775,0.84953664,-1.73248897\H,0,
 2.95589993,-0.00630194,-0.57679576\H,0,1.69296736,1.12173097,-0.017122

 Normal termination of Gaussian 16 at Wed Apr  9 18:08:02 2025.
