 Gaussian 16, Revision C.01,

 ----------------------------------------------------------------------
 #t hf aug-cc-pvdz symm=none int=(grid=ultrafine) guess=(read,tcheck) s
 table=(opt,rrhf)
 ----------------------------------------------------------------------
 -----
 title
 -----
 Symbolic Z-matrix:
 Charge =  0 Multiplicity = 1

 SCF Done:  E(RHF) =  -380.610006942     A.U. after   15 cycles
 Normal termination of Gaussian 16 at Wed Apr  9 18:23:22 2025.
 Gaussian 16:  ES64L-G16RevC.01  3-Jul-2019

 ----------------------------------------------------------------------
 #t hf aug-cc-pvdz iop(5/13=1,5/36=2,99/5=2) pseudo=read geom=check gue
 ss=(read,tcheck) scf=(maxcycle=1)
 ----------------------------------------------------------------------
 -----
 title
 -----
 Structure from the checkpoint file:  "Grambow2020_wb97xd3_007509_forward_mol1.chk"
 Charge =  0 Multiplicity = 1

                         Standard orientation:
 ---------------------------------------------------------------------
 Center     Atomic      Atomic             Coordinates (Angstroms)
 Number     Number       Type             X           Y           Z
 ---------------------------------------------------------------------
      1          8           0        2.330593   -1.026026   -0.094885
      2          6           0        2.006885    0.114840   -0.686680
      3          6           0        0.590072    1.172166    0.776124
      4          6           0       -0.626861    0.639614    0.151695
      5          8           0       -1.253779    1.238537   -0.702402
      6          6           0       -1.104533   -0.733485    0.589472
      7          8           0       -2.155131   -1.178411   -0.207134
      8          1           0        3.129202   -0.903394    0.428537
      9          1           0        1.173299   -0.074123   -1.370114
     10          1           0        1.718862    1.103492    0.030516
     11          1           0        0.593738    2.260343    0.821544
     12          1           0        0.876151    0.697461    1.712496
     13          1           0       -0.261836   -1.436216    0.553380
     14          1           0       -1.407991   -0.654611    1.644296
     15          1           0       -2.388262   -0.424566   -0.768947
 ---------------------------------------------------------------------

 SCF Done:  E(RHF) =  -380.996878460     A.U. after    2 cycles

 The electronic state is 1-A.
 Alpha  occ. eigenvalues --  -20.62708 -20.54228 -20.54019 -11.34740 -11.34239
 Alpha  occ. eigenvalues --  -11.29605 -11.26579  -1.54608  -1.48774  -1.44416
 Alpha  occ. eigenvalues --   -1.06166  -0.96438  -0.91912  -0.78157  -0.74080
 Alpha  occ. eigenvalues --   -0.71220  -0.68413  -0.66103  -0.65508  -0.62311
 Alpha  occ. eigenvalues --   -0.60722  -0.58954  -0.54053  -0.52826  -0.51349
 Alpha  occ. eigenvalues --   -0.44478  -0.42801  -0.34048
 Alpha virt. eigenvalues --    0.02286   0.03565   0.04223   0.04930   0.06206
 Alpha virt. eigenvalues --    0.06652   0.06998   0.07377   0.08368   0.10623
 Alpha virt. eigenvalues --    0.11901   0.13157   0.13726   0.14227   0.14759

 Mulliken charges:
               1
     1  O   -0.915562
     2  C    0.300598
     3  C   -0.473764
     4  C    1.165949
     5  O   -1.490254
     6  C    0.794583
     7  O   -1.214010
     8  H    0.335588
     9  H    0.050263
    10  H    0.637619
    11  H    0.046090
    12  H    0.053804
    13  H    0.150567
    14  H    0.254405
    15  H    0.304124
 Sum of Mulliken charges =  -0.00000

 Dipole moment (field-independent basis, Debye):
    X=              3.9043    Y=              0.0627    Z=              2.6888  Tot=              4.7410

 Test job not archived.
 1\1\GINC-SE219\SP\RHF\Aug-CC-pVDZ\C4H8O3\OHZDE\09-Apr-2025\0\\#t hf au
 g-cc-pvdz iop(5/13=1,5/36=2,99/5=2) pseudo=read geom=check guess=(read
 ,tcheck) scf=(maxcycle=1)\\title\\0,1\O,0,-1.35328484,1.94700861,-0.01
 592765\C,0,-1.3748916,0.90260624,-0.83161149\C,0,-0.92963227,-0.912045
 15,0.50025847\C,0,0.51436773,-0.88653595,0.23822547\O,0,1.04429916,-1.
 5476803,-0.63543207\C,0,1.37326655,0.02687721,1.09449021\O,0,2.6800697
 6,0.07992732,0.61936251\H,0,-2.23899058,2.10964614,0.32445582\H,0,-0.3
 9071135,0.80970509,-1.30109222\H,0,-1.70288843,-0.21612239,-0.36725556

 Normal termination of Gaussian 16 at Wed Apr  9 18:23:27 2025.
