 Gaussian 16, Revision C.01,

 ----------------------------------------------------------------------
 #t hf aug-cc-pvdz symm=none int=(grid=ultrafine) guess=(read,tcheck) s
 table=(opt,rrhf)
 ----------------------------------------------------------------------
 -----
 title
 -----
 Symbolic Z-matrix:
 Charge =  0 Multiplicity = 1

 SCF Done:  E(RHF) =  -321.433410670     A.U. after   16 cycles
 Normal termination of Gaussian 16 at Wed Apr  9 18:23:02 2025.
 Gaussian 16:  ES64L-G16RevC.01  3-Jul-2019

 ----------------------------------------------------------------------
 #t hf aug-cc-pvdz iop(5/13=1,5/36=2,99/5=2) pseudo=read geom=check gue
 ss=(read,tcheck) scf=(maxcycle=1)
 ----------------------------------------------------------------------
 -----
 title
 -----
 Structure from the checkpoint file:  "Grambow2020_wb97xd3_007505_reverse_mol2.chk"
 Charge =  0 Multiplicity = 1

                         Standard orientation:
 ---------------------------------------------------------------------
 Center     Atomic      Atomic             Coordinates (Angstroms)
 Number     Number       Type             X           Y           Z
 ---------------------------------------------------------------------
      1          8           0        0.228000    1.653451    0.046374
      2          6           0        0.489493    0.480794   -0.014541
      3          6           0        1.901675   -0.006258    0.101395
      4          6           0        2.287375   -1.227703   -0.091646
      5          6           0       -0.548296   -0.572589   -0.198693
      6          6           0       -1.727569   -0.497368    0.708886
      7          7           0       -1.850488   -0.170365   -0.692238
      8          1           0        2.679756    0.720083    0.335726
      9          1           0       -0.180955   -1.540897   -0.528842
     10          1           0       -1.732435    0.308461    1.434401
     11          1           0       -2.198852   -1.421569    1.019337
     12          1           0       -1.854164    0.837622   -0.818363
 ---------------------------------------------------------------------

 SCF Done:  E(RHF) =  -321.757519617     A.U. after    2 cycles

 The electronic state is 1-A.
 Alpha  occ. eigenvalues --  -20.56606 -15.52440 -11.38283 -11.34253 -11.29452
 Alpha  occ. eigenvalues --  -11.29094 -11.26933  -1.50942  -1.30138  -1.11962
 Alpha  occ. eigenvalues --   -0.97015  -0.91042  -0.83468  -0.78617  -0.71363
 Alpha  occ. eigenvalues --   -0.68787  -0.66019  -0.60357  -0.58929  -0.54795
 Alpha  occ. eigenvalues --   -0.52752  -0.50037  -0.45225  -0.44117  -0.44101
 Alpha virt. eigenvalues --    0.02388   0.03648   0.03926   0.05006   0.05529
 Alpha virt. eigenvalues --    0.06314   0.06488   0.08648   0.09490   0.10462
 Alpha virt. eigenvalues --    0.10922   0.11885   0.13619   0.13754   0.14845

 Mulliken charges:
               1
     1  O   -1.474288
     2  C    0.977718
     3  C    0.740685
     4  C   -0.396712
     5  C   -0.476080
     6  C    0.233779
     7  N    0.503370
     8  H   -0.085675
     9  H   -0.123417
    10  H   -0.060896
    11  H   -0.055608
    12  H    0.217125
 Sum of Mulliken charges =  -0.00000

 Dipole moment (field-independent basis, Debye):
    X=              0.5264    Y=              0.0033    Z=              1.6073  Tot=              1.6913

 Test job not archived.
 1\1\GINC-SE035\SP\RHF\Aug-CC-pVDZ\C5H5N1O1\OHZDE\09-Apr-2025\0\\#t hf
 aug-cc-pvdz iop(5/13=1,5/36=2,99/5=2) pseudo=read geom=check guess=(re
 ad,tcheck) scf=(maxcycle=1)\\title\\0,1\O,0,0.58442841,0.04973544,1.74
 921747\C,0,0.73809718,0.12110285,0.55820662\C,0,2.09377514,-0.0366189,
 -0.05999928\C,0,2.3713791,0.16319011,-1.30938641\C,0,-0.38541918,0.359
 68541,-0.39117321\C,0,-1.58530163,-0.50663396,-0.21850105\N,0,-1.62559
 707,0.89225485,0.13741341\H,0,2.92669706,-0.31061533,0.58735001\H,0,-0
 .09754779,0.69287942,-1.3849892\H,0,-1.54216139,-1.24500504,0.57440705

 Normal termination of Gaussian 16 at Wed Apr  9 18:23:07 2025.
