 Gaussian 16, Revision C.01,

 ----------------------------------------------------------------------
 #t hf aug-cc-pvdz symm=none int=(grid=ultrafine) guess=(read,tcheck) s
 table=(opt,rrhf)
 ----------------------------------------------------------------------
 -----
 title
 -----
 Symbolic Z-matrix:
 Charge =  0 Multiplicity = 1

 SCF Done:  E(RHF) =  -283.548922474     A.U. after   17 cycles
 Normal termination of Gaussian 16 at Wed Apr  9 15:43:40 2025.
 Gaussian 16:  ES64L-G16RevC.01  3-Jul-2019

 ----------------------------------------------------------------------
 #t hf aug-cc-pvdz iop(5/13=1,5/36=2,99/5=2) pseudo=read geom=check gue
 ss=(read,tcheck) scf=(maxcycle=1)
 ----------------------------------------------------------------------
 -----
 title
 -----
 Structure from the checkpoint file:  "Grambow2020_b97d3_006722_reverse_mol1.chk"
 Charge =  0 Multiplicity = 1

                         Standard orientation:
 ---------------------------------------------------------------------
 Center     Atomic      Atomic             Coordinates (Angstroms)
 Number     Number       Type             X           Y           Z
 ---------------------------------------------------------------------
      1          6           0       -0.419045   -1.034362    0.341226
      2          6           0       -1.624673   -0.121847    0.069497
      3          8           0       -1.539958    1.026028   -0.316161
      4          6           0        1.216142    0.942137    0.470048
      5          7           0        1.936467    0.038650   -0.111909
      6          6           0        0.829464   -0.738944   -0.426538
      7          1           0       -0.218311   -0.914591    1.422708
      8          1           0       -0.737520   -2.075431    0.148673
      9          1           0       -2.615889   -0.592876    0.276487
     10          1           0        1.446751    1.982914    0.176923
     11          1           0        0.878031   -1.160695   -1.437538
 ---------------------------------------------------------------------

 SCF Done:  E(RHF) =  -283.832772196     A.U. after    2 cycles

 The electronic state is 1-A.
 Alpha  occ. eigenvalues --  -20.56181 -15.54674 -11.36214 -11.34106 -11.28408
 Alpha  occ. eigenvalues --  -11.27831  -1.48463  -1.29379  -1.06939  -0.91969
 Alpha  occ. eigenvalues --   -0.83268  -0.74985  -0.70458  -0.68134  -0.65238
 Alpha  occ. eigenvalues --   -0.63377  -0.57982  -0.55992  -0.51544  -0.49985
 Alpha  occ. eigenvalues --   -0.43092  -0.33184
 Alpha virt. eigenvalues --    0.02768   0.03718   0.04738   0.04901   0.05800
 Alpha virt. eigenvalues --    0.06780   0.08895   0.09488   0.10040   0.11345
 Alpha virt. eigenvalues --    0.12231   0.13167   0.13834   0.14399   0.15046

 Mulliken charges:
               1
     1  C   -0.571896
     2  C    1.076490
     3  O   -1.097350
     4  C   -0.377879
     5  N    0.558293
     6  C   -0.342475
     7  H    0.407263
     8  H    0.199038
     9  H    0.149642
    10  H    0.036111
    11  H   -0.037238
 Sum of Mulliken charges =   0.00000

 Dipole moment (field-independent basis, Debye):
    X=             -1.7074    Y=             -3.0514    Z=              0.0195  Tot=              3.4967

 Test job not archived.
 1\1\GINC-SE163\SP\RHF\Aug-CC-pVDZ\C4H5N1O1\OHZDE\09-Apr-2025\0\\#t hf
 aug-cc-pvdz iop(5/13=1,5/36=2,99/5=2) pseudo=read geom=check guess=(re
 ad,tcheck) scf=(maxcycle=1)\\title\\0,1\C,0,-0.90113749,0.09314438,-0.
 08762026\C,0,-0.42091019,-0.62796131,-1.35625987\O,0,0.73753426,-0.908
 61317,-1.58596793\C,0,1.45349849,0.95017655,0.47644472\N,0,0.97545404,
 0.6937747,1.65099258\C,0,-0.05977909,-0.07621773,1.13669203\H,0,-0.924
 24787,1.16315382,-0.36831515\H,0,-1.93295426,-0.24574108,0.11935217\H,
 0,-1.23160099,-0.8664772,-2.08640579\H,0,2.54575803,0.81109815,0.37671

 Normal termination of Gaussian 16 at Wed Apr  9 15:43:43 2025.
