 Gaussian 16, Revision C.01,

 ----------------------------------------------------------------------
 #t hf aug-cc-pvdz symm=none int=(grid=ultrafine) guess=(read,tcheck) s
 table=(opt,rrhf)
 ----------------------------------------------------------------------
 -----
 title
 -----
 Symbolic Z-matrix:
 Charge =  0 Multiplicity = 1

 SCF Done:  E(RHF) =  -322.615344500     A.U. after   15 cycles
 Normal termination of Gaussian 16 at Wed Apr  9 18:35:46 2025.
 Gaussian 16:  ES64L-G16RevC.01  3-Jul-2019

 ----------------------------------------------------------------------
 #t hf aug-cc-pvdz iop(5/13=1,5/36=2,99/5=2) pseudo=read geom=check gue
 ss=(read,tcheck) scf=(maxcycle=1)
 ----------------------------------------------------------------------
 -----
 title
 -----
 Structure from the checkpoint file:  "Grambow2020_wb97xd3_007750_reverse_mol1.chk"
 Charge =  0 Multiplicity = 1

                         Standard orientation:
 ---------------------------------------------------------------------
 Center     Atomic      Atomic             Coordinates (Angstroms)
 Number     Number       Type             X           Y           Z
 ---------------------------------------------------------------------
      1          6           0       -2.463135   -0.362209    0.089677
      2          6           0       -0.993893   -0.152797   -0.016797
      3          6           0       -0.077462   -1.102355   -0.203159
      4          6           0        1.285704   -0.637994   -0.090469
      5          7           0        2.417900   -0.578601    0.281406
      6          8           0        0.913603    1.170096   -0.299250
      7          6           0       -0.403760    1.238897    0.122704
      8          1           0       -2.830224    0.011560    1.048962
      9          1           0       -2.980652    0.201652   -0.690346
     10          1           0       -2.736629   -1.412415    0.001082
     11          1           0       -0.266379   -2.163233   -0.282918
     12          1           0        1.983935    0.644560    0.256930
     13          1           0       -0.513333    1.560345    1.171049
     14          1           0       -0.975559    1.945718   -0.492331
 ---------------------------------------------------------------------

 SCF Done:  E(RHF) =  -322.949738026     A.U. after    2 cycles

 The electronic state is 1-A.
 Alpha  occ. eigenvalues --  -20.51482 -15.50842 -11.36304 -11.29839 -11.29158
 Alpha  occ. eigenvalues --  -11.27438 -11.26421  -1.43175  -1.26241  -1.13721
 Alpha  occ. eigenvalues --   -1.01090  -0.94007  -0.81578  -0.75412  -0.69433
 Alpha  occ. eigenvalues --   -0.66414  -0.63871  -0.62255  -0.59547  -0.58561
 Alpha  occ. eigenvalues --   -0.56768  -0.55491  -0.51739  -0.43202  -0.40701
 Alpha  occ. eigenvalues --   -0.38734
 Alpha virt. eigenvalues --    0.02687   0.03455   0.03949   0.04433   0.06802
 Alpha virt. eigenvalues --    0.06878   0.07549   0.08246   0.09607   0.10936
 Alpha virt. eigenvalues --    0.11413   0.12757   0.13440   0.13729   0.14179

 Mulliken charges:
               1
     1  C   -0.566154
     2  C    0.380155
     3  C    0.496386
     4  C   -1.866086
     5  N    0.818553
     6  O   -1.549965
     7  C    0.623858
     8  H    0.246909
     9  H    0.255937
    10  H    0.125752
    11  H   -0.140916
    12  H    0.825023
    13  H    0.249896
    14  H    0.100651
 Sum of Mulliken charges =  -0.00000

 Dipole moment (field-independent basis, Debye):
    X=             -5.3795    Y=             -0.6602    Z=              0.3908  Tot=              5.4339

 Test job not archived.
 1\1\GINC-SE162\SP\RHF\Aug-CC-pVDZ\C5H7N1O1\OHZDE\09-Apr-2025\0\\#t hf
 aug-cc-pvdz iop(5/13=1,5/36=2,99/5=2) pseudo=read geom=check guess=(re
 ad,tcheck) scf=(maxcycle=1)\\title\\0,1\C,0,-1.90951192,-0.20989516,-0
 .38472134\C,0,-0.43741409,-0.09901251,-0.19898681\C,0,0.47246736,-0.98
 941003,-0.59337746\C,0,1.81115874,-0.71229576,-0.12683393\N,0,2.869898
 58,-0.8857981,0.39532761\O,0,1.52388366,1.07302225,0.29901722\C,0,0.15
 798467,1.09368398,0.52730739\H,0,-2.41650559,-0.17947027,0.58312097\H,
 0,-2.2801626,0.63892814,-0.96464904\H,0,-2.19195994,-1.13024646,-0.893

 Normal termination of Gaussian 16 at Wed Apr  9 18:35:51 2025.
