 Gaussian 16, Revision C.01,

 ----------------------------------------------------------------------
 #t hf aug-cc-pvdz symm=none int=(grid=ultrafine) guess=(read,tcheck) s
 table=(opt,rrhf)
 ----------------------------------------------------------------------
 -----
 title
 -----
 Symbolic Z-matrix:
 Charge =  0 Multiplicity = 1

 SCF Done:  E(RHF) =  -268.686821263     A.U. after   15 cycles
 Normal termination of Gaussian 16 at Wed Apr  9 16:56:14 2025.
 Gaussian 16:  ES64L-G16RevC.01  3-Jul-2019

 ----------------------------------------------------------------------
 #t hf aug-cc-pvdz iop(5/13=1,5/36=2,99/5=2) pseudo=read geom=check gue
 ss=(read,tcheck) scf=(maxcycle=1)
 ----------------------------------------------------------------------
 -----
 title
 -----
 Structure from the checkpoint file:  "Grambow2020_wb97xd3_006194_reverse_mol1.chk"
 Charge =  0 Multiplicity = 1

                         Standard orientation:
 ---------------------------------------------------------------------
 Center     Atomic      Atomic             Coordinates (Angstroms)
 Number     Number       Type             X           Y           Z
 ---------------------------------------------------------------------
      1          6           0        1.711390    0.817768    0.069865
      2          6           0        1.948573   -0.611613   -0.227084
      3          6           0        0.630904   -0.182253    0.407861
      4          6           0       -0.515980   -0.292234   -0.481903
      5          6           0       -1.820226   -0.623936    0.125886
      6          8           0       -1.864108    0.800640    0.011786
      7          1           0        1.514638    1.485941   -0.757312
      8          1           0        2.228304    1.263139    0.909001
      9          1           0        2.622005   -1.173907    0.404899
     10          1           0        1.903494   -0.933411   -1.258228
     11          1           0        0.510276   -0.426102    1.460079
     12          1           0       -1.194947    0.797019   -0.925355
     13          1           0       -2.568592   -1.145169   -0.469375
     14          1           0       -1.830281   -0.919021    1.174252
 ---------------------------------------------------------------------

 SCF Done:  E(RHF) =  -268.969964553     A.U. after    2 cycles

 The electronic state is 1-A.
 Alpha  occ. eigenvalues --  -20.57593 -11.29313 -11.27584 -11.25061 -11.24723
 Alpha  occ. eigenvalues --  -11.24560  -1.47022  -1.16642  -0.98602  -0.88054
 Alpha  occ. eigenvalues --   -0.83552  -0.78840  -0.70336  -0.68654  -0.63378
 Alpha  occ. eigenvalues --   -0.59786  -0.56605  -0.53439  -0.51506  -0.48012
 Alpha  occ. eigenvalues --   -0.44893  -0.41608  -0.36414
 Alpha virt. eigenvalues --    0.03420   0.03901   0.04120   0.04600   0.06043
 Alpha virt. eigenvalues --    0.06671   0.06932   0.08161   0.09912   0.11180
 Alpha virt. eigenvalues --    0.12818   0.13174   0.13428   0.13597   0.14990

 Mulliken charges:
               1
     1  C    0.214838
     2  C    0.221129
     3  C    0.786152
     4  C   -0.688823
     5  C    0.480742
     6  O   -1.177341
     7  H   -0.108335
     8  H   -0.114713
     9  H   -0.119351
    10  H   -0.065075
    11  H   -0.151158
    12  H    0.637467
    13  H    0.045531
    14  H    0.038935
 Sum of Mulliken charges =   0.00000

 Dipole moment (field-independent basis, Debye):
    X=              1.1765    Y=             -1.1883    Z=              0.7618  Tot=              1.8376

 Test job not archived.
 1\1\GINC-SE113\SP\RHF\Aug-CC-pVDZ\C5H8O1\OHZDE\09-Apr-2025\0\\#t hf au
 g-cc-pvdz iop(5/13=1,5/36=2,99/5=2) pseudo=read geom=check guess=(read
 ,tcheck) scf=(maxcycle=1)\\title\\0,1\C,0,-1.684527,-0.23940739,-0.167
 17557\C,0,-1.3114196,1.19138886,-0.20147093\C,0,-0.39038541,0.18849633
 ,0.48384545\C,0,0.85670514,-0.04936317,-0.22841025\C,0,2.05498583,-0.3
 5345373,0.57914389\O,0,1.58334208,-1.6465049,0.19193484\H,0,-1.6036288
 2,-0.81087707,-1.08165079\H,0,-2.47492724,-0.55064671,0.50222997\H,0,-
 1.82947425,1.8842389,0.44711658\H,0,-0.96096846,1.6055993,-1.13659618\

 Normal termination of Gaussian 16 at Wed Apr  9 16:56:18 2025.
