 Gaussian 16, Revision C.01,

 ----------------------------------------------------------------------
 #t hf aug-cc-pvdz symm=none int=(grid=ultrafine) guess=(read,tcheck) s
 table=(opt,rrhf)
 ----------------------------------------------------------------------
 -----
 title
 -----
 Symbolic Z-matrix:
 Charge =  0 Multiplicity = 1

 SCF Done:  E(RHF) =  -307.734385179     A.U. after   15 cycles

 1\1\GINC-SE362\Stability\RHF\Aug-CC-pVDZ\C6H10O1\OHZDE\09-Apr-2025\0\\
 #t hf aug-cc-pvdz symm=none int=(grid=ultrafine) guess=(read,tcheck) s
 table=(opt,rrhf)\\title\\0,1\C,0,1.72856708,-0.56598453,-0.38683484\C,
 0,0.81068922,0.25774546,0.50805359\C,0,0.04817558,1.38703994,-0.200373
 58\C,0,-1.35353845,0.84532808,-0.02070028\O,0,-1.65115078,-0.27547753,
 -0.80116888\C,0,-1.11764029,-1.309849,0.03028936\C,0,-0.36975758,-0.54
 078352,1.11518228\H,0,2.08990421,-1.45936908,0.12783517\H,0,2.60012453
 ,0.02732292,-0.66989851\H,0,1.2308856,-0.87945671,-1.30659868\H,0,1.41

 Normal termination of Gaussian 16 at Wed Apr  9 19:02:58 2025.
 Gaussian 16:  ES64L-G16RevC.01  3-Jul-2019

 ----------------------------------------------------------------------
 #t hf aug-cc-pvdz iop(5/13=1,5/36=2,99/5=2) pseudo=read geom=check gue
 ss=(read,tcheck) scf=(maxcycle=1)
 ----------------------------------------------------------------------
 -----
 title
 -----
 Structure from the checkpoint file:  "Grambow2020_wb97xd3_008492_reverse_mol1.chk"
 Charge =  0 Multiplicity = 1

                         Standard orientation:
 ---------------------------------------------------------------------
 Center     Atomic      Atomic             Coordinates (Angstroms)
 Number     Number       Type             X           Y           Z
 ---------------------------------------------------------------------
      1          6           0        1.940604   -0.561427   -0.470409
      2          6           0        1.074618    0.260806    0.476089
      3          6           0        0.298826    1.411812   -0.181128
      4          6           0       -1.101608    0.887067    0.051173
      5          8           0       -1.449253   -0.216911   -0.732591
      6          6           0       -0.895492   -1.271751    0.058953
      7          6           0       -0.090032   -0.530596    1.121830
      8          1           0        2.310715   -1.467862    0.014338
      9          1           0        2.807715    0.023994   -0.782101
     10          1           0        1.398952   -0.853229   -1.372286
     11          1           0        1.720162    0.639341    1.270992
     12          1           0        0.443184    2.356418    0.347036
     13          1           0        0.493049    1.581015   -1.243734
     14          1           0       -1.919904    1.611695    0.099572
     15          1           0       -0.274378   -1.950318   -0.533221
     16          1           0       -1.722840   -1.848900    0.482620
     17          1           0       -1.024133    0.467669    1.238463
 ---------------------------------------------------------------------

 SCF Done:  E(RHF) =  -308.057334351     A.U. after    2 cycles

 The electronic state is 1-A.
 Alpha  occ. eigenvalues --  -20.55957 -11.33709 -11.28822 -11.25301 -11.24477
 Alpha  occ. eigenvalues --  -11.24118 -11.23067  -1.49404  -1.12895  -1.01338
 Alpha  occ. eigenvalues --   -0.97790  -0.88390  -0.84694  -0.73349  -0.69469
 Alpha  occ. eigenvalues --   -0.65991  -0.64307  -0.60386  -0.59011  -0.57699
 Alpha  occ. eigenvalues --   -0.56514  -0.52383  -0.50831  -0.49322  -0.46948
 Alpha  occ. eigenvalues --   -0.42151  -0.31706
 Alpha virt. eigenvalues --    0.03251   0.03484   0.04122   0.04197   0.05707
 Alpha virt. eigenvalues --    0.06018   0.06661   0.06873   0.07496   0.09074
 Alpha virt. eigenvalues --    0.10188   0.11518   0.13274   0.13712   0.14156

 Mulliken charges:
               1
     1  C   -0.268992
     2  C   -0.313801
     3  C   -0.031149
     4  C    0.510013
     5  O   -1.317112
     6  C    0.730299
     7  C   -0.864705
     8  H    0.169128
     9  H    0.110828
    10  H    0.203606
    11  H    0.039152
    12  H    0.142773
    13  H    0.067334
    14  H   -0.040694
    15  H    0.108894
    16  H    0.037226
    17  H    0.717202
 Sum of Mulliken charges =  -0.00000

 Dipole moment (field-independent basis, Debye):
    X=              0.5219    Y=              1.5151    Z=             -0.9984  Tot=              1.8881

 Test job not archived.
 1\1\GINC-SE362\SP\RHF\Aug-CC-pVDZ\C6H10O1\OHZDE\09-Apr-2025\0\\#t hf a
 ug-cc-pvdz iop(5/13=1,5/36=2,99/5=2) pseudo=read geom=check guess=(rea
 d,tcheck) scf=(maxcycle=1)\\title\\0,1\C,0,1.72856708,-0.56598453,-0.3
 8683484\C,0,0.81068922,0.25774546,0.50805359\C,0,0.04817558,1.38703994
 ,-0.20037358\C,0,-1.35353845,0.84532808,-0.02070028\O,0,-1.65115078,-0
 .27547753,-0.80116888\C,0,-1.11764029,-1.309849,0.03028936\C,0,-0.3697
 5758,-0.54078352,1.11518228\H,0,2.08990421,-1.45936908,0.12783517\H,0,
 2.60012453,0.02732292,-0.66989851\H,0,1.2308856,-0.87945671,-1.3065986

 Normal termination of Gaussian 16 at Wed Apr  9 19:03:04 2025.
