 Gaussian 16, Revision C.01,

 ----------------------------------------------------------------------
 #t hf aug-cc-pvdz symm=none int=(grid=ultrafine) guess=(read,tcheck) s
 table=(opt,rrhf)
 ----------------------------------------------------------------------
 -----
 title
 -----
 Symbolic Z-matrix:
 Charge =  0 Multiplicity = 1

 SCF Done:  E(RHF) =  -305.637150041     A.U. after   15 cycles
 Normal termination of Gaussian 16 at Wed Apr  9 03:16:03 2025.
 Gaussian 16:  ES64L-G16RevC.01  3-Jul-2019

 ----------------------------------------------------------------------
 #t hf aug-cc-pvdz iop(5/13=1,5/36=2,99/5=2) pseudo=read geom=check gue
 ss=(read,tcheck) scf=(maxcycle=1)
 ----------------------------------------------------------------------
 -----
 title
 -----
 Structure from the checkpoint file:  "Grambow2020_b97d3_006971_reverse_mol1.chk"
 Charge =  0 Multiplicity = 1

                         Standard orientation:
 ---------------------------------------------------------------------
 Center     Atomic      Atomic             Coordinates (Angstroms)
 Number     Number       Type             X           Y           Z
 ---------------------------------------------------------------------
      1          8           0        1.755590   -1.054651   -0.286326
      2          6           0        1.880875    0.149900    0.232785
      3          6           0        0.839804    1.124131   -0.175342
      4          6           0       -0.753516   -0.255555    0.424387
      5          6           0       -1.883128    0.590566   -0.094063
      6          8           0       -1.973480   -0.813682   -0.152253
      7          1           0        0.141903   -0.805906   -0.087319
      8          1           0        2.125331    0.243719    1.320219
      9          1           0        2.687977    0.783335   -0.288389
     10          1           0        0.692747    2.069625    0.360631
     11          1           0        0.596127    1.135676   -1.238073
     12          1           0       -0.695298   -0.328299    1.516168
     13          1           0       -1.797536    1.107770   -1.054722
     14          1           0       -2.512339    1.086489    0.653505
 ---------------------------------------------------------------------

 SCF Done:  E(RHF) =  -305.950842231     A.U. after    2 cycles

 The electronic state is 1-A.
 Alpha  occ. eigenvalues --  -20.58453 -20.45206 -11.37935 -11.33103 -11.30423
 Alpha  occ. eigenvalues --  -11.30414  -1.50721  -1.36306  -1.06498  -0.95532
 Alpha  occ. eigenvalues --   -0.88526  -0.83967  -0.72757  -0.69722  -0.69192
 Alpha  occ. eigenvalues --   -0.63272  -0.60576  -0.57299  -0.54306  -0.51823
 Alpha  occ. eigenvalues --   -0.48607  -0.44381  -0.36954  -0.35221
 Alpha virt. eigenvalues --    0.01605   0.02091   0.03181   0.03664   0.05012
 Alpha virt. eigenvalues --    0.05741   0.06197   0.08390   0.08833   0.09924
 Alpha virt. eigenvalues --    0.11554   0.12740   0.13623   0.13753   0.14266

 Mulliken charges:
               1
     1  O   -1.339660
     2  C    0.755266
     3  C   -0.195505
     4  C    0.599982
     5  C    0.500086
     6  O   -1.218557
     7  H    0.285604
     8  H    0.153240
     9  H    0.254395
    10  H    0.029320
    11  H    0.081401
    12  H    0.015995
    13  H    0.024409
    14  H    0.054023
 Sum of Mulliken charges =  -0.00000

 Dipole moment (field-independent basis, Debye):
    X=             -1.4290    Y=              6.8685    Z=              1.0330  Tot=              7.0912

 Test job not archived.
 1\1\GINC-SE127\SP\RHF\Aug-CC-pVDZ\C4H8O2\OHZDE\09-Apr-2025\0\\#t hf au
 g-cc-pvdz iop(5/13=1,5/36=2,99/5=2) pseudo=read geom=check guess=(read
 ,tcheck) scf=(maxcycle=1)\\title\\0,1\O,0,2.0348548,0.87071226,0.11639
 41\C,0,1.77817563,-0.39090517,-0.16388121\C,0,0.49485186,-0.90742624,0
 .37072784\C,0,-0.60824846,0.74936065,-0.54584219\C,0,-1.93509175,0.400
 30751,0.06928689\O,0,-1.59060479,1.74999885,-0.13837183\H,0,0.41979512
 ,1.08944731,-0.10542145\H,0,1.96672435,-0.7597411,-1.20286298\H,0,2.36
 006962,-1.12762859,0.50163575\H,0,0.05794709,-1.84784385,0.01354285\H,

 Normal termination of Gaussian 16 at Wed Apr  9 03:16:07 2025.
