 Gaussian 16, Revision C.01,

 ----------------------------------------------------------------------
 #t hf aug-cc-pvdz symm=none int=(grid=ultrafine) guess=(read,tcheck) s
 table=(opt,rrhf)
 ----------------------------------------------------------------------
 -----
 title
 -----
 Symbolic Z-matrix:
 Charge =  0 Multiplicity = 1

 SCF Done:  E(RHF) =  -305.679013355     A.U. after   14 cycles
 Normal termination of Gaussian 16 at Wed Apr  9 16:33:55 2025.
 Gaussian 16:  ES64L-G16RevC.01  3-Jul-2019

 ----------------------------------------------------------------------
 #t hf aug-cc-pvdz iop(5/13=1,5/36=2,99/5=2) pseudo=read geom=check gue
 ss=(read,tcheck) scf=(maxcycle=1)
 ----------------------------------------------------------------------
 -----
 title
 -----
 Structure from the checkpoint file:  "Grambow2020_wb97xd3_006143_reverse_mol1.chk"
 Charge =  0 Multiplicity = 1

                         Standard orientation:
 ---------------------------------------------------------------------
 Center     Atomic      Atomic             Coordinates (Angstroms)
 Number     Number       Type             X           Y           Z
 ---------------------------------------------------------------------
      1          8           0       -2.322053   -0.402510   -0.007381
      2          6           0       -1.245232    0.296784   -0.307682
      3          6           0       -0.014591    0.158455    0.548572
      4          6           0        0.805760   -1.066692    0.106328
      5          8           0        1.843265   -0.229072   -0.422504
      6          6           0        1.217873    0.949426    0.099258
      7          1           0       -2.258587    0.995337    0.084419
      8          1           0       -1.570093    1.669609   -0.057590
      9          1           0       -1.002783    0.457052   -1.374974
     10          1           0       -0.283147    0.197283    1.601382
     11          1           0        1.161622   -1.690848    0.929386
     12          1           0        0.351399   -1.701637   -0.658688
     13          1           0        1.797642    1.393403    0.913023
     14          1           0        1.051387    1.704623   -0.676736
 ---------------------------------------------------------------------

 SCF Done:  E(RHF) =  -305.996553968     A.U. after    2 cycles

 The electronic state is 1-A.
 Alpha  occ. eigenvalues --  -20.55311 -20.49963 -11.37817 -11.30711 -11.30433
 Alpha  occ. eigenvalues --  -11.26431  -1.48460  -1.43477  -1.08186  -0.95974
 Alpha  occ. eigenvalues --   -0.91559  -0.79518  -0.75366  -0.71122  -0.68296
 Alpha  occ. eigenvalues --   -0.63045  -0.60360  -0.58859  -0.57777  -0.49692
 Alpha  occ. eigenvalues --   -0.48869  -0.43193  -0.40319  -0.39798
 Alpha virt. eigenvalues --    0.02775   0.03457   0.04144   0.04413   0.06273
 Alpha virt. eigenvalues --    0.06499   0.07044   0.07875   0.10397   0.11965
 Alpha virt. eigenvalues --    0.13111   0.13499   0.13850   0.14519   0.14935

 Mulliken charges:
               1
     1  O   -1.380007
     2  C    0.746420
     3  C   -0.582817
     4  C    0.857035
     5  O   -1.295659
     6  C    0.977845
     7  H    0.160538
     8  H    0.228719
     9  H    0.129153
    10  H   -0.069098
    11  H    0.057468
    12  H    0.066259
    13  H    0.056135
    14  H    0.048008
 Sum of Mulliken charges =  -0.00000

 Dipole moment (field-independent basis, Debye):
    X=              1.0424    Y=              2.6231    Z=              0.7302  Tot=              2.9155

 Test job not archived.
 1\1\GINC-SE114\SP\RHF\Aug-CC-pVDZ\C4H8O2\OHZDE\09-Apr-2025\0\\#t hf au
 g-cc-pvdz iop(5/13=1,5/36=2,99/5=2) pseudo=read geom=check guess=(read
 ,tcheck) scf=(maxcycle=1)\\title\\0,1\O,0,2.04701796,1.16139647,-0.230
 3557\C,0,1.25385708,0.11088191,-0.15256406\C,0,-0.14257905,0.28035514,
 0.38411919\C,0,-1.08705886,0.75894703,-0.73322146\O,0,-1.75861039,-0.5
 0830834,-0.7609782\C,0,-1.02766041,-0.96988769,0.38132863\H,0,2.275816
 85,0.08356311,0.63703069\H,0,1.80738874,-0.74163397,0.85716172\H,0,1.3
 1074885,-0.6515689,-0.95194644\H,0,-0.12714934,0.8859507,1.28692296\H,

 Normal termination of Gaussian 16 at Wed Apr  9 16:33:59 2025.
