 Gaussian 16, Revision C.01,

 ----------------------------------------------------------------------
 #t hf aug-cc-pvdz symm=none int=(grid=ultrafine) guess=(read,tcheck) s
 table=(opt,rrhf)
 ----------------------------------------------------------------------
 -----
 title
 -----
 Symbolic Z-matrix:
 Charge =  0 Multiplicity = 1

 SCF Done:  E(RHF) =  -320.593159159     A.U. after   16 cycles
 Normal termination of Gaussian 16 at Wed Apr  9 16:09:42 2025.
 Gaussian 16:  ES64L-G16RevC.01  3-Jul-2019

 ----------------------------------------------------------------------
 #t hf aug-cc-pvdz iop(5/13=1,5/36=2,99/5=2) pseudo=read geom=check gue
 ss=(read,tcheck) scf=(maxcycle=1)
 ----------------------------------------------------------------------
 -----
 title
 -----
 Structure from the checkpoint file:  "Grambow2020_b97d3_007135_reverse_mol2.chk"
 Charge =  0 Multiplicity = 1

                         Standard orientation:
 ---------------------------------------------------------------------
 Center     Atomic      Atomic             Coordinates (Angstroms)
 Number     Number       Type             X           Y           Z
 ---------------------------------------------------------------------
      1          8           0        2.049080   -0.009762   -0.006354
      2          6           0        0.721576    0.015923    0.265933
      3          7           0       -0.062371    1.093042    0.055411
      4          6           0       -1.371998    0.777898   -0.261043
      5          6           0       -1.423620   -0.703870    0.048956
      6          8           0       -0.009885   -1.109796   -0.049110
      7          1           0        0.316956    2.034249    0.064727
      8          1           0       -2.157655    1.432354    0.119503
      9          1           0        2.171945   -0.447061   -0.884162
     10          1           0       -2.005196   -1.316032   -0.653529
     11          1           0       -1.758753   -0.938040    1.086221
 ---------------------------------------------------------------------

 SCF Done:  E(RHF) =  -320.913920442     A.U. after    2 cycles

 The electronic state is 1-A.
 Alpha  occ. eigenvalues --  -20.60789 -20.58649 -15.60443 -11.39789 -11.30224
 Alpha  occ. eigenvalues --  -11.23310  -1.54656  -1.47813  -1.28518  -1.01658
 Alpha  occ. eigenvalues --   -0.89706  -0.87477  -0.79364  -0.70573  -0.69479
 Alpha  occ. eigenvalues --   -0.64866  -0.61135  -0.59552  -0.55966  -0.52255
 Alpha  occ. eigenvalues --   -0.51658  -0.49116  -0.24436
 Alpha virt. eigenvalues --    0.03054   0.04387   0.04888   0.05456   0.05736
 Alpha virt. eigenvalues --    0.07960   0.09529   0.09982   0.11276   0.11611
 Alpha virt. eigenvalues --    0.14175   0.14609   0.15304   0.16149   0.16685

 Mulliken charges:
               1
     1  O   -1.172212
     2  C    1.295526
     3  N    0.676803
     4  C   -0.539134
     5  C    0.486499
     6  O   -1.270565
     7  H    0.128415
     8  H   -0.072715
     9  H    0.255256
    10  H    0.085599
    11  H    0.126529
 Sum of Mulliken charges =  -0.00000

 Dipole moment (field-independent basis, Debye):
    X=              0.4873    Y=              0.7866    Z=             -0.0462  Tot=              0.9265

 Test job not archived.
 1\1\GINC-SE100\SP\RHF\Aug-CC-pVDZ\C3H5N1O2\OHZDE\09-Apr-2025\0\\#t hf
 aug-cc-pvdz iop(5/13=1,5/36=2,99/5=2) pseudo=read geom=check guess=(re
 ad,tcheck) scf=(maxcycle=1)\\title\\0,1\O,0,2.21903698,-0.05447886,0.8
 9714454\C,0,1.10485604,-0.01996229,0.12612114\N,0,0.21464888,-1.030749
 59,0.05599004\C,0,-1.08400415,-0.61635136,-0.18140475\C,0,-0.88828663,
 0.84025044,-0.5480166\O,0,0.40422089,1.16688743,0.08108861\H,0,0.48851
 057,-1.99124413,0.23570283\H,0,-1.71089243,-1.24793296,-0.81267318\H,0
 ,2.02640469,0.4356024,1.7335576\H,0,-1.64458289,1.53415471,-0.15690233

 Normal termination of Gaussian 16 at Wed Apr  9 16:09:45 2025.
