 Gaussian 16, Revision C.01,

 ----------------------------------------------------------------------
 #t hf aug-cc-pvdz symm=none int=(grid=ultrafine) guess=(read,tcheck) s
 table=(opt,rrhf)
 ----------------------------------------------------------------------
 -----
 title
 -----
 Symbolic Z-matrix:
 Charge =  0 Multiplicity = 1

 SCF Done:  E(RHF) =  -322.538068659     A.U. after   16 cycles
 Normal termination of Gaussian 16 at Wed Apr  9 03:39:32 2025.
 Gaussian 16:  ES64L-G16RevC.01  3-Jul-2019

 ----------------------------------------------------------------------
 #t hf aug-cc-pvdz iop(5/13=1,5/36=2,99/5=2) pseudo=read geom=check gue
 ss=(read,tcheck) scf=(maxcycle=1)
 ----------------------------------------------------------------------
 -----
 title
 -----
 Structure from the checkpoint file:  "Grambow2020_wb97xd3_007386_reverse_mol1.chk"
 Charge =  0 Multiplicity = 1

                         Standard orientation:
 ---------------------------------------------------------------------
 Center     Atomic      Atomic             Coordinates (Angstroms)
 Number     Number       Type             X           Y           Z
 ---------------------------------------------------------------------
      1          6           0        1.740139   -0.343239    0.500056
      2          6           0        0.608643   -0.911580   -0.303293
      3          6           0       -0.793143   -0.952910    0.289095
      4          8           0       -1.756732   -0.459792   -0.456810
      5          6           0       -0.909831    0.998333    0.420965
      6          7           0        0.086758    1.467624   -0.122400
      7          6           0        1.058437    0.492465   -0.552144
      8          1           0        1.556497   -0.082591    1.537110
      9          1           0        2.743338   -0.692213    0.296708
     10          1           0        0.798325   -1.675220   -1.047906
     11          1           0       -0.646917   -0.102124    1.253816
     12          1           0       -1.009443   -1.846741    0.903587
     13          1           0       -1.817776    1.341404    0.887574
     14          1           0        1.597052    0.764035   -1.447682
 ---------------------------------------------------------------------

 SCF Done:  E(RHF) =  -322.872330087     A.U. after    2 cycles

 The electronic state is 1-A.
 Alpha  occ. eigenvalues --  -20.49587 -15.50652 -11.40126 -11.35016 -11.28824
 Alpha  occ. eigenvalues --  -11.25561 -11.25461  -1.42786  -1.28892  -1.15443
 Alpha  occ. eigenvalues --   -0.97050  -0.90532  -0.82950  -0.81840  -0.74216
 Alpha  occ. eigenvalues --   -0.68969  -0.66465  -0.60894  -0.59232  -0.57968
 Alpha  occ. eigenvalues --   -0.54934  -0.52889  -0.46407  -0.43172  -0.40034
 Alpha  occ. eigenvalues --   -0.35065
 Alpha virt. eigenvalues --    0.03311   0.03491   0.03928   0.04270   0.05483
 Alpha virt. eigenvalues --    0.06051   0.07421   0.08928   0.10002   0.10683
 Alpha virt. eigenvalues --    0.12264   0.12490   0.13339   0.14040   0.14781

 Mulliken charges:
               1
     1  C    0.353228
     2  C    0.346876
     3  C    0.879983
     4  O   -1.409002
     5  C   -1.042068
     6  N    1.044492
     7  C   -0.397934
     8  H   -0.060201
     9  H   -0.131499
    10  H   -0.138752
    11  H    0.811216
    12  H    0.036970
    13  H   -0.085720
    14  H   -0.207590
 Sum of Mulliken charges =  -0.00000

 Dipole moment (field-independent basis, Debye):
    X=              1.6866    Y=             -1.3730    Z=              2.5403  Tot=              3.3441

 Test job not archived.
 1\1\GINC-SE220\SP\RHF\Aug-CC-pVDZ\C5H7N1O1\OHZDE\09-Apr-2025\0\\#t hf
 aug-cc-pvdz iop(5/13=1,5/36=2,99/5=2) pseudo=read geom=check guess=(re
 ad,tcheck) scf=(maxcycle=1)\\title\\0,1\C,0,-1.52015926,-0.277967,0.26
 424699\C,0,-0.56015489,0.37877704,-0.68219118\C,0,0.6495722,1.12416882
 ,-0.13576036\O,0,1.81357879,0.81191139,-0.66076124\C,0,1.41620755,-0.4
 9111871,0.66515908\N,0,0.72457356,-1.44372049,0.31464061\C,0,-0.459025
 84,-1.09155505,-0.43024054\H,0,-1.3959093,-0.1043397,1.32799389\H,0,-2
 .5460348,-0.41064915,-0.05121371\H,0,-0.90268826,0.73519997,-1.646145\

 Normal termination of Gaussian 16 at Wed Apr  9 03:39:38 2025.
