 Gaussian 16, Revision C.01,

 ----------------------------------------------------------------------
 #t hf aug-cc-pvdz symm=none int=(grid=ultrafine) guess=(read,tcheck) s
 table=(opt,rrhf)
 ----------------------------------------------------------------------
 -----
 title
 -----
 Symbolic Z-matrix:
 Charge =  0 Multiplicity = 1

 SCF Done:  E(RHF) =  -307.740073700     A.U. after   17 cycles

 1\1\GINC-SE104\Stability\RHF\Aug-CC-pVDZ\C6H10O1\OHZDE\09-Apr-2025\0\\
 #t hf aug-cc-pvdz symm=none int=(grid=ultrafine) guess=(read,tcheck) s
 table=(opt,rrhf)\\title\\0,1\C,0,2.24752923,0.05062574,-0.01307706\C,0
 ,0.79599017,-0.17627997,-0.10940973\C,0,0.06750633,-1.2396734,0.383136
 29\C,0,-1.27909795,-0.98172601,0.17051963\C,0,-1.4479756,0.10379265,-0
 .83400724\C,0,-0.12588054,0.90372939,-0.61659631\O,0,-0.14480492,1.688
 72515,0.49964488\H,0,2.39672632,1.03367168,0.44098695\H,0,2.67919711,0
 .09524107,-1.01834552\H,0,2.76403094,-0.71142373,0.56856821\H,0,0.4596

 Normal termination of Gaussian 16 at Wed Apr  9 18:35:46 2025.
 Gaussian 16:  ES64L-G16RevC.01  3-Jul-2019

 ----------------------------------------------------------------------
 #t hf aug-cc-pvdz iop(5/13=1,5/36=2,99/5=2) pseudo=read geom=check gue
 ss=(read,tcheck) scf=(maxcycle=1)
 ----------------------------------------------------------------------
 -----
 title
 -----
 Structure from the checkpoint file:  "Grambow2020_wb97xd3_007740_forward_mol1.chk"
 Charge =  0 Multiplicity = 1

                         Standard orientation:
 ---------------------------------------------------------------------
 Center     Atomic      Atomic             Coordinates (Angstroms)
 Number     Number       Type             X           Y           Z
 ---------------------------------------------------------------------
      1          6           0       -2.224215    0.251433   -0.144288
      2          6           0       -0.754152    0.328588   -0.170656
      3          6           0        0.048787    1.380789    0.219546
      4          6           0        1.372479    0.973032    0.137934
      5          6           0        1.487134   -0.256622   -0.693180
      6          6           0        0.081566   -0.892812   -0.459206
      7          8           0       -0.040058   -1.507361    0.753275
      8          1           0       -2.496033   -0.638234    0.429663
      9          1           0       -2.601861    0.102184   -1.161147
     10          1           0       -2.693197    1.133226    0.289650
     11          1           0       -0.295764    2.287344    0.697254
     12          1           0        1.493554   -0.043594    1.771149
     13          1           0        2.221348    1.544630    0.491535
     14          1           0        1.601220    0.038302   -1.740223
     15          1           0        2.310914   -0.910311   -0.414199
     16          1           0       -0.235358   -1.516067   -1.305846
     17          1           0        0.946049   -0.645051    1.575069
 ---------------------------------------------------------------------

 SCF Done:  E(RHF) =  -308.066338674     A.U. after    2 cycles

 The electronic state is 1-A.
 Alpha  occ. eigenvalues --  -20.44454 -11.33614 -11.31157 -11.27710 -11.25244
 Alpha  occ. eigenvalues --  -11.24785 -11.24506  -1.34845  -1.17236  -1.05536
 Alpha  occ. eigenvalues --   -0.97463  -0.91802  -0.80012  -0.74852  -0.71654
 Alpha  occ. eigenvalues --   -0.65420  -0.62436  -0.60013  -0.57406  -0.57296
 Alpha  occ. eigenvalues --   -0.56617  -0.55048  -0.51990  -0.48496  -0.41441
 Alpha  occ. eigenvalues --   -0.34126  -0.32875
 Alpha virt. eigenvalues --    0.02297   0.02869   0.03367   0.03613   0.05125
 Alpha virt. eigenvalues --    0.05478   0.05722   0.06778   0.08025   0.08618
 Alpha virt. eigenvalues --    0.10592   0.11447   0.12045   0.13055   0.13629

 Mulliken charges:
               1
     1  C   -0.767210
     2  C    0.133995
     3  C    0.708362
     4  C   -0.175001
     5  C   -0.080579
     6  C    0.604183
     7  O   -1.482095
     8  H    0.301313
     9  H    0.299809
    10  H    0.134108
    11  H   -0.176926
    12  H    0.086899
    13  H   -0.072997
    14  H    0.179652
    15  H    0.124250
    16  H    0.043513
    17  H    0.138724
 Sum of Mulliken charges =  -0.00000

 Dipole moment (field-independent basis, Debye):
    X=              0.0519    Y=              4.2308    Z=             -2.8412  Tot=              5.0966

 Test job not archived.
 1\1\GINC-SE104\SP\RHF\Aug-CC-pVDZ\C6H10O1\OHZDE\09-Apr-2025\0\\#t hf a
 ug-cc-pvdz iop(5/13=1,5/36=2,99/5=2) pseudo=read geom=check guess=(rea
 d,tcheck) scf=(maxcycle=1)\\title\\0,1\C,0,2.24752923,0.05062574,-0.01
 307706\C,0,0.79599017,-0.17627997,-0.10940973\C,0,0.06750633,-1.239673
 4,0.38313629\C,0,-1.27909795,-0.98172601,0.17051963\C,0,-1.4479756,0.1
 0379265,-0.83400724\C,0,-0.12588054,0.90372939,-0.61659631\O,0,-0.1448
 0492,1.68872515,0.49964488\H,0,2.39672632,1.03367168,0.44098695\H,0,2.
 67919711,0.09524107,-1.01834552\H,0,2.76403094,-0.71142373,0.56856821\

 Normal termination of Gaussian 16 at Wed Apr  9 18:35:52 2025.
