 Gaussian 16, Revision C.01,

 ----------------------------------------------------------------------
 #t hf aug-cc-pvdz symm=none int=(grid=ultrafine) guess=(read,tcheck) s
 table=(opt,rrhf)
 ----------------------------------------------------------------------
 -----
 title
 -----
 Symbolic Z-matrix:
 Charge =  0 Multiplicity = 1

 SCF Done:  E(RHF) =  -283.553361746     A.U. after   16 cycles
 Normal termination of Gaussian 16 at Wed Apr  9 17:01:00 2025.
 Gaussian 16:  ES64L-G16RevC.01  3-Jul-2019

 ----------------------------------------------------------------------
 #t hf aug-cc-pvdz iop(5/13=1,5/36=2,99/5=2) pseudo=read geom=check gue
 ss=(read,tcheck) scf=(maxcycle=1)
 ----------------------------------------------------------------------
 -----
 title
 -----
 Structure from the checkpoint file:  "Grambow2020_wb97xd3_006226_forward_mol1.chk"
 Charge =  0 Multiplicity = 1

                         Standard orientation:
 ---------------------------------------------------------------------
 Center     Atomic      Atomic             Coordinates (Angstroms)
 Number     Number       Type             X           Y           Z
 ---------------------------------------------------------------------
      1          8           0        2.011016   -0.781857   -0.193099
      2          6           0        1.109591   -0.075275    0.035437
      3          6           0       -1.312130   -1.274598    0.139590
      4          6           0       -1.618936    0.028414   -0.078827
      5          6           0       -0.695370    1.063610   -0.305988
      6          7           0        0.596530    1.058114    0.309162
      7          1           0       -2.027216   -1.943406    0.603365
      8          1           0       -0.407996   -1.728713   -0.239899
      9          1           0       -2.665875    0.333153   -0.044536
     10          1           0       -0.984787    2.024991   -0.706045
     11          1           0        0.923103    1.709126    1.026499
 ---------------------------------------------------------------------

 SCF Done:  E(RHF) =  -283.841494219     A.U. after    2 cycles

 The electronic state is 1-A.
 Alpha  occ. eigenvalues --  -20.62821 -15.60955 -11.44804 -11.26338 -11.24727
 Alpha  occ. eigenvalues --  -11.21527  -1.56908  -1.34226  -1.06402  -0.94908
 Alpha  occ. eigenvalues --   -0.89597  -0.80733  -0.75522  -0.71202  -0.67403
 Alpha  occ. eigenvalues --   -0.63780  -0.61085  -0.57925  -0.53096  -0.50772
 Alpha  occ. eigenvalues --   -0.39763  -0.25923
 Alpha virt. eigenvalues --    0.02014   0.04342   0.04692   0.05504   0.06279
 Alpha virt. eigenvalues --    0.07008   0.08665   0.09659   0.10907   0.12200
 Alpha virt. eigenvalues --    0.12578   0.13507   0.14225   0.14703   0.15691

 Mulliken charges:
               1
     1  O   -0.847426
     2  C    0.418693
     3  C   -0.106230
     4  C    0.773984
     5  C   -0.740797
     6  N    0.764652
     7  H   -0.134323
     8  H   -0.006287
     9  H   -0.148685
    10  H   -0.161067
    11  H    0.187487
 Sum of Mulliken charges =  -0.00000

 Dipole moment (field-independent basis, Debye):
    X=              0.4480    Y=              2.3982    Z=              1.4343  Tot=              2.8300

 Test job not archived.
 1\1\GINC-SE114\SP\RHF\Aug-CC-pVDZ\C4H5N1O1\OHZDE\09-Apr-2025\0\\#t hf
 aug-cc-pvdz iop(5/13=1,5/36=2,99/5=2) pseudo=read geom=check guess=(re
 ad,tcheck) scf=(maxcycle=1)\\title\\0,1\O,0,-1.1769926,2.14534169,0.92
 491028\C,0,-0.33454257,1.45347301,0.50580469\C,0,-1.16859029,-0.906448
 39,-0.51844742\C,0,0.14310862,-1.12792402,-0.25373781\C,0,1.01647943,-
 0.22914722,0.38315185\N,0,0.87796921,1.18580566,0.22138177\H,0,-1.6909
 5353,-1.49168866,-1.265689\H,0,-1.7742872,-0.23572419,0.07396388\H,0,0
 .59406115,-2.06396677,-0.58628696\H,0,1.97415111,-0.53165956,0.7824166

 Normal termination of Gaussian 16 at Wed Apr  9 17:01:03 2025.
