 Gaussian 16, Revision C.01,

 ----------------------------------------------------------------------
 #t hf aug-cc-pvdz symm=none int=(grid=ultrafine) guess=(read,tcheck) s
 table=(opt,rrhf)
 ----------------------------------------------------------------------
 -----
 title
 -----
 Symbolic Z-matrix:
 Charge =  0 Multiplicity = 1

 SCF Done:  E(RHF) =  -306.493179307     A.U. after   19 cycles
 Normal termination of Gaussian 16 at Wed Apr  9 19:19:13 2025.
 Gaussian 16:  ES64L-G16RevC.01  3-Jul-2019

 ----------------------------------------------------------------------
 #t hf aug-cc-pvdz iop(5/13=1,5/36=2,99/5=2) pseudo=read geom=check gue
 ss=(read,tcheck) scf=(maxcycle=1)
 ----------------------------------------------------------------------
 -----
 title
 -----
 Structure from the checkpoint file:  "Grambow2020_wb97xd3_009288_forward_mol1.chk"
 Charge =  0 Multiplicity = 1

                         Standard orientation:
 ---------------------------------------------------------------------
 Center     Atomic      Atomic             Coordinates (Angstroms)
 Number     Number       Type             X           Y           Z
 ---------------------------------------------------------------------
      1          6           0        0.938545    1.385553    0.830969
      2          6           0       -1.013130    0.372691   -0.530699
      3          6           0       -2.482065    0.202686   -0.431530
      4          6           0       -0.138815   -0.493558    0.135578
      5          8           0       -0.360114   -1.358973    0.963803
      6          6           0        1.298891   -0.193238   -0.303851
      7          6           0        2.359464   -0.419223   -0.849542
      8          1           0        0.082576    1.481236    1.482803
      9          1           0        1.064960    2.207113    0.138154
     10          1           0        1.832694    1.109431    1.371244
     11          1           0       -0.595606    1.034592   -1.277383
     12          1           0       -2.745237   -0.266757    0.517627
     13          1           0       -2.992155    1.163640   -0.528780
     14          1           0       -2.865392   -0.441920   -1.231160
     15          1           0        3.321728   -0.545019   -1.288482
 ---------------------------------------------------------------------

 SCF Done:  E(RHF) =  -306.809449714     A.U. after    2 cycles

 The electronic state is 1-A.
 Alpha  occ. eigenvalues --  -20.48295 -11.33626 -11.33366 -11.26831 -11.26014
 Alpha  occ. eigenvalues --  -11.25796 -11.23545  -1.42993  -1.09868  -1.04470
 Alpha  occ. eigenvalues --   -0.97888  -0.92592  -0.78698  -0.72674  -0.69285
 Alpha  occ. eigenvalues --   -0.64215  -0.64048  -0.61274  -0.58640  -0.56218
 Alpha  occ. eigenvalues --   -0.54058  -0.53007  -0.43962  -0.42466  -0.39178
 Alpha  occ. eigenvalues --   -0.27509
 Alpha virt. eigenvalues --   -0.01621   0.02895   0.03227   0.04450   0.04502
 Alpha virt. eigenvalues --    0.05555   0.06584   0.06630   0.07856   0.10350
 Alpha virt. eigenvalues --    0.10964   0.11279   0.12775   0.13140   0.13972

 Mulliken charges:
               1
     1  C   -0.335690
     2  C    0.135356
     3  C   -0.566332
     4  C    1.450718
     5  O   -1.664430
     6  C    0.357360
     7  C   -0.075157
     8  H    0.121496
     9  H    0.215192
    10  H    0.251891
    11  H   -0.158807
    12  H    0.183006
    13  H    0.197947
    14  H    0.265926
    15  H   -0.378476
 Sum of Mulliken charges =   0.00000

 Dipole moment (field-independent basis, Debye):
    X=              1.4743    Y=              4.6621    Z=             -1.5069  Tot=              5.1165

 Test job not archived.
 1\1\GINC-SE097\SP\RHF\Aug-CC-pVDZ\C6H8O1\OHZDE\09-Apr-2025\0\\#t hf au
 g-cc-pvdz iop(5/13=1,5/36=2,99/5=2) pseudo=read geom=check guess=(read
 ,tcheck) scf=(maxcycle=1)\\title\\0,1\C,0,0.11128013,0.76401295,-1.653
 81503\C,0,-0.22846736,-0.71590825,0.43985882\C,0,-1.31929765,-1.428229
 41,1.14639427\C,0,-0.03137077,0.65868207,0.61419893\O,0,-0.71846654,1.
 49177337,1.17787491\C,0,1.27044291,1.07249373,-0.0817373\C,0,2.4166120
 7,1.46810054,-0.14052341\H,0,-0.9581197,0.62175853,-1.60021147\H,0,0.6
 3854863,-0.01733209,-2.1852505\H,0,0.37374071,1.76884484,-1.95226006\H

 Normal termination of Gaussian 16 at Wed Apr  9 19:19:18 2025.
