 Gaussian 16, Revision C.01,

 ----------------------------------------------------------------------
 #t hf aug-cc-pvdz symm=none int=(grid=ultrafine) guess=(read,tcheck) s
 table=(opt,rrhf)
 ----------------------------------------------------------------------
 -----
 title
 -----
 Symbolic Z-matrix:
 Charge =  0 Multiplicity = 1

 SCF Done:  E(RHF) =  -284.847701837     A.U. after   15 cycles
 Normal termination of Gaussian 16 at Wed Apr  9 03:21:34 2025.
 Gaussian 16:  ES64L-G16RevC.01  3-Jul-2019

 ----------------------------------------------------------------------
 #t hf aug-cc-pvdz iop(5/13=1,5/36=2,99/5=2) pseudo=read geom=check gue
 ss=(read,tcheck) scf=(maxcycle=1)
 ----------------------------------------------------------------------
 -----
 title
 -----
 Structure from the checkpoint file:  "Grambow2020_wb97xd3_006082_forward_mol2.chk"
 Charge =  0 Multiplicity = 1

                         Standard orientation:
 ---------------------------------------------------------------------
 Center     Atomic      Atomic             Coordinates (Angstroms)
 Number     Number       Type             X           Y           Z
 ---------------------------------------------------------------------
      1          6           0        1.630582   -1.173431   -0.053738
      2          6           0        1.148921    0.166442    0.430203
      3          7           0        0.779227    1.156473   -0.557524
      4          6           0       -0.265433    0.635778    0.324876
      5          6           0       -1.308657   -0.195681   -0.329745
      6          8           0       -2.375085   -0.429882    0.170401
      7          1           0        1.150881   -1.452834   -0.990894
      8          1           0        1.429025   -1.948701    0.687761
      9          1           0        2.707671   -1.141186   -0.227686
     10          1           0        1.655581    0.530266    1.320824
     11          1           0        1.046641    2.093428   -0.286394
     12          1           0       -0.638601    1.252350    1.136020
     13          1           0       -1.037585   -0.588226   -1.329757
 ---------------------------------------------------------------------

 SCF Done:  E(RHF) =  -285.145900608     A.U. after    2 cycles

 The electronic state is 1-A.
 Alpha  occ. eigenvalues --  -20.54676 -15.52205 -11.34043 -11.29241 -11.28131
 Alpha  occ. eigenvalues --  -11.24297  -1.48098  -1.29670  -1.01586  -0.96698
 Alpha  occ. eigenvalues --   -0.86020  -0.78936  -0.75568  -0.67717  -0.64766
 Alpha  occ. eigenvalues --   -0.60527  -0.59351  -0.56885  -0.53960  -0.51986
 Alpha  occ. eigenvalues --   -0.49310  -0.44347  -0.41422
 Alpha virt. eigenvalues --    0.02920   0.04028   0.04306   0.04837   0.05726
 Alpha virt. eigenvalues --    0.06167   0.07290   0.10062   0.11329   0.11919
 Alpha virt. eigenvalues --    0.12892   0.13663   0.14318   0.14708   0.15325

 Mulliken charges:
               1
     1  C   -0.412245
     2  C   -0.409981
     3  N    0.487396
     4  C   -0.098324
     5  C    1.002584
     6  O   -1.184136
     7  H    0.179473
     8  H    0.265398
     9  H    0.200679
    10  H   -0.174961
    11  H    0.187638
    12  H   -0.174357
    13  H    0.130834
 Sum of Mulliken charges =  -0.00000

 Dipole moment (field-independent basis, Debye):
    X=              3.1955    Y=              0.8320    Z=              0.9360  Tot=              3.4321

 Test job not archived.
 1\1\GINC-SE059\SP\RHF\Aug-CC-pVDZ\C4H7N1O1\OHZDE\09-Apr-2025\0\\#t hf
 aug-cc-pvdz iop(5/13=1,5/36=2,99/5=2) pseudo=read geom=check guess=(re
 ad,tcheck) scf=(maxcycle=1)\\title\\0,1\C,0,-0.94362106,-0.39930983,1.
 23401942\C,0,-0.39166189,-0.73543712,-0.12385165\N,0,-0.68221137,0.162
 34164,-1.22021548\C,0,0.7096123,0.02211481,-0.79099414\C,0,1.31464344,
 1.22304673,-0.15864066\O,0,2.49945929,1.38029948,-0.04138786\H,0,-1.00
 966708,0.67807738,1.38001629\H,0,-0.31785887,-0.82195063,2.02223588\H,
 0,-1.94860614,-0.81188473,1.33987281\H,0,-0.37993662,-1.79834985,-0.35

 Normal termination of Gaussian 16 at Wed Apr  9 03:21:38 2025.
