 Gaussian 16, Revision C.01,

 ----------------------------------------------------------------------
 #t hf aug-cc-pvdz symm=none int=(grid=ultrafine) guess=(read,tcheck) s
 table=(opt,rrhf)
 ----------------------------------------------------------------------
 -----
 title
 -----
 Symbolic Z-matrix:
 Charge =  0 Multiplicity = 1

 SCF Done:  E(RHF) =  -345.949004906     A.U. after   15 cycles

 1\1\GINC-SE045\Stability\RHF\Aug-CC-pVDZ\C5H12O2\OHZDE\09-Apr-2025\0\\
 #t hf aug-cc-pvdz symm=none int=(grid=ultrafine) guess=(read,tcheck) s
 table=(opt,rrhf)\\title\\0,1\C,0,2.32719616,0.31019097,1.06296925\C,0,
 0.98957383,0.6744897,0.43447823\C,0,0.23403739,-0.57253485,-0.00520605
 \O,0,-0.0418358,-1.47219337,0.98172481\C,0,-1.1166233,-0.33670431,-0.6
 6178314\C,0,-1.51215564,0.77129135,-1.56356491\O,0,-1.77481042,-1.4451
 0127,-0.77422618\H,0,2.172833,-0.39633039,1.87855245\H,0,2.99280345,-0
 .16005571,0.33497511\H,0,2.83016741,1.19451033,1.45666781\H,0,0.373852

 Normal termination of Gaussian 16 at Wed Apr  9 18:49:05 2025.
 Gaussian 16:  ES64L-G16RevC.01  3-Jul-2019

 ----------------------------------------------------------------------
 #t hf aug-cc-pvdz iop(5/13=1,5/36=2,99/5=2) pseudo=read geom=check gue
 ss=(read,tcheck) scf=(maxcycle=1)
 ----------------------------------------------------------------------
 -----
 title
 -----
 Structure from the checkpoint file:  "Grambow2020_wb97xd3_008075_forward_mol1.chk"
 Charge =  0 Multiplicity = 1

                         Standard orientation:
 ---------------------------------------------------------------------
 Center     Atomic      Atomic             Coordinates (Angstroms)
 Number     Number       Type             X           Y           Z
 ---------------------------------------------------------------------
      1          6           0        2.736148    0.273731   -0.164920
      2          6           0        1.333996    0.737754    0.203319
      3          6           0        0.283826   -0.246988   -0.293324
      4          8           0        0.399936   -1.520245    0.180869
      5          6           0       -1.162488    0.114726    0.003884
      6          6           0       -1.781077    1.461681    0.023172
      7          8           0       -1.947218   -0.885405   -0.237639
      8          1           0        2.900700   -0.737893    0.206179
      9          1           0        2.877688    0.259361   -1.248387
     10          1           0        3.493123    0.931379    0.264598
     11          1           0        1.245009    0.816047    1.290783
     12          1           0        1.142454    1.732162   -0.214666
     13          1           0        0.287495   -0.238691   -1.402746
     14          1           0       -0.217436   -0.983315    1.404220
     15          1           0       -0.718512   -0.323130    1.702270
     16          1           0       -1.852799    1.824254   -1.006372
     17          1           0       -2.786227    1.408247    0.437413
     18          1           0       -1.171799    2.160803    0.590716
     19          1           0       -1.283870   -1.649449   -0.202629
 ---------------------------------------------------------------------

 SCF Done:  E(RHF) =  -346.316342540     A.U. after    2 cycles

 The electronic state is 1-A.
 Alpha  occ. eigenvalues --  -20.61653 -20.47307 -11.40133 -11.28868 -11.27970
 Alpha  occ. eigenvalues --  -11.23061 -11.21632  -1.56357  -1.37396  -1.09134
 Alpha  occ. eigenvalues --   -1.04052  -0.94418  -0.85028  -0.80888  -0.76364
 Alpha  occ. eigenvalues --   -0.68693  -0.67154  -0.63420  -0.60554  -0.60314
 Alpha  occ. eigenvalues --   -0.59290  -0.56448  -0.54170  -0.52091  -0.50462
 Alpha  occ. eigenvalues --   -0.48915  -0.47425  -0.39678  -0.36231
 Alpha virt. eigenvalues --    0.02500   0.03146   0.03655   0.04918   0.05918
 Alpha virt. eigenvalues --    0.06202   0.06625   0.07105   0.07199   0.09133
 Alpha virt. eigenvalues --    0.09502   0.09806   0.10560   0.12842   0.13401

 Mulliken charges:
               1
     1  C   -0.402397
     2  C   -0.263219
     3  C    0.963734
     4  O   -1.582007
     5  C    0.815141
     6  C   -0.333187
     7  O   -1.413443
     8  H    0.207894
     9  H    0.174966
    10  H    0.127528
    11  H    0.114667
    12  H    0.141619
    13  H    0.138516
    14  H    0.025152
    15  H    0.191884
    16  H    0.332667
    17  H    0.164749
    18  H    0.220726
    19  H    0.375008
 Sum of Mulliken charges =  -0.00000

 Dipole moment (field-independent basis, Debye):
    X=             -1.9031    Y=              3.9271    Z=             -1.0849  Tot=              4.4968

 Test job not archived.
 1\1\GINC-SE045\SP\RHF\Aug-CC-pVDZ\C5H12O2\OHZDE\09-Apr-2025\0\\#t hf a
 ug-cc-pvdz iop(5/13=1,5/36=2,99/5=2) pseudo=read geom=check guess=(rea
 d,tcheck) scf=(maxcycle=1)\\title\\0,1\C,0,2.32719616,0.31019097,1.062
 96925\C,0,0.98957383,0.6744897,0.43447823\C,0,0.23403739,-0.57253485,-
 0.00520605\O,0,-0.0418358,-1.47219337,0.98172481\C,0,-1.1166233,-0.336
 70431,-0.66178314\C,0,-1.51215564,0.77129135,-1.56356491\O,0,-1.774810
 42,-1.44510127,-0.77422618\H,0,2.172833,-0.39633039,1.87855245\H,0,2.9
 9280345,-0.16005571,0.33497511\H,0,2.83016741,1.19451033,1.45666781\H,

 Normal termination of Gaussian 16 at Wed Apr  9 18:49:13 2025.
