 Gaussian 16, Revision C.01,

 ----------------------------------------------------------------------
 #t hf aug-cc-pvdz symm=none int=(grid=ultrafine) guess=(read,tcheck) s
 table=(opt,rrhf)
 ----------------------------------------------------------------------
 -----
 title
 -----
 Symbolic Z-matrix:
 Charge =  0 Multiplicity = 1

 SCF Done:  E(RHF) =  -295.725915533     A.U. after   18 cycles
 Normal termination of Gaussian 16 at Wed Apr  9 15:48:37 2025.
 Gaussian 16:  ES64L-G16RevC.01  3-Jul-2019

 ----------------------------------------------------------------------
 #t hf aug-cc-pvdz iop(5/13=1,5/36=2,99/5=2) pseudo=read geom=check gue
 ss=(read,tcheck) scf=(maxcycle=1)
 ----------------------------------------------------------------------
 -----
 title
 -----
 Structure from the checkpoint file:  "Grambow2020_b97d3_006778_forward_mol1.chk"
 Charge =  0 Multiplicity = 1

                         Standard orientation:
 ---------------------------------------------------------------------
 Center     Atomic      Atomic             Coordinates (Angstroms)
 Number     Number       Type             X           Y           Z
 ---------------------------------------------------------------------
      1          7           0        2.133358   -0.325642    0.122716
      2          6           0        0.928068    0.057935   -0.307533
      3          7           0        0.228313    1.081906   -0.156907
      4          7           0       -0.983003    1.308466    0.192855
      5          6           0       -1.748957   -0.793404    0.059873
      6          7           0       -0.796036   -1.486339   -0.055119
      7          1           0        2.496038   -1.190121   -0.264953
      8          1           0        2.404684   -0.151787    1.091703
      9          1           0       -1.282270    2.196136   -0.246328
     10          1           0       -2.771545   -0.490146    0.180721
 ---------------------------------------------------------------------

 SCF Done:  E(RHF) =  -296.015579260     A.U. after    2 cycles

 The electronic state is 1-A.
 Alpha  occ. eigenvalues --  -15.59300 -15.56287 -15.52629 -15.50766 -11.32957
 Alpha  occ. eigenvalues --  -11.29285  -1.35222  -1.25275  -1.20813  -1.09568
 Alpha  occ. eigenvalues --   -0.83309  -0.79520  -0.76796  -0.75182  -0.69772
 Alpha  occ. eigenvalues --   -0.61284  -0.60332  -0.55157  -0.49328  -0.48274
 Alpha  occ. eigenvalues --   -0.42277  -0.36147
 Alpha virt. eigenvalues --    0.02451   0.04638   0.05476   0.05702   0.07523
 Alpha virt. eigenvalues --    0.09216   0.09711   0.10577   0.11521   0.12891
 Alpha virt. eigenvalues --    0.13302   0.14501   0.15640   0.16337   0.17162

 Mulliken charges:
               1
     1  N    0.680530
     2  C   -1.488303
     3  N    0.091008
     4  N    0.174186
     5  C   -0.729392
     6  N    0.628048
     7  H    0.208506
     8  H    0.189880
     9  H    0.133826
    10  H    0.111712
 Sum of Mulliken charges =   0.00000

 Dipole moment (field-independent basis, Debye):
    X=              0.7479    Y=              0.3474    Z=              0.7546  Tot=              1.1178

 Test job not archived.
 1\1\GINC-SE220\SP\RHF\Aug-CC-pVDZ\C2H4N4\OHZDE\09-Apr-2025\0\\#t hf au
 g-cc-pvdz iop(5/13=1,5/36=2,99/5=2) pseudo=read geom=check guess=(read
 ,tcheck) scf=(maxcycle=1)\\title\\0,1\N,0,2.07563832,-0.33495319,-0.09
 681506\C,0,0.82031858,-0.30601061,0.35958817\N,0,-0.17033806,-1.059176
 94,0.24911906\N,0,-1.39827855,-0.8993205,-0.07883766\C,0,-1.45733811,1
 .33960229,-0.00161358\N,0,-0.33199171,1.69780305,0.08041346\H,0,2.7011
 932,0.37976709,0.25956086\H,0,2.25744366,-0.61041556,-1.06317288\H,0,-
 1.95347468,-1.63504061,0.39113498\H,0,-2.52567265,1.37280198,-0.100689

 Normal termination of Gaussian 16 at Wed Apr  9 15:48:41 2025.
