 Gaussian 16, Revision C.01,

 ----------------------------------------------------------------------
 #t hf aug-cc-pvdz symm=none int=(grid=ultrafine) guess=(read,tcheck) s
 table=(opt,rrhf)
 ----------------------------------------------------------------------
 -----
 title
 -----
 Symbolic Z-matrix:
 Charge =  0 Multiplicity = 1

 SCF Done:  E(RHF) =  -284.875336748     A.U. after   13 cycles
 Normal termination of Gaussian 16 at Wed Apr  9 03:06:49 2025.
 Gaussian 16:  ES64L-G16RevC.01  3-Jul-2019

 ----------------------------------------------------------------------
 #t hf aug-cc-pvdz iop(5/13=1,5/36=2,99/5=2) pseudo=read geom=check gue
 ss=(read,tcheck) scf=(maxcycle=1)
 ----------------------------------------------------------------------
 -----
 title
 -----
 Structure from the checkpoint file:  "Grambow2020_b97d3_006531_forward_mol2.chk"
 Charge =  0 Multiplicity = 1

                         Standard orientation:
 ---------------------------------------------------------------------
 Center     Atomic      Atomic             Coordinates (Angstroms)
 Number     Number       Type             X           Y           Z
 ---------------------------------------------------------------------
      1          6           0        0.968381    0.921095   -0.332393
      2          6           0       -0.389860    1.299467    0.251936
      3          8           0       -1.391113    0.302778   -0.066980
      4          6           0       -0.940207   -0.990103   -0.087873
      5          7           0        0.242885   -1.447044    0.032685
      6          6           0        1.337880   -0.483452    0.166246
      7          1           0        0.899442    0.918326   -1.430061
      8          1           0        1.724132    1.666545   -0.044888
      9          1           0       -0.330582    1.383704    1.348428
     10          1           0       -0.776775    2.242214   -0.152417
     11          1           0       -1.787730   -1.663578   -0.238183
     12          1           0        2.202081   -0.876016   -0.389120
     13          1           0        1.640978   -0.446144    1.225795
 ---------------------------------------------------------------------

 SCF Done:  E(RHF) =  -285.168726741     A.U. after    2 cycles

 The electronic state is 1-A.
 Alpha  occ. eigenvalues --  -20.58229 -15.48703 -11.33982 -11.30464 -11.26609
 Alpha  occ. eigenvalues --  -11.24644  -1.50123  -1.21770  -1.07173  -0.93578
 Alpha  occ. eigenvalues --   -0.89340  -0.75621  -0.71571  -0.68027  -0.64989
 Alpha  occ. eigenvalues --   -0.61460  -0.59396  -0.57024  -0.55812  -0.49845
 Alpha  occ. eigenvalues --   -0.48614  -0.43523  -0.40630
 Alpha virt. eigenvalues --    0.03418   0.04187   0.04288   0.04473   0.06213
 Alpha virt. eigenvalues --    0.06617   0.06756   0.10309   0.10496   0.12763
 Alpha virt. eigenvalues --    0.13329   0.13709   0.14306   0.15164   0.15392

 Mulliken charges:
               1
     1  C   -0.399602
     2  C    0.593837
     3  O   -1.192195
     4  C    0.160337
     5  N    0.689691
     6  C   -0.598872
     7  H    0.143522
     8  H    0.198576
     9  H    0.150155
    10  H    0.037152
    11  H   -0.015098
    12  H    0.115593
    13  H    0.116903
 Sum of Mulliken charges =   0.00000

 Dipole moment (field-independent basis, Debye):
    X=              0.3755    Y=              2.5758    Z=              0.1847  Tot=              2.6096

 Test job not archived.
 1\1\GINC-SE108\SP\RHF\Aug-CC-pVDZ\C4H7N1O1\OHZDE\09-Apr-2025\0\\#t hf
 aug-cc-pvdz iop(5/13=1,5/36=2,99/5=2) pseudo=read geom=check guess=(re
 ad,tcheck) scf=(maxcycle=1)\\title\\0,1\C,0,0.56397308,-0.72978797,0.5
 1911326\C,0,-0.80288765,-0.99602722,-0.10557335\O,0,-1.6472006,0.17852
 812,-0.03374046\C,0,-0.9963748,1.37396319,-0.18425364\N,0,0.24958519,1
 .62192915,-0.27982054\C,0,1.18131455,0.49742217,-0.16701095\H,0,0.4356
 1893,-0.52855757,1.59273613\H,0,1.2049589,-1.61769627,0.41777223\H,0,-
 0.69720287,-1.27495346,-1.16573173\H,0,-1.35800111,-1.78709274,0.41215

 Normal termination of Gaussian 16 at Wed Apr  9 03:06:53 2025.
