 Gaussian 16, Revision C.01,

 ----------------------------------------------------------------------
 #t hf aug-cc-pvdz symm=none int=(grid=ultrafine) guess=(read,tcheck) s
 table=(opt,rrhf)
 ----------------------------------------------------------------------
 -----
 title
 -----
 Symbolic Z-matrix:
 Charge =  0 Multiplicity = 1

 SCF Done:  E(RHF) =  -271.842806069     A.U. after   17 cycles
 Normal termination of Gaussian 16 at Wed Apr  9 03:41:05 2025.
 Gaussian 16:  ES64L-G16RevC.01  3-Jul-2019

 ----------------------------------------------------------------------
 #t hf aug-cc-pvdz iop(5/13=1,5/36=2,99/5=2) pseudo=read geom=check gue
 ss=(read,tcheck) scf=(maxcycle=1)
 ----------------------------------------------------------------------
 -----
 title
 -----
 Structure from the checkpoint file:  "Grambow2020_wb97xd3_007442_reverse_mol1.chk"
 Charge =  0 Multiplicity = 1

                         Standard orientation:
 ---------------------------------------------------------------------
 Center     Atomic      Atomic             Coordinates (Angstroms)
 Number     Number       Type             X           Y           Z
 ---------------------------------------------------------------------
      1          6           0        2.841507    0.039744   -0.061630
      2          6           0        1.408218   -0.347344   -0.264334
      3          6           0        0.280897    0.257510    0.464050
      4          6           0       -0.744785    1.355170   -0.180182
      5          6           0       -1.938764    0.537439    0.029107
      6          6           0       -1.762594   -0.817856   -0.488064
      7          6           0       -0.611283   -0.969451    0.518624
      8          1           0        3.511801   -0.720726   -0.465865
      9          1           0        3.075755    0.174917    0.996052
     10          1           0        3.077797    0.979975   -0.578717
     11          1           0        1.163308   -0.592172   -1.298726
     12          1           0        0.484866   -1.593921    0.136227
     13          1           0        0.563233    0.623203    1.450986
     14          1           0       -0.492089    1.509199   -1.229695
     15          1           0       -0.736627    2.308624    0.343150
     16          1           0       -2.611881    0.716159    0.858545
     17          1           0       -2.577761   -1.512230   -0.302838
     18          1           0       -1.428577   -0.886755   -1.526124
     19          1           0       -0.869004   -1.337545    1.511576
 ---------------------------------------------------------------------

 SCF Done:  E(RHF) =  -272.141908386     A.U. after    2 cycles

 The electronic state is 1-A.
 Alpha  occ. eigenvalues --  -11.25336 -11.24541 -11.24063 -11.23944 -11.23662
 Alpha  occ. eigenvalues --  -11.23480 -11.22498  -1.16346  -1.04532  -0.96599
 Alpha  occ. eigenvalues --   -0.95439  -0.81363  -0.77748  -0.74972  -0.68971
 Alpha  occ. eigenvalues --   -0.62772  -0.60407  -0.59037  -0.56865  -0.56300
 Alpha  occ. eigenvalues --   -0.53190  -0.50952  -0.50533  -0.47272  -0.46182
 Alpha  occ. eigenvalues --   -0.40027  -0.22817
 Alpha virt. eigenvalues --    0.03260   0.03469   0.03932   0.04072   0.04668
 Alpha virt. eigenvalues --    0.05716   0.06055   0.06271   0.06443   0.07143
 Alpha virt. eigenvalues --    0.09001   0.09191   0.09851   0.12424   0.13238

 Mulliken charges:
               1
     1  C   -0.720771
     2  C   -0.181170
     3  C    0.129237
     4  C   -0.181547
     5  C    0.415197
     6  C   -0.019062
     7  C   -0.341661
     8  H    0.158656
     9  H    0.172182
    10  H    0.237991
    11  H   -0.136461
    12  H    0.608841
    13  H   -0.044925
    14  H    0.108848
    15  H   -0.028296
    16  H   -0.143478
    17  H    0.039510
    18  H    0.051972
    19  H   -0.125065
 Sum of Mulliken charges =   0.00000

 Dipole moment (field-independent basis, Debye):
    X=             -0.0727    Y=              0.4686    Z=              0.2311  Tot=              0.5276

 Test job not archived.
 1\1\GINC-SE058\SP\RHF\Aug-CC-pVDZ\C7H12\OHZDE\09-Apr-2025\0\\#t hf aug
 -cc-pvdz iop(5/13=1,5/36=2,99/5=2) pseudo=read geom=check guess=(read,
 tcheck) scf=(maxcycle=1)\\title\\0,1\C,0,2.60408534,0.1978154,-0.69611
 7\C,0,1.13494082,-0.09687153,-0.70037585\C,0,0.2726015,-0.00241214,0.4
 8903207\C,0,-0.77404969,1.2215832,0.76880435\C,0,-1.95235874,0.3577185
 5,0.82709327\C,0,-2.02699401,-0.53263344,-0.32920608\C,0,-0.68748417,-
 1.12437481,0.13713628\H,0,3.08766349,-0.21705649,-1.58214644\H,0,3.094
 66593,-0.21628279,0.18688305\H,0,2.79396142,1.27997889,-0.70687264\H,0

 Normal termination of Gaussian 16 at Wed Apr  9 03:41:12 2025.
