 Gaussian 16, Revision C.01,

 ----------------------------------------------------------------------
 #t hf aug-cc-pvdz symm=none int=(grid=ultrafine) guess=(read,tcheck) s
 table=(opt,rrhf)
 ----------------------------------------------------------------------
 -----
 title
 -----
 Symbolic Z-matrix:
 Charge =  0 Multiplicity = 1

 SCF Done:  E(RHF) =  -302.795430756     A.U. after   15 cycles
 Normal termination of Gaussian 16 at Wed Apr  9 19:12:03 2025.
 Gaussian 16:  ES64L-G16RevC.01  3-Jul-2019

 ----------------------------------------------------------------------
 #t hf aug-cc-pvdz iop(5/13=1,5/36=2,99/5=2) pseudo=read geom=check gue
 ss=(read,tcheck) scf=(maxcycle=1)
 ----------------------------------------------------------------------
 -----
 title
 -----
 Structure from the checkpoint file:  "Grambow2020_wb97xd3_008881_reverse_mol2.chk"
 Charge =  0 Multiplicity = 1

                         Standard orientation:
 ---------------------------------------------------------------------
 Center     Atomic      Atomic             Coordinates (Angstroms)
 Number     Number       Type             X           Y           Z
 ---------------------------------------------------------------------
      1          6           0       -2.188933   -0.628602    0.437869
      2          7           0       -1.095240   -0.124277   -0.417028
      3          6           0       -0.696794    1.245510   -0.103850
      4          6           0        0.611191    1.216556    0.133088
      5          6           0        1.101299   -0.150997   -0.028183
      6          7           0        2.446109   -0.468802    0.251832
      7          6           0        0.132427   -1.039170   -0.356981
      8          1           0       -3.073070    0.000402    0.324355
      9          1           0       -2.399656   -1.654786    0.148655
     10          1           0       -1.838353   -0.608052    1.467399
     11          1           0       -1.425619    2.040519   -0.081488
     12          1           0        1.210726    2.073109    0.413197
     13          1           0        3.098334    0.074308   -0.296337
     14          1           0        2.607599   -1.451336    0.079525
     15          1           0       -1.391191   -0.182389   -1.390591
 ---------------------------------------------------------------------

 SCF Done:  E(RHF) =  -303.115365909     A.U. after    2 cycles

 The electronic state is 1-A.
 Alpha  occ. eigenvalues --  -15.60224 -15.47750 -11.29085 -11.27077 -11.25698
 Alpha  occ. eigenvalues --  -11.23196 -11.19341  -1.31644  -1.18267  -1.07955
 Alpha  occ. eigenvalues --   -0.96982  -0.95160  -0.82555  -0.77350  -0.74260
 Alpha  occ. eigenvalues --   -0.70646  -0.67362  -0.63203  -0.61990  -0.57721
 Alpha  occ. eigenvalues --   -0.56488  -0.55170  -0.49789  -0.41798  -0.33604
 Alpha  occ. eigenvalues --   -0.29145
 Alpha virt. eigenvalues --    0.02687   0.03760   0.04159   0.04528   0.05437
 Alpha virt. eigenvalues --    0.06111   0.06731   0.08068   0.10211   0.10505
 Alpha virt. eigenvalues --    0.11173   0.12540   0.13151   0.14479   0.14928

 Mulliken charges:
               1
     1  C   -0.283903
     2  N    0.620822
     3  C   -0.748886
     4  C    0.709554
     5  C   -0.974353
     6  N    0.733327
     7  C   -0.871077
     8  H    0.088806
     9  H    0.103043
    10  H    0.255302
    11  H   -0.254003
    12  H   -0.138605
    13  H    0.157075
    14  H    0.103590
    15  H    0.499308
 Sum of Mulliken charges =  -0.00000

 Dipole moment (field-independent basis, Debye):
    X=             -3.0439    Y=              3.1686    Z=             -0.8079  Tot=              4.4674

 Test job not archived.
 1\1\GINC-SE219\SP\RHF\Aug-CC-pVDZ\C5H8N2\OHZDE\09-Apr-2025\0\\#t hf au
 g-cc-pvdz iop(5/13=1,5/36=2,99/5=2) pseudo=read geom=check guess=(read
 ,tcheck) scf=(maxcycle=1)\\title\\0,1\C,0,2.08778333,0.42699606,0.2461
 4506\N,0,0.89026903,0.01699504,-0.51491703\C,0,0.37652116,-1.2944652,-
 0.12853385\C,0,-0.90148153,-1.12216425,0.19523434\C,0,-1.25880799,0.28
 432408,0.02052502\N,0,-2.54064345,0.74880822,0.3797961\C,0,-0.22963622
 ,1.05679731,-0.40345643\H,0,2.89239955,-0.29405247,0.09477883\H,0,2.38
 170186,1.41719739,-0.09181272\H,0,1.8108035,0.4713127,1.29713465\H,0,1

 Normal termination of Gaussian 16 at Wed Apr  9 19:12:08 2025.
