 Gaussian 16, Revision C.01,

 ----------------------------------------------------------------------
 #t hf aug-cc-pvdz symm=none int=(grid=ultrafine) guess=(read,tcheck) s
 table=(opt,rrhf)
 ----------------------------------------------------------------------
 -----
 title
 -----
 Symbolic Z-matrix:
 Charge =  0 Multiplicity = 1

 SCF Done:  E(RHF) =  -374.494937615     A.U. after   15 cycles
 Normal termination of Gaussian 16 at Wed Apr  9 18:20:02 2025.
 Gaussian 16:  ES64L-G16RevC.01  3-Jul-2019

 ----------------------------------------------------------------------
 #t hf aug-cc-pvdz iop(5/13=1,5/36=2,99/5=2) pseudo=read geom=check gue
 ss=(read,tcheck) scf=(maxcycle=1)
 ----------------------------------------------------------------------
 -----
 title
 -----
 Structure from the checkpoint file:  "Grambow2020_wb97xd3_007327_reverse_mol1.chk"
 Charge =  0 Multiplicity = 1

                         Standard orientation:
 ---------------------------------------------------------------------
 Center     Atomic      Atomic             Coordinates (Angstroms)
 Number     Number       Type             X           Y           Z
 ---------------------------------------------------------------------
      1          7           0        1.872902   -0.225306    0.624745
      2          6           0        1.065464   -0.527637   -0.629136
      3          6           0        0.835817    0.855411   -0.413919
      4          8           0       -0.380734    1.150247    0.027779
      5          6           0       -1.123383   -0.077491    0.044758
      6          8           0       -2.284737   -0.093733    0.292675
      7          7           0       -0.228465   -1.038914   -0.273046
      8          1           0        1.401819   -0.317119    1.512877
      9          1           0        2.831395   -0.530454    0.615282
     10          1           0        1.471455    1.697102   -0.643931
     11          1           0       -0.559340   -1.953794   -0.519969
 ---------------------------------------------------------------------

 SCF Done:  E(RHF) =  -374.865692569     A.U. after    2 cycles

 The electronic state is 1-A.
 Alpha  occ. eigenvalues --  -20.64350 -20.54287 -15.54712 -15.54558 -11.43182
 Alpha  occ. eigenvalues --  -11.39400 -11.25991  -1.60084  -1.49319  -1.29143
 Alpha  occ. eigenvalues --   -1.21260  -1.01767  -0.91478  -0.86649  -0.78538
 Alpha  occ. eigenvalues --   -0.75284  -0.71024  -0.68106  -0.66717  -0.64819
 Alpha  occ. eigenvalues --   -0.58859  -0.56189  -0.50370  -0.47296  -0.45932
 Alpha  occ. eigenvalues --   -0.34649
 Alpha virt. eigenvalues --    0.02725   0.03912   0.04792   0.05606   0.07941
 Alpha virt. eigenvalues --    0.08722   0.09560   0.10257   0.11158   0.11857
 Alpha virt. eigenvalues --    0.13456   0.14084   0.14325   0.15045   0.15681

 Mulliken charges:
               1
     1  N    0.269991
     2  C   -1.528206
     3  C    1.445208
     4  O   -1.376328
     5  C    1.180541
     6  O   -1.122614
     7  N    0.835249
     8  H    0.119838
     9  H    0.084626
    10  H   -0.024247
    11  H    0.115943
 Sum of Mulliken charges =  -0.00000

 Dipole moment (field-independent basis, Debye):
    X=              3.1642    Y=              0.4096    Z=              0.8534  Tot=              3.3027

 Test job not archived.
 1\1\GINC-SE104\SP\RHF\Aug-CC-pVDZ\C3H4N2O2\OHZDE\09-Apr-2025\0\\#t hf
 aug-cc-pvdz iop(5/13=1,5/36=2,99/5=2) pseudo=read geom=check guess=(re
 ad,tcheck) scf=(maxcycle=1)\\title\\0,1\N,0,-1.49193681,0.0797508,-0.3
 3469509\C,0,-0.55254168,-0.20861506,0.82718286\C,0,-0.13197759,1.06695
 059,0.37118247\O,0,1.02782022,1.06696349,-0.27448781\C,0,1.54047215,-0
 .27145446,-0.20391375\O,0,2.62604055,-0.53920907,-0.60431352\N,0,0.560
 9314,-0.99722469,0.37915621\H,0,-1.19491553,-0.21185543,-1.2544073\H,0
 ,-2.4734133,-0.03418325,-0.14591632\H,0,-0.57063921,2.03626796,0.55389

 Normal termination of Gaussian 16 at Wed Apr  9 18:20:06 2025.
