 Gaussian 16, Revision C.01,

 ----------------------------------------------------------------------
 #t hf aug-cc-pvdz symm=none int=(grid=ultrafine) guess=(read,tcheck) s
 table=(opt,rrhf)
 ----------------------------------------------------------------------
 -----
 title
 -----
 Symbolic Z-matrix:
 Charge =  0 Multiplicity = 1

 SCF Done:  E(RHF) =  -346.056749872     A.U. after   13 cycles

 1\1\GINC-SE229\Stability\RHF\Aug-CC-pVDZ\C5H12O2\OHZDE\09-Apr-2025\0\\
 #t hf aug-cc-pvdz symm=none int=(grid=ultrafine) guess=(read,tcheck) s
 table=(opt,rrhf)\\title\\0,1\C,0,2.37611457,-0.26325405,1.10847603\C,0
 ,1.1791962,0.57392038,0.68131357\C,0,0.33336733,-0.1146294,-0.38959374
 \O,0,-0.16629354,-1.36554418,0.04316906\C,0,-1.91583624,1.02836856,0.0
 6687896\C,0,-0.79979267,0.77430179,-0.90544949\O,0,-2.0537285,0.472636
 78,1.1266549\H,0,2.05313643,-1.23135978,1.49210153\H,0,3.04881045,-0.4
 4738264,0.26712188\H,0,2.94790064,0.24011614,1.88959769\H,0,0.54779458

 Normal termination of Gaussian 16 at Wed Apr  9 18:48:56 2025.
 Gaussian 16:  ES64L-G16RevC.01  3-Jul-2019

 ----------------------------------------------------------------------
 #t hf aug-cc-pvdz iop(5/13=1,5/36=2,99/5=2) pseudo=read geom=check gue
 ss=(read,tcheck) scf=(maxcycle=1)
 ----------------------------------------------------------------------
 -----
 title
 -----
 Structure from the checkpoint file:  "Grambow2020_wb97xd3_008082_reverse_mol2.chk"
 Charge =  0 Multiplicity = 1

                         Standard orientation:
 ---------------------------------------------------------------------
 Center     Atomic      Atomic             Coordinates (Angstroms)
 Number     Number       Type             X           Y           Z
 ---------------------------------------------------------------------
      1          6           0        2.706242   -0.166205   -0.254287
      2          6           0        1.342564   -0.695350    0.165631
      3          6           0        0.373007    0.421421    0.551832
      4          8           0        0.157475    1.335070   -0.506716
      5          6           0       -1.843048   -0.775604    0.072287
      6          6           0       -0.956471   -0.113229    1.087553
      7          8           0       -1.658521   -0.772934   -1.118057
      8          1           0        2.612052    0.517533   -1.098291
      9          1           0        3.186138    0.378855    0.562358
     10          1           0        3.369745   -0.981243   -0.547456
     11          1           0        0.903073   -1.285167   -0.644237
     12          1           0        1.452828   -1.369544    1.021643
     13          1           0        0.836669    1.014379    1.346639
     14          1           0       -0.295139    0.847727   -1.204944
     15          1           0       -2.740395   -1.278580    0.486501
     16          1           0       -1.549772    0.707684    1.508898
     17          1           0       -2.699708    2.979622    0.031293
     18          1           0       -0.800912   -0.817109    1.912041
     19          1           0       -1.999973    2.762560   -0.114358
 ---------------------------------------------------------------------

 SCF Done:  E(RHF) =  -346.423359242     A.U. after    2 cycles

 The electronic state is 1-A.
 Alpha  occ. eigenvalues --  -20.56061 -20.53804 -11.35660 -11.29254 -11.25633
 Alpha  occ. eigenvalues --  -11.22971 -11.21975  -1.49720  -1.44629  -1.08585
 Alpha  occ. eigenvalues --   -1.02732  -0.91118  -0.82940  -0.79617  -0.70954
 Alpha  occ. eigenvalues --   -0.66081  -0.65786  -0.63284  -0.62182  -0.60995
 Alpha  occ. eigenvalues --   -0.58442  -0.56159  -0.53448  -0.52800  -0.51057
 Alpha  occ. eigenvalues --   -0.48907  -0.48622  -0.43343  -0.42099
 Alpha virt. eigenvalues --    0.02860   0.03667   0.03885   0.04873   0.05877
 Alpha virt. eigenvalues --    0.06072   0.06638   0.06989   0.08812   0.09058
 Alpha virt. eigenvalues --    0.09381   0.09945   0.11203   0.12282   0.13292

 Mulliken charges:
               1
     1  C   -0.382476
     2  C   -0.259645
     3  C    1.040236
     4  O   -1.405882
     5  C    0.977391
     6  C   -0.460815
     7  O   -1.149816
     8  H    0.204904
     9  H    0.160119
    10  H    0.128762
    11  H    0.087938
    12  H    0.132486
    13  H    0.024219
    14  H    0.360240
    15  H    0.101363
    16  H    0.239074
    17  H    0.033032
    18  H    0.199122
    19  H   -0.030251
 Sum of Mulliken charges =  -0.00000

 Dipole moment (field-independent basis, Debye):
    X=             -0.4744    Y=             -1.5263    Z=              2.8021  Tot=              3.2259

 Test job not archived.
 1\1\GINC-SE229\SP\RHF\Aug-CC-pVDZ\C5H12O2\OHZDE\09-Apr-2025\0\\#t hf a
 ug-cc-pvdz iop(5/13=1,5/36=2,99/5=2) pseudo=read geom=check guess=(rea
 d,tcheck) scf=(maxcycle=1)\\title\\0,1\C,0,2.37611457,-0.26325405,1.10
 847603\C,0,1.1791962,0.57392038,0.68131357\C,0,0.33336733,-0.1146294,-
 0.38959374\O,0,-0.16629354,-1.36554418,0.04316906\C,0,-1.91583624,1.02
 836856,0.06687896\C,0,-0.79979267,0.77430179,-0.90544949\O,0,-2.053728
 5,0.47263678,1.1266549\H,0,2.05313643,-1.23135978,1.49210153\H,0,3.048
 81045,-0.44738264,0.26712188\H,0,2.94790064,0.24011614,1.88959769\H,0,

 Normal termination of Gaussian 16 at Wed Apr  9 18:49:04 2025.
