 Gaussian 16, Revision C.01,

 ----------------------------------------------------------------------
 #t hf aug-cc-pvdz symm=none int=(grid=ultrafine) guess=(read,tcheck) s
 table=(opt,rrhf)
 ----------------------------------------------------------------------
 -----
 title
 -----
 Symbolic Z-matrix:
 Charge =  0 Multiplicity = 1

 SCF Done:  E(RHF) =  -323.883456477     A.U. after   13 cycles
 Normal termination of Gaussian 16 at Wed Apr  9 18:48:47 2025.
 Gaussian 16:  ES64L-G16RevC.01  3-Jul-2019

 ----------------------------------------------------------------------
 #t hf aug-cc-pvdz iop(5/13=1,5/36=2,99/5=2) pseudo=read geom=check gue
 ss=(read,tcheck) scf=(maxcycle=1)
 ----------------------------------------------------------------------
 -----
 title
 -----
 Structure from the checkpoint file:  "Grambow2020_wb97xd3_008086_forward_mol2.chk"
 Charge =  0 Multiplicity = 1

                         Standard orientation:
 ---------------------------------------------------------------------
 Center     Atomic      Atomic             Coordinates (Angstroms)
 Number     Number       Type             X           Y           Z
 ---------------------------------------------------------------------
      1          6           0        1.445460    1.335617   -0.150075
      2          6           0        1.332154   -0.150427   -0.005659
      3          7           0        2.324178   -0.859390    0.310860
      4          8           0        0.121187   -0.732314   -0.248136
      5          6           0       -1.006047    0.064806   -0.486258
      6          6           0       -1.762204    0.613110    0.680669
      7          6           0       -2.303996   -0.549244   -0.108494
      8          1           0        1.204828    1.647647   -1.168331
      9          1           0        0.761405    1.851878    0.524393
     10          1           0        2.467950    1.621358    0.077935
     11          1           0        2.055317   -1.840523    0.356028
     12          1           0       -0.958126    0.648292   -1.399124
     13          1           0       -1.364000    0.396882    1.663560
     14          1           0       -2.231814    1.582603    0.577966
     15          1           0       -2.253310   -1.525295    0.354703
     16          1           0       -3.153202   -0.391774   -0.759158
 ---------------------------------------------------------------------

 SCF Done:  E(RHF) =  -324.222684694     A.U. after    2 cycles

 The electronic state is 1-A.
 Alpha  occ. eigenvalues --  -20.58082 -15.46793 -11.34060 -11.30657 -11.24836
 Alpha  occ. eigenvalues --  -11.24695 -11.24395  -1.51612  -1.21093  -1.15048
 Alpha  occ. eigenvalues --   -1.00789  -0.86806  -0.84536  -0.77859  -0.74415
 Alpha  occ. eigenvalues --   -0.69404  -0.67560  -0.62536  -0.60886  -0.56851
 Alpha  occ. eigenvalues --   -0.55696  -0.53852  -0.52493  -0.48195  -0.46491
 Alpha  occ. eigenvalues --   -0.43749  -0.40338
 Alpha virt. eigenvalues --    0.03191   0.03751   0.03914   0.04260   0.05945
 Alpha virt. eigenvalues --    0.06494   0.06662   0.07289   0.08636   0.10184
 Alpha virt. eigenvalues --    0.11506   0.12624   0.13753   0.14142   0.14546

 Mulliken charges:
               1
     1  C   -0.761079
     2  C   -0.128303
     3  N    0.727699
     4  O   -1.744453
     5  C    1.289126
     6  C    0.017824
     7  C    0.153458
     8  H    0.346675
     9  H    0.385941
    10  H    0.065957
    11  H    0.138013
    12  H   -0.122576
    13  H   -0.081976
    14  H   -0.094739
    15  H   -0.097592
    16  H   -0.093976
 Sum of Mulliken charges =  -0.00000

 Dipole moment (field-independent basis, Debye):
    X=             -3.3712    Y=              1.8396    Z=             -0.6965  Tot=              3.9031

 Test job not archived.
 1\1\GINC-SE116\SP\RHF\Aug-CC-pVDZ\C5H9N1O1\OHZDE\09-Apr-2025\0\\#t hf
 aug-cc-pvdz iop(5/13=1,5/36=2,99/5=2) pseudo=read geom=check guess=(re
 ad,tcheck) scf=(maxcycle=1)\\title\\0,1\C,0,1.82857662,-0.79486259,-0.
 00964846\C,0,1.44390442,0.65127157,-0.06200728\N,0,2.26246502,1.538369
 ,-0.42247993\O,0,0.17788905,0.99675021,0.31439344\C,0,-0.76510186,0.00
 180587,0.60355195\C,0,-1.51949829,-0.62731093,-0.52304779\C,0,-2.18006
 847,0.3874605,0.37208965\H,0,1.74268246,-1.18438569,1.00672067\H,0,1.1
 853459,-1.39873088,-0.65071147\H,0,2.85938573,-0.88357297,-0.33932189\

 Normal termination of Gaussian 16 at Wed Apr  9 18:48:53 2025.
