 Gaussian 16, Revision C.01,

 ----------------------------------------------------------------------
 #t hf aug-cc-pvdz symm=none int=(grid=ultrafine) guess=(read,tcheck) s
 table=(opt,rrhf)
 ----------------------------------------------------------------------
 -----
 title
 -----
 Symbolic Z-matrix:
 Charge =  0 Multiplicity = 1

 SCF Done:  E(RHF) =  -306.580227812     A.U. after   16 cycles
 Normal termination of Gaussian 16 at Wed Apr  9 19:09:00 2025.
 Gaussian 16:  ES64L-G16RevC.01  3-Jul-2019

 ----------------------------------------------------------------------
 #t hf aug-cc-pvdz iop(5/13=1,5/36=2,99/5=2) pseudo=read geom=check gue
 ss=(read,tcheck) scf=(maxcycle=1)
 ----------------------------------------------------------------------
 -----
 title
 -----
 Structure from the checkpoint file:  "Grambow2020_wb97xd3_008789_forward_mol1.chk"
 Charge =  0 Multiplicity = 1

                         Standard orientation:
 ---------------------------------------------------------------------
 Center     Atomic      Atomic             Coordinates (Angstroms)
 Number     Number       Type             X           Y           Z
 ---------------------------------------------------------------------
      1          8           0        2.328279   -0.294518    0.248229
      2          6           0        1.136021   -0.134239    0.038033
      3          6           0        0.459702    1.242721    0.142026
      4          6           0       -0.910315    1.056539   -0.463839
      5          6           0       -1.750008   -0.509821    0.868475
      6          6           0       -1.181828   -0.638389   -0.448771
      7          6           0        0.190474   -1.084166   -0.441019
      8          1           0        0.435061    1.596355    1.172726
      9          1           0        1.053632    1.952516   -0.435582
     10          1           0       -1.708416    1.650886   -0.030938
     11          1           0       -0.925255    1.217480   -1.541156
     12          1           0       -1.192140   -0.872933    1.722144
     13          1           0       -2.599857    0.133082    1.067142
     14          1           0       -1.864505   -0.881459   -1.266341
     15          1           0        0.510967   -2.035653   -0.843263
 ---------------------------------------------------------------------

 SCF Done:  E(RHF) =  -306.898354737     A.U. after    2 cycles

 The electronic state is 1-A.
 Alpha  occ. eigenvalues --  -20.45547 -11.35872 -11.30686 -11.29788 -11.28541
 Alpha  occ. eigenvalues --  -11.23755 -11.18834  -1.39544  -1.17407  -1.03503
 Alpha  occ. eigenvalues --   -0.96747  -0.90235  -0.81431  -0.72020  -0.70331
 Alpha  occ. eigenvalues --   -0.68058  -0.63738  -0.61444  -0.58391  -0.54948
 Alpha  occ. eigenvalues --   -0.54150  -0.53055  -0.49687  -0.45289  -0.35423
 Alpha  occ. eigenvalues --   -0.26430
 Alpha virt. eigenvalues --   -0.01397   0.01707   0.02788   0.03792   0.04542
 Alpha virt. eigenvalues --    0.05669   0.06242   0.06484   0.07824   0.09770
 Alpha virt. eigenvalues --    0.11713   0.12204   0.12759   0.12907   0.14603

 Mulliken charges:
               1
     1  O   -1.498312
     2  C    1.006927
     3  C   -0.347403
     4  C   -0.114444
     5  C    0.178285
     6  C   -0.052371
     7  C    0.426589
     8  H    0.167228
     9  H    0.191611
    10  H    0.092494
    11  H    0.129336
    12  H    0.059276
    13  H    0.019139
    14  H   -0.078226
    15  H   -0.180130
 Sum of Mulliken charges =  -0.00000

 Dipole moment (field-independent basis, Debye):
    X=             -8.2628    Y=              1.8396    Z=              0.3646  Tot=              8.4730

 Test job not archived.
 1\1\GINC-SE112\SP\RHF\Aug-CC-pVDZ\C6H8O1\OHZDE\09-Apr-2025\0\\#t hf au
 g-cc-pvdz iop(5/13=1,5/36=2,99/5=2) pseudo=read geom=check guess=(read
 ,tcheck) scf=(maxcycle=1)\\title\\0,1\O,0,0.72731466,-2.66901959,-0.25
 017644\C,0,0.45808743,-1.49514517,-0.04796895\C,0,-0.98958598,-0.97931
 927,0.00108341\C,0,-0.89062485,0.42334371,0.55010539\C,0,0.40157399,1.
 3837052,-0.98010899\C,0,0.74860199,0.87991897,0.3238342\C,0,1.34387082
 ,-0.43409016,0.29182394\H,0,-1.46285401,-1.03020858,-0.97944435\H,0,-1
 .55389708,-1.62740837,0.67318981\H,0,-1.61898479,1.1350998,0.17525684\

 Normal termination of Gaussian 16 at Wed Apr  9 19:09:05 2025.
