 Gaussian 16, Revision C.01,

 ----------------------------------------------------------------------
 #t hf aug-cc-pvdz symm=none int=(grid=ultrafine) guess=(read,tcheck) s
 table=(opt,rrhf)
 ----------------------------------------------------------------------
 -----
 title
 -----
 Symbolic Z-matrix:
 Charge =  0 Multiplicity = 1

 SCF Done:  E(RHF) =  -394.399787346     A.U. after   14 cycles
 Normal termination of Gaussian 16 at Wed Apr  9 18:13:21 2025.
 Gaussian 16:  ES64L-G16RevC.01  3-Jul-2019

 ----------------------------------------------------------------------
 #t hf aug-cc-pvdz iop(5/13=1,5/36=2,99/5=2) pseudo=read geom=check gue
 ss=(read,tcheck) scf=(maxcycle=1)
 ----------------------------------------------------------------------
 -----
 title
 -----
 Structure from the checkpoint file:  "Grambow2020_wb97xd3_007199_reverse_mol2.chk"
 Charge =  0 Multiplicity = 1

                         Standard orientation:
 ---------------------------------------------------------------------
 Center     Atomic      Atomic             Coordinates (Angstroms)
 Number     Number       Type             X           Y           Z
 ---------------------------------------------------------------------
      1          7           0        1.025455   -0.302307    0.001587
      2          6           0       -0.159682    0.303368   -0.000135
      3          8           0       -1.082349   -0.681724   -0.000216
      4          6           0       -2.418307   -0.310966   -0.000914
      5          8           0       -2.839681    0.789010    0.000748
      6          6           0        2.205990    0.453976   -0.000446
      7          8           0        3.287847   -0.050516   -0.000486
      8          1           0        1.136760   -1.314707    0.002907
      9          1           0       -3.010021   -1.234876   -0.003299
     10          1           0        2.000527    1.533304   -0.002108
 ---------------------------------------------------------------------

 SCF Done:  E(RHF) =  -394.779357396     A.U. after    2 cycles

 The electronic state is 1-A.
 Alpha  occ. eigenvalues --  -20.64290 -20.57936 -20.56473 -15.58264 -11.42405
 Alpha  occ. eigenvalues --  -11.39481 -11.35534  -1.59807  -1.51623  -1.51076
 Alpha  occ. eigenvalues --   -1.30151  -1.01092  -0.89560  -0.86768  -0.76579
 Alpha  occ. eigenvalues --   -0.74534  -0.72401  -0.68727  -0.66811  -0.64751
 Alpha  occ. eigenvalues --   -0.62555  -0.54097  -0.48790  -0.48626  -0.47014
 Alpha  occ. eigenvalues --   -0.42367
 Alpha virt. eigenvalues --    0.02855   0.04499   0.05106   0.07079   0.07524
 Alpha virt. eigenvalues --    0.08963   0.09003   0.09569   0.10618   0.12807
 Alpha virt. eigenvalues --    0.13146   0.14177   0.15247   0.16747   0.16778

 Mulliken charges:
               1
     1  N    0.760744
     2  C   -0.395517
     3  O   -1.121314
     4  C    1.407642
     5  O   -0.859248
     6  C    0.958690
     7  O   -1.033454
     8  H    0.052380
     9  H    0.064292
    10  H    0.165785
 Sum of Mulliken charges =  -0.00000

 Dipole moment (field-independent basis, Debye):
    X=             -1.3474    Y=             -2.6044    Z=             -0.0019  Tot=              2.9323

 Test job not archived.
 1\1\GINC-SE114\SP\RHF\Aug-CC-pVDZ\C3H3N1O3\OHZDE\09-Apr-2025\0\\#t hf
 aug-cc-pvdz iop(5/13=1,5/36=2,99/5=2) pseudo=read geom=check guess=(re
 ad,tcheck) scf=(maxcycle=1)\\title\\0,1\N,0,-0.94895543,0.0215166,-0.4
 147757\C,0,0.09018726,0.03588143,0.4167125\O,0,1.18094146,-0.19171633,
 -0.34498056\C,0,2.41277265,-0.22571115,0.29037929\O,0,2.61144097,-0.07
 259889,1.44128893\C,0,-2.24730798,0.22755393,0.0725235\O,0,-3.20541591
 ,0.2208307,-0.63945355\H,0,-0.86169386,-0.13614065,-1.41721002\H,0,3.1
 6852842,-0.42210906,-0.48033599\H,0,-2.25566757,0.38925041,1.15923859\

 Normal termination of Gaussian 16 at Wed Apr  9 18:13:24 2025.
