 Gaussian 16, Revision C.01,

 ----------------------------------------------------------------------
 #t hf aug-cc-pvdz symm=none int=(grid=ultrafine) guess=(read,tcheck) s
 table=(opt,rrhf)
 ----------------------------------------------------------------------
 -----
 title
 -----
 Symbolic Z-matrix:
 Charge =  0 Multiplicity = 1

 SCF Done:  E(RHF) =  -321.783179410     A.U. after   14 cycles
 Normal termination of Gaussian 16 at Wed Apr  9 15:42:47 2025.
 Gaussian 16:  ES64L-G16RevC.01  3-Jul-2019

 ----------------------------------------------------------------------
 #t hf aug-cc-pvdz iop(5/13=1,5/36=2,99/5=2) pseudo=read geom=check gue
 ss=(read,tcheck) scf=(maxcycle=1)
 ----------------------------------------------------------------------
 -----
 title
 -----
 Structure from the checkpoint file:  "Grambow2020_b97d3_006698_reverse_mol2.chk"
 Charge =  0 Multiplicity = 1

                         Standard orientation:
 ---------------------------------------------------------------------
 Center     Atomic      Atomic             Coordinates (Angstroms)
 Number     Number       Type             X           Y           Z
 ---------------------------------------------------------------------
      1          6           0       -2.113970   -0.674195    0.618290
      2          7           0       -1.362011   -0.032449   -0.581219
      3          6           0        0.002297    0.412886   -0.208897
      4          8           0        0.239309    1.510943    0.256047
      5          8           0        0.842230   -0.632583   -0.369445
      6          6           0        2.147585   -0.445139    0.225674
      7          1           0       -1.450263   -1.500432    0.921153
      8          1           0       -1.888030    0.788674   -0.898320
      9          1           0       -2.060755    0.105674    1.395041
     10          1           0       -1.326628   -0.712255   -1.348916
     11          1           0        2.636067    0.441575   -0.194306
     12          1           0        2.705513   -1.351930   -0.021455
     13          1           0        2.050397   -0.332361    1.312116
 ---------------------------------------------------------------------

 SCF Done:  E(RHF) =  -322.109376908     A.U. after    2 cycles

 The electronic state is 1-A.
 Alpha  occ. eigenvalues --  -20.63342 -20.57764 -15.63102 -11.46222 -11.32660
 Alpha  occ. eigenvalues --  -11.19355  -1.57873  -1.49152  -1.29785  -1.00924
 Alpha  occ. eigenvalues --   -0.89143  -0.86253  -0.81171  -0.77382  -0.70186
 Alpha  occ. eigenvalues --   -0.70043  -0.64004  -0.61601  -0.57000  -0.56759
 Alpha  occ. eigenvalues --   -0.50786  -0.50156  -0.48641  -0.28709
 Alpha virt. eigenvalues --    0.02574   0.03348   0.04574   0.05191   0.06025
 Alpha virt. eigenvalues --    0.07152   0.07842   0.08689   0.11226   0.12158
 Alpha virt. eigenvalues --    0.12681   0.13411   0.14491   0.14585   0.15105

 Mulliken charges:
               1
     1  C   -0.647584
     2  N    0.154945
     3  C    1.466872
     4  O   -1.109481
     5  O   -1.255373
     6  C    0.151092
     7  H    0.063475
     8  H    0.406156
     9  H    0.057923
    10  H    0.315953
    11  H    0.189911
    12  H    0.022553
    13  H    0.183557
 Sum of Mulliken charges =  -0.00000

 Dipole moment (field-independent basis, Debye):
    X=              4.3879    Y=              0.1635    Z=             -2.9969  Tot=              5.3162

 Test job not archived.
 1\1\GINC-SE174\SP\RHF\Aug-CC-pVDZ\C3H7N1O2\OHZDE\09-Apr-2025\0\\#t hf
 aug-cc-pvdz iop(5/13=1,5/36=2,99/5=2) pseudo=read geom=check guess=(re
 ad,tcheck) scf=(maxcycle=1)\\title\\0,1\C,0,-2.16595453,0.05847372,-0.
 76260471\N,0,-1.35645188,0.19939333,0.55684519\C,0,0.02064877,-0.33387
 989,0.42457327\O,0,0.30377404,-1.49964368,0.62183887\O,0,0.80897403,0.
 6555225,-0.04860022\C,0,2.10917876,0.21474134,-0.505146\H,0,-1.5522479
 ,0.60585141,-1.49652792\H,0,-1.83264187,-0.3316081,1.29357625\H,0,-2.0
 8938475,-1.01680704,-0.99124601\H,0,-1.33961046,1.18872811,0.82828655\

 Normal termination of Gaussian 16 at Wed Apr  9 15:42:51 2025.
