 Gaussian 16, Revision C.01,

 ----------------------------------------------------------------------
 #t hf aug-cc-pvdz symm=none int=(grid=ultrafine) guess=(read,tcheck) s
 table=(opt,rrhf)
 ----------------------------------------------------------------------
 -----
 title
 -----
 Symbolic Z-matrix:
 Charge =  0 Multiplicity = 1

 SCF Done:  E(RHF) =  -344.758932723     A.U. after   15 cycles

 1\1\GINC-SE335\Stability\RHF\Aug-CC-pVDZ\C5H10O2\OHZDE\09-Apr-2025\0\\
 #t hf aug-cc-pvdz symm=none int=(grid=ultrafine) guess=(read,tcheck) s
 table=(opt,rrhf)\\title\\0,1\C,0,2.10995627,0.79002545,-0.54215298\O,0
 ,0.70458739,0.79766988,-0.39855649\C,0,0.11186939,-0.35600896,-0.88667
 157\C,0,0.23891894,-1.67080691,-0.08412247\O,0,-1.07207119,-1.79626311
 ,-0.03724415\C,0,-1.39588748,-0.49481598,-0.63641192\C,0,-2.03239277,0
 .43949261,0.35211204\H,0,2.55715546,-0.06436774,-0.02609995\H,0,2.3937
 118,0.75456242,-1.60144514\H,0,2.48037883,1.7143677,-0.10338964\H,0,0.

 Normal termination of Gaussian 16 at Wed Apr  9 03:27:33 2025.
 Gaussian 16:  ES64L-G16RevC.01  3-Jul-2019

 ----------------------------------------------------------------------
 #t hf aug-cc-pvdz iop(5/13=1,5/36=2,99/5=2) pseudo=read geom=check gue
 ss=(read,tcheck) scf=(maxcycle=1)
 ----------------------------------------------------------------------
 -----
 title
 -----
 Structure from the checkpoint file:  "Grambow2020_wb97xd3_006655_reverse_mol2.chk"
 Charge =  0 Multiplicity = 1

                         Standard orientation:
 ---------------------------------------------------------------------
 Center     Atomic      Atomic             Coordinates (Angstroms)
 Number     Number       Type             X           Y           Z
 ---------------------------------------------------------------------
      1          6           0        2.477423    0.172437   -0.065982
      2          8           0        1.158592    0.678576   -0.050247
      3          6           0        0.249130   -0.182894   -0.642949
      4          6           0       -0.178519   -1.465432    0.106139
      5          8           0       -1.446818   -1.116211    0.028062
      6          6           0       -1.227466    0.221708   -0.537166
      7          6           0       -1.589350    1.310552    0.431704
      8          1           0        2.539193   -0.790812    0.448432
      9          1           0        2.836010    0.049851   -1.095672
     10          1           0        3.104111    0.899346    0.446854
     11          1           0        0.540763   -0.448690   -1.671802
     12          1           0        0.973141   -0.593491    3.161813
     13          1           0        0.729660   -1.040349    2.614866
     14          1           0       -1.773105    0.314371   -1.478532
     15          1           0       -1.313987    2.276083    0.004755
     16          1           0       -2.662986    1.307724    0.623570
     17          1           0       -1.054300    1.188818    1.372717
 ---------------------------------------------------------------------

 SCF Done:  E(RHF) =  -345.115530858     A.U. after    2 cycles

 The electronic state is 1-A.
 Alpha  occ. eigenvalues --  -20.60788 -20.56473 -11.31589 -11.30572 -11.30004
 Alpha  occ. eigenvalues --  -11.28980 -11.24141  -1.55051  -1.48738  -1.06802
 Alpha  occ. eigenvalues --   -0.99992  -0.92856  -0.87666  -0.75991  -0.71832
 Alpha  occ. eigenvalues --   -0.68605  -0.67152  -0.63603  -0.60410  -0.58971
 Alpha  occ. eigenvalues --   -0.58281  -0.56209  -0.55177  -0.50865  -0.50558
 Alpha  occ. eigenvalues --   -0.49558  -0.44625  -0.35559
 Alpha virt. eigenvalues --    0.03148   0.03675   0.03987   0.05275   0.05686
 Alpha virt. eigenvalues --    0.06343   0.06831   0.08129   0.09125   0.09426
 Alpha virt. eigenvalues --    0.09803   0.11534   0.12294   0.12804   0.13739

 Mulliken charges:
               1
     1  C    0.078067
     2  O   -1.516472
     3  C    0.680236
     4  C    0.402300
     5  O   -1.219873
     6  C    0.760341
     7  C   -0.435501
     8  H    0.214904
     9  H    0.189201
    10  H   -0.013713
    11  H    0.194245
    12  H    0.028636
    13  H   -0.006116
    14  H    0.037446
    15  H    0.228962
    16  H    0.172312
    17  H    0.205024
 Sum of Mulliken charges =  -0.00000

 Dipole moment (field-independent basis, Debye):
    X=              0.3379    Y=              2.4764    Z=             -1.8285  Tot=              3.0968

 Test job not archived.
 1\1\GINC-SE335\SP\RHF\Aug-CC-pVDZ\C5H10O2\OHZDE\09-Apr-2025\0\\#t hf a
 ug-cc-pvdz iop(5/13=1,5/36=2,99/5=2) pseudo=read geom=check guess=(rea
 d,tcheck) scf=(maxcycle=1)\\title\\0,1\C,0,2.10995627,0.79002545,-0.54
 215298\O,0,0.70458739,0.79766988,-0.39855649\C,0,0.11186939,-0.3560089
 6,-0.88667157\C,0,0.23891894,-1.67080691,-0.08412247\O,0,-1.07207119,-
 1.79626311,-0.03724415\C,0,-1.39588748,-0.49481598,-0.63641192\C,0,-2.
 03239277,0.43949261,0.35211204\H,0,2.55715546,-0.06436774,-0.02609995\
 H,0,2.3937118,0.75456242,-1.60144514\H,0,2.48037883,1.7143677,-0.10338

 Normal termination of Gaussian 16 at Wed Apr  9 03:27:39 2025.
