 Gaussian 16, Revision C.01,

 ----------------------------------------------------------------------
 #t hf aug-cc-pvdz symm=none int=(grid=ultrafine) guess=(read,tcheck) s
 table=(opt,rrhf)
 ----------------------------------------------------------------------
 -----
 title
 -----
 Symbolic Z-matrix:
 Charge =  0 Multiplicity = 1

 SCF Done:  E(RHF) =  -360.774355741     A.U. after   16 cycles
 Normal termination of Gaussian 16 at Wed Apr  9 03:59:22 2025.
 Gaussian 16:  ES64L-G16RevC.01  3-Jul-2019

 ----------------------------------------------------------------------
 #t hf aug-cc-pvdz iop(5/13=1,5/36=2,99/5=2) pseudo=read geom=check gue
 ss=(read,tcheck) scf=(maxcycle=1)
 ----------------------------------------------------------------------
 -----
 title
 -----
 Structure from the checkpoint file:  "Grambow2020_wb97xd3_008734_reverse_mol1.chk"
 Charge =  0 Multiplicity = 1

                         Standard orientation:
 ---------------------------------------------------------------------
 Center     Atomic      Atomic             Coordinates (Angstroms)
 Number     Number       Type             X           Y           Z
 ---------------------------------------------------------------------
      1          6           0        2.428532   -0.441866    0.386829
      2          6           0        1.027248    0.151849    0.254398
      3          8           0        1.035494    1.286311   -0.581660
      4          6           0        0.115294   -0.916489   -0.330288
      5          6           0       -1.494566    0.034553   -0.403954
      6          8           0       -1.623201   -1.209942   -0.069213
      7          7           0       -2.055438    0.901028    0.449313
      8          1           0        2.806211   -0.752117   -0.589482
      9          1           0        2.434789   -1.302178    1.057785
     10          1           0        3.115835    0.301791    0.796943
     11          1           0        0.653236    0.412738    1.253587
     12          1           0        1.694783    1.898369   -0.250401
     13          1           0        0.262540   -1.068511   -1.391205
     14          1           0        0.282225   -1.827384    0.250369
     15          1           0       -2.578595    0.569191    1.251448
     16          1           0       -2.040351    1.881662    0.240845
 ---------------------------------------------------------------------

 SCF Done:  E(RHF) =  -361.144660772     A.U. after    2 cycles

 The electronic state is 1-A.
 Alpha  occ. eigenvalues --  -20.55468 -20.54663 -15.50158 -11.32707 -11.30914
 Alpha  occ. eigenvalues --  -11.28549 -11.24723  -1.46658  -1.45812  -1.19458
 Alpha  occ. eigenvalues --   -1.07319  -0.95160  -0.83499  -0.81318  -0.73435
 Alpha  occ. eigenvalues --   -0.72369  -0.67355  -0.64997  -0.63049  -0.59417
 Alpha  occ. eigenvalues --   -0.56549  -0.55560  -0.54040  -0.51911  -0.49670
 Alpha  occ. eigenvalues --   -0.45212  -0.43511  -0.31347
 Alpha virt. eigenvalues --    0.02891   0.03616   0.04136   0.04568   0.06092
 Alpha virt. eigenvalues --    0.06645   0.06969   0.07738   0.08845   0.10728
 Alpha virt. eigenvalues --    0.11893   0.12396   0.12894   0.14630   0.14975

 Mulliken charges:
               1
     1  C   -0.332709
     2  C    0.755236
     3  O   -1.285051
     4  C    0.189657
     5  C   -0.441148
     6  O   -1.189658
     7  N    0.646795
     8  H    0.233959
     9  H    0.170453
    10  H    0.092011
    11  H    0.203742
    12  H    0.292081
    13  H    0.212231
    14  H    0.058727
    15  H    0.205992
    16  H    0.187681
 Sum of Mulliken charges =  -0.00000

 Dipole moment (field-independent basis, Debye):
    X=              2.9581    Y=              1.1442    Z=              2.4895  Tot=              4.0320

 Test job not archived.
 1\1\GINC-SE173\SP\RHF\Aug-CC-pVDZ\C4H9N1O2\OHZDE\09-Apr-2025\0\\#t hf
 aug-cc-pvdz iop(5/13=1,5/36=2,99/5=2) pseudo=read geom=check guess=(re
 ad,tcheck) scf=(maxcycle=1)\\title\\0,1\C,0,-2.01201227,-0.11811932,-1
 .03306047\C,0,-0.61497455,0.29493603,-0.57338351\O,0,-0.65185485,1.523
 87706,0.11539081\C,0,-0.07714538,-0.79585946,0.34082135\C,0,1.59293413
 ,-0.06808079,0.76829122\O,0,1.59562408,-1.35257273,0.6026471\N,0,2.492
 34681,0.59047202,0.02614046\H,0,-2.67678238,-0.23846005,-0.17534289\H,
 0,-1.98633502,-1.05345478,-1.59417175\H,0,-2.43551573,0.64777895,-1.68

 Normal termination of Gaussian 16 at Wed Apr  9 03:59:28 2025.
