 Gaussian 16, Revision C.01,

 ----------------------------------------------------------------------
 #t hf aug-cc-pvdz symm=none int=(grid=ultrafine) guess=(read,tcheck) s
 table=(opt,rrhf)
 ----------------------------------------------------------------------
 -----
 title
 -----
 Symbolic Z-matrix:
 Charge =  0 Multiplicity = 1

 SCF Done:  E(RHF) =  -332.552766961     A.U. after   15 cycles
 Normal termination of Gaussian 16 at Wed Apr  9 19:15:40 2025.
 Gaussian 16:  ES64L-G16RevC.01  3-Jul-2019

 ----------------------------------------------------------------------
 #t hf aug-cc-pvdz iop(5/13=1,5/36=2,99/5=2) pseudo=read geom=check gue
 ss=(read,tcheck) scf=(maxcycle=1)
 ----------------------------------------------------------------------
 -----
 title
 -----
 Structure from the checkpoint file:  "Grambow2020_wb97xd3_009009_reverse_mol2.chk"
 Charge =  0 Multiplicity = 1

                         Standard orientation:
 ---------------------------------------------------------------------
 Center     Atomic      Atomic             Coordinates (Angstroms)
 Number     Number       Type             X           Y           Z
 ---------------------------------------------------------------------
      1          7           0       -2.895972   -0.022690    0.000564
      2          6           0       -1.748875   -0.035523   -0.000193
      3          6           0       -0.324001    0.004662   -0.000619
      4          6           0        0.526619    1.119939   -0.000325
      5          7           0        1.772769    0.681276    0.000377
      6          7           0        1.638238   -0.627099    0.000218
      7          7           0        0.420745   -1.098040   -0.000377
      8          1           0        0.289692    2.170440    0.000053
      9          1           0        2.437387   -1.239028    0.001294
 ---------------------------------------------------------------------

 SCF Done:  E(RHF) =  -332.882162310     A.U. after    2 cycles

 The electronic state is 1-A.
 Alpha  occ. eigenvalues --  -15.66253 -15.60150 -15.58902 -15.53282 -11.32979
 Alpha  occ. eigenvalues --  -11.31123 -11.29977  -1.49598  -1.26625  -1.25153
 Alpha  occ. eigenvalues --   -1.17623  -0.97713  -0.93445  -0.84225  -0.77478
 Alpha  occ. eigenvalues --   -0.74064  -0.69200  -0.62533  -0.59508  -0.56797
 Alpha  occ. eigenvalues --   -0.56042  -0.52217  -0.48092  -0.43545
 Alpha virt. eigenvalues --    0.02384   0.04607   0.04677   0.07592   0.07827
 Alpha virt. eigenvalues --    0.08388   0.10029   0.10584   0.11534   0.13019
 Alpha virt. eigenvalues --    0.13481   0.13783   0.14806   0.14924   0.15628

 Mulliken charges:
               1
     1  N    0.882026
     2  C   -1.649799
     3  C    0.333158
     4  C    0.021752
     5  N    0.183274
     6  N   -0.194372
     7  N    0.532086
     8  H   -0.193433
     9  H    0.085307
 Sum of Mulliken charges =  -0.00000

 Dipole moment (field-independent basis, Debye):
    X=              4.1442    Y=              0.5978    Z=             -0.0002  Tot=              4.1871

 Test job not archived.
 1\1\GINC-SE104\SP\RHF\Aug-CC-pVDZ\C3H2N4\OHZDE\09-Apr-2025\0\\#t hf au
 g-cc-pvdz iop(5/13=1,5/36=2,99/5=2) pseudo=read geom=check guess=(read
 ,tcheck) scf=(maxcycle=1)\\title\\0,1\N,0,3.11746276,0.18800669,0.2788
 2298\C,0,1.9729159,0.1772152,0.2020632\C,0,0.55391145,0.11303538,0.082
 95001\C,0,-0.24013927,-0.90845851,-0.45874479\N,0,-1.50426897,-0.53828
 774,-0.35742113\N,0,-1.4337552,0.64291583,0.21679891\N,0,-0.2424669,1.
 09142888,0.50618386\H,0,0.04723208,-1.85014262,-0.89502\H,0,-2.2605548
 6,1.17782489,0.42505795\\Version=ES64L-G16RevC.01\State=1-A\HF=-332.88

 Normal termination of Gaussian 16 at Wed Apr  9 19:15:44 2025.
