 Gaussian 16, Revision C.01,

 ----------------------------------------------------------------------
 #t hf aug-cc-pvdz symm=none int=(grid=ultrafine) guess=(read,tcheck) s
 table=(opt,rrhf)
 ----------------------------------------------------------------------
 -----
 title
 -----
 Symbolic Z-matrix:
 Charge =  0 Multiplicity = 1

 SCF Done:  E(RHF) =  -320.287058633     A.U. after   15 cycles
 Normal termination of Gaussian 16 at Wed Apr  9 19:19:43 2025.
 Gaussian 16:  ES64L-G16RevC.01  3-Jul-2019

 ----------------------------------------------------------------------
 #t hf aug-cc-pvdz iop(5/13=1,5/36=2,99/5=2) pseudo=read geom=check gue
 ss=(read,tcheck) scf=(maxcycle=1)
 ----------------------------------------------------------------------
 -----
 title
 -----
 Structure from the checkpoint file:  "Grambow2020_wb97xd3_009377_reverse_mol2.chk"
 Charge =  0 Multiplicity = 1

                         Standard orientation:
 ---------------------------------------------------------------------
 Center     Atomic      Atomic             Coordinates (Angstroms)
 Number     Number       Type             X           Y           Z
 ---------------------------------------------------------------------
      1          8           0        1.357255   -1.522278   -0.300367
      2          6           0        0.672057   -0.610254    0.056286
      3          6           0       -0.746312   -0.753633    0.566515
      4          6           0       -2.468198    0.953144   -0.057246
      5          6           0       -1.724618   -0.065277   -0.349794
      6          6           0        1.194720    0.775103    0.022885
      7          7           0        1.602246    1.847081    0.020803
      8          1           0       -0.802105   -0.312314    1.564499
      9          1           0       -0.964972   -1.818699    0.636227
     10          1           0       -1.872582   -0.414834   -1.375293
 ---------------------------------------------------------------------

 SCF Done:  E(RHF) =  -320.595985570     A.U. after    2 cycles

 The electronic state is 1-A.
 Alpha  occ. eigenvalues --  -20.60953 -15.55893 -11.42375 -11.33110 -11.31922
 Alpha  occ. eigenvalues --  -11.31072 -11.27966  -1.54871  -1.27358  -1.15155
 Alpha  occ. eigenvalues --   -1.04086  -0.93379  -0.75979  -0.75895  -0.70714
 Alpha  occ. eigenvalues --   -0.66194  -0.64780  -0.62690  -0.58386  -0.54547
 Alpha  occ. eigenvalues --   -0.52796  -0.50518  -0.48357  -0.43660
 Alpha virt. eigenvalues --    0.01849   0.02931   0.03318   0.04411   0.04742
 Alpha virt. eigenvalues --    0.06741   0.08054   0.09005   0.10659   0.11443
 Alpha virt. eigenvalues --    0.11816   0.12452   0.13572   0.14081   0.14774

 Mulliken charges:
               1
     1  O   -1.237903
     2  C    1.715109
     3  C   -0.392579
     4  C   -0.472213
     5  C    0.625066
     6  C   -1.544612
     7  N    0.898763
     8  H    0.270797
     9  H    0.171304
    10  H   -0.033732
 Sum of Mulliken charges =  -0.00000

 Dipole moment (field-independent basis, Debye):
    X=             -1.9776    Y=             -3.5882    Z=              0.5091  Tot=              4.1286

 Test job not archived.
 1\1\GINC-SE116\SP\RHF\Aug-CC-pVDZ\C5H3N1O1\OHZDE\09-Apr-2025\0\\#t hf
 aug-cc-pvdz iop(5/13=1,5/36=2,99/5=2) pseudo=read geom=check guess=(re
 ad,tcheck) scf=(maxcycle=1)\\title\\0,1\O,0,-1.7995594,-0.45385643,1.2
 4321399\C,0,-1.07016775,0.0033126,0.41407623\C,0,0.02359884,-0.7747264
 7,-0.28663261\C,0,2.21309634,0.33353739,-0.78151192\C,0,1.38367198,-0.
 21758452,0.04552831\C,0,-1.20190772,1.41964053,0.00156678\N,0,-1.31445
 731,2.50920327,-0.33814737\H,0,-0.14572945,-0.71686858,-1.36451374\H,0
 ,-0.05684736,-1.81397488,0.03042923\H,0,1.77029782,-0.25625492,1.06766

 Normal termination of Gaussian 16 at Wed Apr  9 19:19:46 2025.
