 Gaussian 16, Revision C.01,

 ----------------------------------------------------------------------
 #t hf aug-cc-pvdz symm=none int=(grid=ultrafine) guess=(read,tcheck) s
 table=(opt,rrhf)
 ----------------------------------------------------------------------
 -----
 title
 -----
 Symbolic Z-matrix:
 Charge =  0 Multiplicity = 1

 SCF Done:  E(RHF) =  -341.324466914     A.U. after   17 cycles
 Normal termination of Gaussian 16 at Wed Apr  9 19:17:44 2025.
 Gaussian 16:  ES64L-G16RevC.01  3-Jul-2019

 ----------------------------------------------------------------------
 #t hf aug-cc-pvdz iop(5/13=1,5/36=2,99/5=2) pseudo=read geom=check gue
 ss=(read,tcheck) scf=(maxcycle=1)
 ----------------------------------------------------------------------
 -----
 title
 -----
 Structure from the checkpoint file:  "Grambow2020_wb97xd3_009088_forward_mol1.chk"
 Charge =  0 Multiplicity = 1

                         Standard orientation:
 ---------------------------------------------------------------------
 Center     Atomic      Atomic             Coordinates (Angstroms)
 Number     Number       Type             X           Y           Z
 ---------------------------------------------------------------------
      1          8           0       -0.730233    2.028846   -0.377630
      2          6           0       -0.440748    1.003135   -0.001471
      3          6           0        1.866653    0.355145    0.608699
      4          6           0        1.570115   -0.587182   -0.315827
      5          6           0        0.337079   -1.297642   -0.348524
      6          6           0       -0.832476   -0.713932    0.065176
      7          8           0       -1.968804   -0.896657    0.361783
      8          1           0        2.732359    0.995921    0.493097
      9          1           0        1.344904    0.409126    1.554911
     10          1           0        2.271889   -0.764429   -1.126874
     11          1           0        0.239414   -2.255271   -0.842677
 ---------------------------------------------------------------------

 SCF Done:  E(RHF) =  -341.657140801     A.U. after    2 cycles

 The electronic state is 1-A.
 Alpha  occ. eigenvalues --  -20.67734 -20.55685 -11.42843 -11.39563 -11.27976
 Alpha  occ. eigenvalues --  -11.25900 -11.25044  -1.62911  -1.50703  -1.13081
 Alpha  occ. eigenvalues --   -1.00439  -0.87978  -0.82645  -0.76689  -0.71243
 Alpha  occ. eigenvalues --   -0.68304  -0.67374  -0.65649  -0.65030  -0.59421
 Alpha  occ. eigenvalues --   -0.57633  -0.55693  -0.48565  -0.42079  -0.31648
 Alpha virt. eigenvalues --    0.03227   0.03690   0.04508   0.05909   0.06661
 Alpha virt. eigenvalues --    0.07338   0.08143   0.09244   0.10029   0.11908
 Alpha virt. eigenvalues --    0.12130   0.13173   0.13380   0.14656   0.14968

 Mulliken charges:
               1
     1  O   -0.930566
     2  C    1.003529
     3  C   -0.216331
     4  C    0.481098
     5  C    0.574984
     6  C    0.763962
     7  O   -1.252519
     8  H   -0.120100
     9  H   -0.008879
    10  H   -0.144060
    11  H   -0.151119
 Sum of Mulliken charges =  -0.00000

 Dipole moment (field-independent basis, Debye):
    X=              2.7360    Y=              1.0349    Z=             -0.5892  Tot=              2.9840

 Test job not archived.
 1\1\GINC-SE105\SP\RHF\Aug-CC-pVDZ\C5H4O2\OHZDE\09-Apr-2025\0\\#t hf au
 g-cc-pvdz iop(5/13=1,5/36=2,99/5=2) pseudo=read geom=check guess=(read
 ,tcheck) scf=(maxcycle=1)\\title\\0,1\O,0,-0.68733549,2.21534607,1.130
 31789\C,0,-0.17881075,1.46207663,0.45847903\C,0,-1.33277702,-0.4608301
 9,-0.58415581\C,0,-0.33550067,-1.0883009,0.08096157\C,0,1.01714565,-0.
 64503703,0.07273746\C,0,1.32973655,0.68663897,-0.02026403\O,0,2.193032
 5,1.48061211,-0.21244073\H,0,-2.36952865,-0.72050478,-0.40774731\H,0,-
 1.13344468,0.21063928,-1.40868497\H,0,-0.58224913,-1.93167976,0.720904

 Normal termination of Gaussian 16 at Wed Apr  9 19:17:48 2025.
