 Gaussian 16, Revision C.01,

 ----------------------------------------------------------------------
 #t hf aug-cc-pvdz symm=none int=(grid=ultrafine) guess=(read,tcheck) s
 table=(opt,rrhf)
 ----------------------------------------------------------------------
 -----
 title
 -----
 Symbolic Z-matrix:
 Charge =  0 Multiplicity = 1

 SCF Done:  E(RHF) =  -338.741808119     A.U. after   14 cycles
 Normal termination of Gaussian 16 at Wed Apr  9 03:53:01 2025.
 Gaussian 16:  ES64L-G16RevC.01  3-Jul-2019

 ----------------------------------------------------------------------
 #t hf aug-cc-pvdz iop(5/13=1,5/36=2,99/5=2) pseudo=read geom=check gue
 ss=(read,tcheck) scf=(maxcycle=1)
 ----------------------------------------------------------------------
 -----
 title
 -----
 Structure from the checkpoint file:  "Grambow2020_wb97xd3_008314_reverse_mol2.chk"
 Charge =  0 Multiplicity = 1

                         Standard orientation:
 ---------------------------------------------------------------------
 Center     Atomic      Atomic             Coordinates (Angstroms)
 Number     Number       Type             X           Y           Z
 ---------------------------------------------------------------------
      1          6           0       -2.465364   -0.329115   -0.001463
      2          8           0       -1.449450    0.669819    0.000811
      3          6           0       -0.205515    0.215298    0.001777
      4          6           0        0.946696    1.139071   -0.000181
      5          7           0        2.030079    0.475442   -0.001127
      6          6           0        1.617813   -0.919727   -0.000490
      7          7           0        0.174669   -1.000573    0.001766
      8          1           0       -2.372704   -0.961594   -0.885324
      9          1           0       -3.410579    0.207138   -0.009958
     10          1           0       -2.384427   -0.952794    0.889755
     11          1           0        0.899916    2.221981   -0.000115
     12          1           0        2.032412   -1.414916   -0.883202
     13          1           0        2.035968   -1.415614    0.880032
 ---------------------------------------------------------------------

 SCF Done:  E(RHF) =  -339.087197938     A.U. after    2 cycles

 The electronic state is 1-A.
 Alpha  occ. eigenvalues --  -20.59673 -15.52066 -15.49438 -11.34734 -11.29984
 Alpha  occ. eigenvalues --  -11.29414 -11.29093  -1.53571  -1.32332  -1.18237
 Alpha  occ. eigenvalues --   -1.01994  -0.95842  -0.84191  -0.80037  -0.75152
 Alpha  occ. eigenvalues --   -0.69097  -0.67584  -0.64784  -0.63592  -0.59289
 Alpha  occ. eigenvalues --   -0.53495  -0.53117  -0.50186  -0.48581  -0.46424
 Alpha  occ. eigenvalues --   -0.42113
 Alpha virt. eigenvalues --    0.03484   0.04263   0.04752   0.05471   0.06066
 Alpha virt. eigenvalues --    0.06193   0.07024   0.08650   0.09438   0.11414
 Alpha virt. eigenvalues --    0.11696   0.13390   0.14863   0.15002   0.15272

 Mulliken charges:
               1
     1  C    0.141842
     2  O   -1.436828
     3  C    0.239801
     4  C   -0.416886
     5  N    0.664373
     6  C   -0.376318
     7  N    0.819425
     8  H    0.188327
     9  H   -0.008817
    10  H    0.186847
    11  H   -0.070692
    12  H    0.034904
    13  H    0.034023
 Sum of Mulliken charges =  -0.00000

 Dipole moment (field-independent basis, Debye):
    X=             -2.1410    Y=              0.5161    Z=             -0.0037  Tot=              2.2024

 Test job not archived.
 1\1\GINC-SE252\SP\RHF\Aug-CC-pVDZ\C4H6N2O1\OHZDE\09-Apr-2025\0\\#t hf
 aug-cc-pvdz iop(5/13=1,5/36=2,99/5=2) pseudo=read geom=check guess=(re
 ad,tcheck) scf=(maxcycle=1)\\title\\0,1\C,0,2.21390554,0.37987075,-0.4
 3237137\O,0,1.32366542,-0.69863218,-0.15986817\C,0,0.05147594,-0.36177
 761,-0.01145936\C,0,-0.98154325,-1.37885606,0.27027492\N,0,-2.11882498
 ,-0.82112248,0.3684918\C,0,-1.86462916,0.59472512,0.15119269\N,0,-0.45
 413792,0.8052482,-0.08417933\H,0,1.92454247,0.88621078,-1.354171\H,0,3
 .20014481,-0.06566398,-0.53188221\H,0,2.1974882,1.09994368,0.38678742\

 Normal termination of Gaussian 16 at Wed Apr  9 03:53:05 2025.
