 Gaussian 16, Revision C.01,

 ----------------------------------------------------------------------
 #t hf aug-cc-pvdz symm=none int=(grid=ultrafine) guess=(read,tcheck) s
 table=(opt,rrhf)
 ----------------------------------------------------------------------
 -----
 title
 -----
 Symbolic Z-matrix:
 Charge =  0 Multiplicity = 1

 SCF Done:  E(RHF) =  -272.041579690     A.U. after   13 cycles
 Normal termination of Gaussian 16 at Wed Apr  9 03:39:45 2025.
 Gaussian 16:  ES64L-G16RevC.01  3-Jul-2019

 ----------------------------------------------------------------------
 #t hf aug-cc-pvdz iop(5/13=1,5/36=2,99/5=2) pseudo=read geom=check gue
 ss=(read,tcheck) scf=(maxcycle=1)
 ----------------------------------------------------------------------
 -----
 title
 -----
 Structure from the checkpoint file:  "Grambow2020_wb97xd3_007415_reverse_mol2.chk"
 Charge =  0 Multiplicity = 1

                         Standard orientation:
 ---------------------------------------------------------------------
 Center     Atomic      Atomic             Coordinates (Angstroms)
 Number     Number       Type             X           Y           Z
 ---------------------------------------------------------------------
      1          6           0       -1.685752    1.497313   -0.137862
      2          6           0       -1.841660    0.040719    0.209826
      3          6           0       -1.351789   -1.018679   -0.732519
      4          6           0        1.630618   -0.219766   -0.281796
      5          6           0        2.998587    0.368600   -0.141781
      6          6           0        0.716701   -0.247522    0.678560
      7          6           0       -0.650383   -0.814584    0.577747
      8          1           0       -0.735667    1.681647   -0.641816
      9          1           0       -2.487914    1.825183   -0.802716
     10          1           0       -1.714529    2.122944    0.757297
     11          1           0       -2.752685   -0.195391    0.749394
     12          1           0       -1.938638   -1.918247   -0.863983
     13          1           0       -0.852291   -0.679181   -1.631816
     14          1           0        1.388585   -0.655927   -1.248481
     15          1           0        3.159009    0.767408    0.861093
     16          1           0        3.154551    1.179505   -0.858505
     17          1           0        3.770350   -0.380217   -0.338630
     18          1           0        0.972562    0.177729    1.648444
     19          1           0       -0.861259   -1.561940    1.336667
 ---------------------------------------------------------------------

 SCF Done:  E(RHF) =  -272.341450227     A.U. after    2 cycles

 The electronic state is 1-A.
 Alpha  occ. eigenvalues --  -11.23228 -11.23177 -11.22938 -11.22764 -11.22698
 Alpha  occ. eigenvalues --  -11.22423 -11.21903  -1.15704  -1.06262  -0.96717
 Alpha  occ. eigenvalues --   -0.93772  -0.83189  -0.77894  -0.72916  -0.68056
 Alpha  occ. eigenvalues --   -0.64311  -0.59894  -0.57258  -0.56729  -0.56272
 Alpha  occ. eigenvalues --   -0.54295  -0.51288  -0.50759  -0.48608  -0.42563
 Alpha  occ. eigenvalues --   -0.41592  -0.34366
 Alpha virt. eigenvalues --    0.03473   0.03646   0.03897   0.04024   0.05473
 Alpha virt. eigenvalues --    0.05905   0.06013   0.06481   0.06805   0.08885
 Alpha virt. eigenvalues --    0.09205   0.09437   0.12520   0.12829   0.13365

 Mulliken charges:
               1
     1  C   -0.633137
     2  C    0.175125
     3  C    0.388950
     4  C   -0.036451
     5  C   -0.773594
     6  C    0.648708
     7  C    0.164630
     8  H    0.183112
     9  H    0.179174
    10  H    0.186763
    11  H   -0.187492
    12  H   -0.162250
    13  H   -0.105929
    14  H   -0.197923
    15  H    0.109219
    16  H    0.234951
    17  H    0.231558
    18  H   -0.244564
    19  H   -0.160851
 Sum of Mulliken charges =  -0.00000

 Dipole moment (field-independent basis, Debye):
    X=              0.0081    Y=              0.0790    Z=             -0.0160  Tot=              0.0810

 Test job not archived.
 1\1\GINC-SE338\SP\RHF\Aug-CC-pVDZ\C7H12\OHZDE\09-Apr-2025\0\\#t hf aug
 -cc-pvdz iop(5/13=1,5/36=2,99/5=2) pseudo=read geom=check guess=(read,
 tcheck) scf=(maxcycle=1)\\title\\0,1\C,0,-2.03599061,-0.85766022,0.112
 72622\C,0,-1.78549604,0.61911393,-0.03975817\C,0,-0.94308953,1.3510710
 8,0.96268925\C,0,1.63801582,-0.17298277,0.09590316\C,0,2.76206249,-1.0
 924126,-0.26226968\C,0,0.70611357,0.24788278,-0.74832895\C,0,-0.426064
 18,1.15254736,-0.4314765\H,0,-1.14746639,-1.37081064,0.48395848\H,0,-2
 .84965606,-1.04209044,0.81765682\H,0,-2.30890065,-1.3132392,-0.8420084

 Normal termination of Gaussian 16 at Wed Apr  9 03:39:52 2025.
