 Gaussian 16, Revision C.01,

 ----------------------------------------------------------------------
 #t hf aug-cc-pvdz symm=none int=(grid=ultrafine) guess=(read,tcheck) s
 table=(opt,rrhf)
 ----------------------------------------------------------------------
 -----
 title
 -----
 Symbolic Z-matrix:
 Charge =  0 Multiplicity = 1

 SCF Done:  E(RHF) =  -286.666991961     A.U. after   17 cycles
 Normal termination of Gaussian 16 at Wed Apr  9 19:08:08 2025.
 Gaussian 16:  ES64L-G16RevC.01  3-Jul-2019

 ----------------------------------------------------------------------
 #t hf aug-cc-pvdz iop(5/13=1,5/36=2,99/5=2) pseudo=read geom=check gue
 ss=(read,tcheck) scf=(maxcycle=1)
 ----------------------------------------------------------------------
 -----
 title
 -----
 Structure from the checkpoint file:  "Grambow2020_wb97xd3_008600_reverse_mol1.chk"
 Charge =  0 Multiplicity = 1

                         Standard orientation:
 ---------------------------------------------------------------------
 Center     Atomic      Atomic             Coordinates (Angstroms)
 Number     Number       Type             X           Y           Z
 ---------------------------------------------------------------------
      1          6           0        1.962246   -0.230901    0.398446
      2          6           0        0.773215   -0.734212   -0.203617
      3          6           0       -0.639992   -0.686158    0.612503
      4          6           0       -1.687054   -0.794220   -0.379161
      5          6           0       -0.276425    1.190131   -0.498425
      6          6           0       -0.686516    0.813516    0.900274
      7          7           0        0.663592    0.435028   -1.049046
      8          1           0        2.930660   -0.681359    0.221221
      9          1           0        1.927443    0.622744    1.057925
     10          1           0        0.900784   -1.649400   -0.779712
     11          1           0       -0.601091   -1.428168    1.411178
     12          1           0       -1.809955   -1.687527   -0.983903
     13          1           0       -2.477026   -0.061043   -0.435367
     14          1           0       -0.504031    2.151740   -0.950516
     15          1           0        0.004129    1.185791    1.661947
     16          1           0       -1.688896    1.153090    1.160426
 ---------------------------------------------------------------------

 SCF Done:  E(RHF) =  -286.968409520     A.U. after    2 cycles

 The electronic state is 1-A.
 Alpha  occ. eigenvalues --  -15.51498 -11.29240 -11.27350 -11.26974 -11.25249
 Alpha  occ. eigenvalues --  -11.24595 -11.24342  -1.27332  -1.07903  -1.03339
 Alpha  occ. eigenvalues --   -0.94019  -0.85444  -0.78664  -0.76224  -0.70372
 Alpha  occ. eigenvalues --   -0.67052  -0.63784  -0.61186  -0.57999  -0.55475
 Alpha  occ. eigenvalues --   -0.53689  -0.51731  -0.49518  -0.44336  -0.41557
 Alpha  occ. eigenvalues --   -0.23245
 Alpha virt. eigenvalues --    0.00859   0.03622   0.03769   0.04047   0.04207
 Alpha virt. eigenvalues --    0.05274   0.05528   0.05883   0.08677   0.09183
 Alpha virt. eigenvalues --    0.10146   0.11023   0.12817   0.13191   0.14242

 Mulliken charges:
               1
     1  C    0.122778
     2  C    0.133608
     3  C   -0.032116
     4  C    0.214304
     5  C   -0.642160
     6  C    0.224771
     7  N    0.651069
     8  H   -0.092386
     9  H   -0.071569
    10  H   -0.202165
    11  H    0.017277
    12  H   -0.123887
    13  H   -0.092523
    14  H   -0.134324
    15  H    0.027451
    16  H   -0.000129
 Sum of Mulliken charges =  -0.00000

 Dipole moment (field-independent basis, Debye):
    X=              0.0669    Y=             -0.0885    Z=              2.5101  Tot=              2.5126

 Test job not archived.
 1\1\GINC-SE045\SP\RHF\Aug-CC-pVDZ\C6H9N1\OHZDE\09-Apr-2025\0\\#t hf au
 g-cc-pvdz iop(5/13=1,5/36=2,99/5=2) pseudo=read geom=check guess=(read
 ,tcheck) scf=(maxcycle=1)\\title\\0,1\C,0,1.8613972,0.84472956,0.28776
 044\C,0,1.08930649,-0.34666787,0.16924749\C,0,-0.41420589,-0.41294784,
 0.80215485\C,0,-1.09233524,-1.49824336,0.12859171\C,0,-0.43099532,0.39
 664213,-1.25480482\C,0,-1.02123175,0.78536217,0.07443922\N,0,0.8094547
 6,-0.06948641,-1.2231407\H,0,2.93642044,0.82212185,0.41409738\H,0,1.38
 765592,1.81397752,0.25676807\H,0,1.64766992,-1.27211394,0.30156347\H,0

 Normal termination of Gaussian 16 at Wed Apr  9 19:08:14 2025.
