 Gaussian 16, Revision C.01,

 ----------------------------------------------------------------------
 #t hf aug-cc-pvdz symm=none int=(grid=ultrafine) guess=(read,tcheck) s
 table=(opt,rrhf)
 ----------------------------------------------------------------------
 -----
 title
 -----
 Symbolic Z-matrix:
 Charge =  0 Multiplicity = 1

 SCF Done:  E(RHF) =  -337.565308186     A.U. after   13 cycles
 Normal termination of Gaussian 16 at Wed Apr  9 19:21:47 2025.
 Gaussian 16:  ES64L-G16RevC.01  3-Jul-2019

 ----------------------------------------------------------------------
 #t hf aug-cc-pvdz iop(5/13=1,5/36=2,99/5=2) pseudo=read geom=check gue
 ss=(read,tcheck) scf=(maxcycle=1)
 ----------------------------------------------------------------------
 -----
 title
 -----
 Structure from the checkpoint file:  "Grambow2020_wb97xd3_009446_forward_mol2.chk"
 Charge =  0 Multiplicity = 1

                         Standard orientation:
 ---------------------------------------------------------------------
 Center     Atomic      Atomic             Coordinates (Angstroms)
 Number     Number       Type             X           Y           Z
 ---------------------------------------------------------------------
      1          7           0       -2.587425   -0.941586    0.441900
      2          6           0       -1.818988   -0.326008   -0.145298
      3          6           0       -0.803108    0.460124   -0.867907
      4          8           0       -0.000147    1.214529    0.003732
      5          6           0        0.801524    0.453064    0.870168
      6          6           0        1.818961   -0.326971    0.143211
      7          7           0        2.589748   -0.936792   -0.446842
      8          1           0       -1.302603    1.170302   -1.525301
      9          1           0       -0.206161   -0.222017   -1.484775
     10          1           0        1.300287    1.157357    1.534378
     11          1           0        0.203061   -0.234478    1.479395
 ---------------------------------------------------------------------

 SCF Done:  E(RHF) =  -337.896909856     A.U. after    2 cycles

 The electronic state is 1-A.
 Alpha  occ. eigenvalues --  -20.61740 -15.54002 -15.53989 -11.37069 -11.37001
 Alpha  occ. eigenvalues --  -11.30186 -11.30176  -1.54206  -1.26236  -1.26129
 Alpha  occ. eigenvalues --   -1.08317  -1.00226  -0.80219  -0.74860  -0.74578
 Alpha  occ. eigenvalues --   -0.70974  -0.64023  -0.63075  -0.62805  -0.58122
 Alpha  occ. eigenvalues --   -0.53410  -0.52982  -0.52782  -0.51036  -0.50616
 Alpha virt. eigenvalues --    0.02842   0.03589   0.04926   0.05345   0.07004
 Alpha virt. eigenvalues --    0.08122   0.08566   0.10920   0.11369   0.12254
 Alpha virt. eigenvalues --    0.13018   0.13142   0.14241   0.14360   0.14548

 Mulliken charges:
               1
     1  N    0.832910
     2  C   -1.354048
     3  C    0.695856
     4  O   -1.237598
     5  C    0.696573
     6  C   -1.355725
     7  N    0.833588
     8  H    0.075437
     9  H    0.368057
    10  H    0.075990
    11  H    0.368960
 Sum of Mulliken charges =  -0.00000

 Dipole moment (field-independent basis, Debye):
    X=             -0.0094    Y=              3.2195    Z=              0.0065  Tot=              3.2196

 Test job not archived.
 1\1\GINC-SE045\SP\RHF\Aug-CC-pVDZ\C4H4N2O1\OHZDE\09-Apr-2025\0\\#t hf
 aug-cc-pvdz iop(5/13=1,5/36=2,99/5=2) pseudo=read geom=check guess=(re
 ad,tcheck) scf=(maxcycle=1)\\title\\0,1\N,0,2.22173006,-1.0412518,1.42
 227894\C,0,1.72701449,-0.53424035,0.52093092\C,0,1.05245983,0.10934129
 ,-0.6205409\O,0,-0.16554992,-0.51580834,-0.93560807\C,0,-1.15052645,-0
 .41791227,0.06111363\C,0,-1.58731629,0.97331072,0.27514967\N,0,-1.8972
 4247,2.06542039,0.43452146\H,0,1.68462896,0.02363886,-1.5031684\H,0,0.
 91786886,1.17344337,-0.39302975\H,0,-1.99935192,-1.00926077,-0.2791390

 Normal termination of Gaussian 16 at Wed Apr  9 19:21:51 2025.
