 Gaussian 16, Revision C.01,

 ----------------------------------------------------------------------
 #t hf aug-cc-pvdz symm=none int=(grid=ultrafine) guess=(read,tcheck) s
 table=(opt,rrhf)
 ----------------------------------------------------------------------
 -----
 title
 -----
 Symbolic Z-matrix:
 Charge =  0 Multiplicity = 1

 SCF Done:  E(RHF) =  -233.003830394     A.U. after   13 cycles
 Normal termination of Gaussian 16 at Wed Apr  9 15:39:57 2025.
 Gaussian 16:  ES64L-G16RevC.01  3-Jul-2019

 ----------------------------------------------------------------------
 #t hf aug-cc-pvdz iop(5/13=1,5/36=2,99/5=2) pseudo=read geom=check gue
 ss=(read,tcheck) scf=(maxcycle=1)
 ----------------------------------------------------------------------
 -----
 title
 -----
 Structure from the checkpoint file:  "Grambow2020_b97d3_006588_reverse_mol2.chk"
 Charge =  0 Multiplicity = 1

                         Standard orientation:
 ---------------------------------------------------------------------
 Center     Atomic      Atomic             Coordinates (Angstroms)
 Number     Number       Type             X           Y           Z
 ---------------------------------------------------------------------
      1          6           0       -1.915115   -0.002918   -0.788555
      2          6           0        2.215697   -0.001912   -0.544616
      3          6           0        1.035233    0.001400    0.082888
      4          6           0        0.056045   -1.092061    0.477638
      5          6           0       -1.067520    0.001333    0.481358
      6          6           0        0.054911    1.095726    0.472422
      7          1           0       -2.558214   -0.894035   -0.832950
      8          1           0       -1.268476   -0.006404   -1.679323
      9          1           0        2.722313    0.926712   -0.814638
     10          1           0        2.717340   -0.935001   -0.808742
     11          1           0        0.254779   -1.491161    1.484124
     12          1           0       -0.064749   -1.934457   -0.218542
     13          1           0       -1.707085    0.003075    1.374308
     14          1           0       -2.558402    0.887626   -0.840093
     15          1           0        0.253762    1.499802    1.476915
     16          1           0       -0.066771    1.934432   -0.227872
 ---------------------------------------------------------------------

 SCF Done:  E(RHF) =  -233.258958304     A.U. after    2 cycles

 The electronic state is 1-A.
 Alpha  occ. eigenvalues --  -11.24336 -11.23972 -11.23296 -11.23277 -11.22623
 Alpha  occ. eigenvalues --  -11.22231  -1.14544  -1.00643  -0.93774  -0.90807
 Alpha  occ. eigenvalues --   -0.78621  -0.71065  -0.65472  -0.63413  -0.60793
 Alpha  occ. eigenvalues --   -0.57988  -0.54872  -0.53619  -0.49386  -0.46551
 Alpha  occ. eigenvalues --   -0.45991  -0.44675  -0.35263
 Alpha virt. eigenvalues --    0.03528   0.03977   0.03991   0.04062   0.06002
 Alpha virt. eigenvalues --    0.06019   0.06610   0.06651   0.07200   0.09115
 Alpha virt. eigenvalues --    0.11991   0.12114   0.12950   0.13631   0.14252

 Mulliken charges:
               1
     1  C   -0.325214
     2  C    0.041163
     3  C    0.585474
     4  C   -0.377394
     5  C   -0.195567
     6  C   -0.376118
     7  H    0.162446
     8  H    0.215717
     9  H   -0.106004
    10  H   -0.105433
    11  H    0.148165
    12  H    0.026586
    13  H   -0.031424
    14  H    0.161633
    15  H    0.148976
    16  H    0.026994
 Sum of Mulliken charges =  -0.00000

 Dipole moment (field-independent basis, Debye):
    X=             -0.6613    Y=              0.0012    Z=              0.2626  Tot=              0.7115

 Test job not archived.
 1\1\GINC-SE162\SP\RHF\Aug-CC-pVDZ\C6H10\OHZDE\09-Apr-2025\0\\#t hf aug
 -cc-pvdz iop(5/13=1,5/36=2,99/5=2) pseudo=read geom=check guess=(read,
 tcheck) scf=(maxcycle=1)\\title\\0,1\C,0,0.46798285,0.40582738,1.84250
 877\C,0,-1.75668459,-0.1479341,-1.60238899\C,0,-0.56478126,-0.17099936
 ,-0.99732552\C,0,0.16134956,-1.20579316,-0.15338835\C,0,0.98423865,-0.
 02718487,0.47243843\C,0,0.48181973,0.88926719,-0.69603015\H,0,0.677280
 36,-0.35884031,2.60481655\H,0,-0.62111197,0.56182366,1.8084408\H,0,-2.
 13106278,0.7521373,-2.09394429\H,0,-2.39912998,-1.03035094,-1.62820991

 Normal termination of Gaussian 16 at Wed Apr  9 15:40:02 2025.
