 Gaussian 16, Revision C.01,

 ----------------------------------------------------------------------
 #t hf aug-cc-pvdz symm=none int=(grid=ultrafine) guess=(read,tcheck) s
 table=(opt,rrhf)
 ----------------------------------------------------------------------
 -----
 title
 -----
 Symbolic Z-matrix:
 Charge =  0 Multiplicity = 1

 SCF Done:  E(RHF) =  -302.264588811     A.U. after   16 cycles
 Normal termination of Gaussian 16 at Wed Apr  9 15:43:34 2025.
 Gaussian 16:  ES64L-G16RevC.01  3-Jul-2019

 ----------------------------------------------------------------------
 #t hf aug-cc-pvdz iop(5/13=1,5/36=2,99/5=2) pseudo=read geom=check gue
 ss=(read,tcheck) scf=(maxcycle=1)
 ----------------------------------------------------------------------
 -----
 title
 -----
 Structure from the checkpoint file:  "Grambow2020_b97d3_006707_reverse_mol2.chk"
 Charge =  0 Multiplicity = 1

                         Standard orientation:
 ---------------------------------------------------------------------
 Center     Atomic      Atomic             Coordinates (Angstroms)
 Number     Number       Type             X           Y           Z
 ---------------------------------------------------------------------
      1          8           0        3.184550   -0.187032   -0.001628
      2          6           0        2.004887   -0.033559   -0.001395
      3          6           0        0.724715    0.130072    0.005787
      4          6           0       -0.549790    0.305715   -0.000129
      5          6           0       -1.866783    0.487538   -0.000571
      6          8           0       -2.832883   -0.495218   -0.001330
      7          1           0       -2.391027   -1.366846    0.004498
      8          1           0       -2.300484    1.486250   -0.002990
 ---------------------------------------------------------------------

 SCF Done:  E(RHF) =  -302.556351578     A.U. after    2 cycles

 The electronic state is 1-A.
 Alpha  occ. eigenvalues --  -20.61866 -20.61130 -11.41150 -11.34815 -11.32772
 Alpha  occ. eigenvalues --  -11.28082  -1.53722  -1.50947  -1.11532  -1.02910
 Alpha  occ. eigenvalues --   -0.90455  -0.79816  -0.73032  -0.67878  -0.63944
 Alpha  occ. eigenvalues --   -0.60957  -0.60236  -0.59587  -0.48169  -0.43493
 Alpha  occ. eigenvalues --   -0.31961
 Alpha virt. eigenvalues --    0.01469   0.03456   0.03886   0.06292   0.08619
 Alpha virt. eigenvalues --    0.08963   0.09533   0.09932   0.11415   0.11984
 Alpha virt. eigenvalues --    0.12840   0.15001   0.16030   0.17595   0.19496

 Mulliken charges:
               1
     1  O   -1.016236
     2  C   -0.366508
     3  C    1.375310
     4  C    0.030870
     5  C    0.837910
     6  O   -1.235821
     7  H    0.369843
     8  H    0.004632
 Sum of Mulliken charges =  -0.00000

 Dipole moment (field-independent basis, Debye):
    X=             -1.9194    Y=             -0.2358    Z=             -0.0010  Tot=              1.9338

 Test job not archived.
 1\1\GINC-SE087\SP\RHF\Aug-CC-pVDZ\C4H2O2\OHZDE\09-Apr-2025\0\\#t hf au
 g-cc-pvdz iop(5/13=1,5/36=2,99/5=2) pseudo=read geom=check guess=(read
 ,tcheck) scf=(maxcycle=1)\\title\\0,1\O,0,-3.54907324,0.59272103,0.371
 47529\C,0,-2.37284772,0.47846551,0.23510628\C,0,-1.09784799,0.35168553
 ,0.08028753\C,0,0.1758413,0.23777868,-0.06109647\C,0,1.49141649,0.1204
 3514,-0.21283426\O,0,2.20757544,-1.05347521,-0.30343638\H,0,1.58473933
 ,-1.80412916,-0.24344392\H,0,2.13431339,0.99680148,-0.27760006\\Versio
 n=ES64L-G16RevC.01\State=1-A\HF=-302.5563516\RMSD=3.013e-02\Dipole=0.7

 Normal termination of Gaussian 16 at Wed Apr  9 15:43:37 2025.
