 Gaussian 16, Revision C.01,

 ----------------------------------------------------------------------
 #t hf aug-cc-pvdz symm=none int=(grid=ultrafine) guess=(read,tcheck) s
 table=(opt,rrhf)
 ----------------------------------------------------------------------
 -----
 title
 -----
 Symbolic Z-matrix:
 Charge =  0 Multiplicity = 1

 SCF Done:  E(RHF) =  -307.909318110     A.U. after   13 cycles

 1\1\GINC-SE029\Stability\RHF\Aug-CC-pVDZ\C6H10O1\OHZDE\09-Apr-2025\0\\
 #t hf aug-cc-pvdz symm=none int=(grid=ultrafine) guess=(read,tcheck) s
 table=(opt,rrhf)\\title\\0,1\C,0,2.0434661,-0.07251394,0.05838036\C,0,
 0.62103887,-0.45662654,-0.32000195\C,0,-0.19041609,-1.11295128,0.77213
 234\C,0,-1.46448271,-0.7434214,0.72692367\C,0,-1.71054505,0.22411211,-
 0.40256963\C,0,-0.29325912,0.72353874,-0.73284898\O,0,0.00595836,1.913
 7868,-0.02865756\H,0,2.0628525,0.58171962,0.93080721\H,0,2.53773131,0.
 45455069,-0.75936284\H,0,2.63105486,-0.96283648,0.29189909\H,0,0.22983

 Normal termination of Gaussian 16 at Wed Apr  9 18:35:39 2025.
 Gaussian 16:  ES64L-G16RevC.01  3-Jul-2019

 ----------------------------------------------------------------------
 #t hf aug-cc-pvdz iop(5/13=1,5/36=2,99/5=2) pseudo=read geom=check gue
 ss=(read,tcheck) scf=(maxcycle=1)
 ----------------------------------------------------------------------
 -----
 title
 -----
 Structure from the checkpoint file:  "Grambow2020_wb97xd3_007739_reverse_mol2.chk"
 Charge =  0 Multiplicity = 1

                         Standard orientation:
 ---------------------------------------------------------------------
 Center     Atomic      Atomic             Coordinates (Angstroms)
 Number     Number       Type             X           Y           Z
 ---------------------------------------------------------------------
      1          6           0       -2.118770   -0.317419   -0.021779
      2          6           0       -0.694822   -0.457934    0.494597
      3          6           0        0.187600   -1.412226   -0.275232
      4          6           0        1.439920   -0.977466   -0.342461
      5          6           0        1.596756    0.341816    0.369805
      6          6           0        0.145778    0.842885    0.473747
      7          8           0       -0.183372    1.684178   -0.615286
      8          1           0       -2.136630   -0.019652   -1.070846
      9          1           0       -2.668088    0.436931    0.543911
     10          1           0       -2.653880   -1.265029    0.068540
     11          1           0       -0.171443   -2.350715   -0.681723
     12          1           0        2.261643   -1.505554   -0.810105
     13          1           0       -0.740052   -0.801974    1.536890
     14          1           0        2.035057    0.191696    1.362925
     15          1           0        2.226585    1.064708   -0.152686
     16          1           0       -0.027926    1.451258    1.362040
     17          1           0        0.002935    1.206975   -1.428730
 ---------------------------------------------------------------------

 SCF Done:  E(RHF) =  -308.236983150     A.U. after    2 cycles

 The electronic state is 1-A.
 Alpha  occ. eigenvalues --  -20.54056 -11.28267 -11.23610 -11.23584 -11.23349
 Alpha  occ. eigenvalues --  -11.23222 -11.22207  -1.44746  -1.14139  -1.01735
 Alpha  occ. eigenvalues --   -0.96301  -0.89175  -0.79332  -0.74081  -0.70312
 Alpha  occ. eigenvalues --   -0.65011  -0.63056  -0.61526  -0.57775  -0.54936
 Alpha  occ. eigenvalues --   -0.53266  -0.51678  -0.51217  -0.48651  -0.47555
 Alpha  occ. eigenvalues --   -0.42295  -0.36088
 Alpha virt. eigenvalues --    0.03426   0.03659   0.03825   0.04565   0.05675
 Alpha virt. eigenvalues --    0.06026   0.06221   0.06404   0.08799   0.09641
 Alpha virt. eigenvalues --    0.11815   0.12255   0.12796   0.14063   0.14597

 Mulliken charges:
               1
     1  C   -0.200379
     2  C   -1.054070
     3  C    0.551297
     4  C    0.216535
     5  C   -0.416049
     6  C    1.173014
     7  O   -1.424701
     8  H    0.225994
     9  H    0.170912
    10  H    0.144942
    11  H   -0.151568
    12  H   -0.100679
    13  H    0.175184
    14  H    0.187691
    15  H    0.113926
    16  H    0.107881
    17  H    0.280070
 Sum of Mulliken charges =  -0.00000

 Dipole moment (field-independent basis, Debye):
    X=              0.5637    Y=             -1.4996    Z=              0.2018  Tot=              1.6147

 Test job not archived.
 1\1\GINC-SE029\SP\RHF\Aug-CC-pVDZ\C6H10O1\OHZDE\09-Apr-2025\0\\#t hf a
 ug-cc-pvdz iop(5/13=1,5/36=2,99/5=2) pseudo=read geom=check guess=(rea
 d,tcheck) scf=(maxcycle=1)\\title\\0,1\C,0,2.0434661,-0.07251394,0.058
 38036\C,0,0.62103887,-0.45662654,-0.32000195\C,0,-0.19041609,-1.112951
 28,0.77213234\C,0,-1.46448271,-0.7434214,0.72692367\C,0,-1.71054505,0.
 22411211,-0.40256963\C,0,-0.29325912,0.72353874,-0.73284898\O,0,0.0059
 5836,1.9137868,-0.02865756\H,0,2.0628525,0.58171962,0.93080721\H,0,2.5
 3773131,0.45455069,-0.75936284\H,0,2.63105486,-0.96283648,0.29189909\H

 Normal termination of Gaussian 16 at Wed Apr  9 18:35:45 2025.
