 Gaussian 16, Revision C.01,

 ----------------------------------------------------------------------
 #t hf aug-cc-pvdz symm=none int=(grid=ultrafine) guess=(read,tcheck) s
 table=(opt,rrhf)
 ----------------------------------------------------------------------
 -----
 title
 -----
 Symbolic Z-matrix:
 Charge =  0 Multiplicity = 1

 SCF Done:  E(RHF) =  -307.668267797     A.U. after   17 cycles

 1\1\GINC-SE186\Stability\RHF\Aug-CC-pVDZ\C6H10O1\OHZDE\09-Apr-2025\0\\
 #t hf aug-cc-pvdz symm=none int=(grid=ultrafine) guess=(read,tcheck) s
 table=(opt,rrhf)\\title\\0,1\C,0,1.85616903,0.75965743,-0.85723755\C,0
 ,0.79605403,-0.13865768,-0.30498973\C,0,-0.27375385,-1.38239656,0.9713
 4944\C,0,-1.26429969,-1.12944561,-0.14704128\C,0,-0.7039484,0.21148441
 ,-0.59958252\C,0,-0.66415885,1.11140478,0.61477712\O,0,0.42494974,0.35
 422958,1.18137763\H,0,2.82758115,0.54223861,-0.41046351\H,0,1.94093076
 ,0.56198623,-1.92965553\H,0,1.65913833,1.83589323,-0.72739332\H,0,0.42

 Normal termination of Gaussian 16 at Wed Apr  9 03:34:14 2025.
 Gaussian 16:  ES64L-G16RevC.01  3-Jul-2019

 ----------------------------------------------------------------------
 #t hf aug-cc-pvdz iop(5/13=1,5/36=2,99/5=2) pseudo=read geom=check gue
 ss=(read,tcheck) scf=(maxcycle=1)
 ----------------------------------------------------------------------
 -----
 title
 -----
 Structure from the checkpoint file:  "Grambow2020_wb97xd3_007027_reverse_mol1.chk"
 Charge =  0 Multiplicity = 1

                         Standard orientation:
 ---------------------------------------------------------------------
 Center     Atomic      Atomic             Coordinates (Angstroms)
 Number     Number       Type             X           Y           Z
 ---------------------------------------------------------------------
      1          6           0       -2.143131   -0.522270    0.084341
      2          6           0       -0.654537   -0.596470   -0.035551
      3          6           0        1.264692   -0.647721   -0.832014
      4          6           0        1.529281   -0.505210    0.653128
      5          6           0        0.216283    0.173194    1.017388
      6          6           0        0.085261    1.394557    0.135791
      7          8           0       -0.157632    0.572228   -1.024073
      8          1           0       -2.629460   -0.906848   -0.813491
      9          1           0       -2.446897   -1.162765    0.917306
     10          1           0       -2.538403    0.488413    0.274718
     11          1           0        1.143595   -1.635608   -1.247664
     12          1           0        1.837900    0.011316   -1.485042
     13          1           0        2.438594    0.060827    0.879415
     14          1           0        1.571127   -1.493467    1.115110
     15          1           0       -0.045203    0.232088    2.073276
     16          1           0        0.946996    2.057354    0.008206
     17          1           0       -0.804291    1.994387    0.332247
 ---------------------------------------------------------------------

 SCF Done:  E(RHF) =  -307.993562637     A.U. after    2 cycles

 The electronic state is 1-A.
 Alpha  occ. eigenvalues --  -20.55835 -11.34727 -11.28448 -11.24888 -11.23198
 Alpha  occ. eigenvalues --  -11.21791 -11.19958  -1.45570  -1.10073  -1.00027
 Alpha  occ. eigenvalues --   -0.96579  -0.86261  -0.83337  -0.72362  -0.69848
 Alpha  occ. eigenvalues --   -0.65159  -0.62899  -0.59548  -0.57950  -0.54072
 Alpha  occ. eigenvalues --   -0.53555  -0.52817  -0.50997  -0.47227  -0.44608
 Alpha  occ. eigenvalues --   -0.42532  -0.26114
 Alpha virt. eigenvalues --    0.03137   0.03568   0.03797   0.04363   0.05969
 Alpha virt. eigenvalues --    0.06082   0.06329   0.06596   0.07556   0.09623
 Alpha virt. eigenvalues --    0.09996   0.11989   0.12301   0.13587   0.13936

 Mulliken charges:
               1
     1  C   -0.563394
     2  C   -0.010967
     3  C    0.570249
     4  C    0.072759
     5  C   -0.110172
     6  C    0.610411
     7  O   -1.204372
     8  H    0.156808
     9  H    0.222478
    10  H    0.159432
    11  H    0.055400
    12  H   -0.037535
    13  H    0.076909
    14  H    0.108998
    15  H   -0.116405
    16  H    0.000891
    17  H    0.008511
 Sum of Mulliken charges =  -0.00000

 Dipole moment (field-independent basis, Debye):
    X=              2.6898    Y=              0.8085    Z=              0.8741  Tot=              2.9416

 Test job not archived.
 1\1\GINC-SE186\SP\RHF\Aug-CC-pVDZ\C6H10O1\OHZDE\09-Apr-2025\0\\#t hf a
 ug-cc-pvdz iop(5/13=1,5/36=2,99/5=2) pseudo=read geom=check guess=(rea
 d,tcheck) scf=(maxcycle=1)\\title\\0,1\C,0,1.85616903,0.75965743,-0.85
 723755\C,0,0.79605403,-0.13865768,-0.30498973\C,0,-0.27375385,-1.38239
 656,0.97134944\C,0,-1.26429969,-1.12944561,-0.14704128\C,0,-0.7039484,
 0.21148441,-0.59958252\C,0,-0.66415885,1.11140478,0.61477712\O,0,0.424
 94974,0.35422958,1.18137763\H,0,2.82758115,0.54223861,-0.41046351\H,0,
 1.94093076,0.56198623,-1.92965553\H,0,1.65913833,1.83589323,-0.7273933

 Normal termination of Gaussian 16 at Wed Apr  9 03:34:21 2025.
