 Gaussian 16, Revision C.01,

 ----------------------------------------------------------------------
 #t hf aug-cc-pvdz symm=none int=(grid=ultrafine) guess=(read,tcheck) s
 table=(opt,rrhf)
 ----------------------------------------------------------------------
 -----
 title
 -----
 Symbolic Z-matrix:
 Charge =  0 Multiplicity = 1

 SCF Done:  E(RHF) =  -286.672450862     A.U. after   19 cycles
 Normal termination of Gaussian 16 at Wed Apr  9 18:43:53 2025.
 Gaussian 16:  ES64L-G16RevC.01  3-Jul-2019

 ----------------------------------------------------------------------
 #t hf aug-cc-pvdz iop(5/13=1,5/36=2,99/5=2) pseudo=read geom=check gue
 ss=(read,tcheck) scf=(maxcycle=1)
 ----------------------------------------------------------------------
 -----
 title
 -----
 Structure from the checkpoint file:  "Grambow2020_wb97xd3_008005_reverse_mol1.chk"
 Charge =  0 Multiplicity = 1

                         Standard orientation:
 ---------------------------------------------------------------------
 Center     Atomic      Atomic             Coordinates (Angstroms)
 Number     Number       Type             X           Y           Z
 ---------------------------------------------------------------------
      1          6           0       -2.786468   -0.268525   -0.058005
      2          6           0       -1.586440    0.565563    0.233171
      3          6           0       -0.333745    0.343326    0.031806
      4          6           0        0.912924    1.309141    0.054025
      5          6           0        1.905246    0.293062   -0.308386
      6          6           0        1.636828   -0.948234    0.439781
      7          7           0        0.398982   -0.865992   -0.317102
      8          1           0       -2.637948   -1.121789   -0.737319
      9          1           0       -3.589470    0.341529   -0.479400
     10          1           0       -3.183577   -0.661523    0.882812
     11          1           0        1.057633    1.694812    1.065919
     12          1           0        0.817810    2.130035   -0.651510
     13          1           0        2.529742    0.289852   -1.190736
     14          1           0        1.508177   -0.866356    1.522502
     15          1           0        2.238813   -1.808913    0.160122
     16          1           0       -0.024126   -1.701706   -0.707030
 ---------------------------------------------------------------------

 SCF Done:  E(RHF) =  -286.975466250     A.U. after    2 cycles

 The electronic state is 1-A.
 Alpha  occ. eigenvalues --  -15.56462 -11.35982 -11.31958 -11.24897 -11.22514
 Alpha  occ. eigenvalues --  -11.19378 -11.13826  -1.30317  -1.06955  -1.03214
 Alpha  occ. eigenvalues --   -0.95664  -0.87329  -0.83175  -0.80482  -0.69511
 Alpha  occ. eigenvalues --   -0.67258  -0.63953  -0.60311  -0.56742  -0.56481
 Alpha  occ. eigenvalues --   -0.54359  -0.52279  -0.49440  -0.45552  -0.30257
 Alpha  occ. eigenvalues --   -0.23863
 Alpha virt. eigenvalues --    0.01407   0.02036   0.03375   0.04326   0.04774
 Alpha virt. eigenvalues --    0.05608   0.06082   0.06381   0.07096   0.08558
 Alpha virt. eigenvalues --    0.10356   0.11024   0.12027   0.12495   0.13281

 Mulliken charges:
               1
     1  C   -0.543939
     2  C   -0.681306
     3  C   -0.314451
     4  C   -0.606845
     5  C    0.585193
     6  C    0.047574
     7  N    0.675077
     8  H    0.057764
     9  H    0.169568
    10  H    0.247727
    11  H    0.295785
    12  H    0.112411
    13  H   -0.137077
    14  H    0.049205
    15  H    0.014349
    16  H    0.028965
 Sum of Mulliken charges =  -0.00000

 Dipole moment (field-independent basis, Debye):
    X=              7.0692    Y=             -3.1440    Z=             -1.1857  Tot=              7.8271

 Test job not archived.
 1\1\GINC-SE220\SP\RHF\Aug-CC-pVDZ\C6H9N1\OHZDE\09-Apr-2025\0\\#t hf au
 g-cc-pvdz iop(5/13=1,5/36=2,99/5=2) pseudo=read geom=check guess=(read
 ,tcheck) scf=(maxcycle=1)\\title\\0,1\C,0,2.62800783,0.71896169,0.1926
 6703\C,0,1.6033399,-0.3303837,0.45626586\C,0,0.33920462,-0.35776357,0.
 21051741\C,0,-0.69614856,-1.54751111,0.20571717\C,0,-1.8535467,-0.7468
 5241,-0.203961\C,0,-1.85778649,0.52880821,0.53447747\N,0,-0.60170976,0
 .68305716,-0.17992889\H,0,2.34057443,1.52162805,-0.50353262\H,0,3.5485
 0831,0.27353104,-0.19310635\H,0,2.90790547,1.1891297,1.14023104\H,0,-0

 Normal termination of Gaussian 16 at Wed Apr  9 18:43:59 2025.
