 Gaussian 16, Revision C.01,

 ----------------------------------------------------------------------
 #t hf aug-cc-pvdz symm=none int=(grid=ultrafine) guess=(read,tcheck) s
 table=(opt,rrhf)
 ----------------------------------------------------------------------
 -----
 title
 -----
 Symbolic Z-matrix:
 Charge =  0 Multiplicity = 1

 SCF Done:  E(RHF) =  -358.475476492     A.U. after   15 cycles
 Normal termination of Gaussian 16 at Wed Apr  9 17:44:36 2025.
 Gaussian 16:  ES64L-G16RevC.01  3-Jul-2019

 ----------------------------------------------------------------------
 #t hf aug-cc-pvdz iop(5/13=1,5/36=2,99/5=2) pseudo=read geom=check gue
 ss=(read,tcheck) scf=(maxcycle=1)
 ----------------------------------------------------------------------
 -----
 title
 -----
 Structure from the checkpoint file:  "Grambow2020_wb97xd3_006802_reverse_mol1.chk"
 Charge =  0 Multiplicity = 1

                         Standard orientation:
 ---------------------------------------------------------------------
 Center     Atomic      Atomic             Coordinates (Angstroms)
 Number     Number       Type             X           Y           Z
 ---------------------------------------------------------------------
      1          8           0        2.878276   -0.330450   -0.282349
      2          6           0        1.693359   -0.111559   -0.384783
      3          6           0        0.734319   -0.213133    0.684426
      4          6           0       -0.407003    1.412957    0.051706
      5          7           0       -0.583402    0.133212    0.416006
      6          6           0       -1.651723   -0.699801    0.063844
      7          8           0       -2.644888   -0.285307   -0.452683
      8          1           0        1.232376    0.154979   -1.365043
      9          1           0        1.015299   -0.610639    1.654598
     10          1           0       -0.801632    1.775367   -0.893083
     11          1           0        0.006401    2.097300    0.774469
     12          1           0       -1.449436   -1.754227    0.306112
 ---------------------------------------------------------------------

 SCF Done:  E(RHF) =  -358.832662929     A.U. after    2 cycles

 The electronic state is 1-A.
 Alpha  occ. eigenvalues --  -20.57963 -20.51216 -15.60637 -11.40860 -11.36475
 Alpha  occ. eigenvalues --  -11.33295 -11.30104  -1.52913  -1.45178  -1.35354
 Alpha  occ. eigenvalues --   -1.03880  -1.01603  -0.87490  -0.82171  -0.77045
 Alpha  occ. eigenvalues --   -0.73274  -0.71481  -0.67630  -0.64892  -0.61216
 Alpha  occ. eigenvalues --   -0.59308  -0.53535  -0.49897  -0.48277  -0.40580
 Alpha  occ. eigenvalues --   -0.34032
 Alpha virt. eigenvalues --    0.00379   0.02838   0.03916   0.04315   0.05304
 Alpha virt. eigenvalues --    0.05826   0.07807   0.08363   0.09844   0.10713
 Alpha virt. eigenvalues --    0.12617   0.13526   0.13895   0.14265   0.14998

 Mulliken charges:
               1
     1  O   -1.230332
     2  C    1.143512
     3  C   -0.751813
     4  C   -0.098231
     5  N    0.923146
     6  C    0.886847
     7  O   -0.998919
     8  H    0.085239
     9  H   -0.164697
    10  H    0.002913
    11  H    0.064334
    12  H    0.138002
 Sum of Mulliken charges =  -0.00000

 Dipole moment (field-independent basis, Debye):
    X=             -2.7917    Y=              1.1923    Z=              1.1120  Tot=              3.2329

 Test job not archived.
 1\1\GINC-SE131\SP\RHF\Aug-CC-pVDZ\C4H5N1O2\OHZDE\09-Apr-2025\0\\#t hf
 aug-cc-pvdz iop(5/13=1,5/36=2,99/5=2) pseudo=read geom=check guess=(re
 ad,tcheck) scf=(maxcycle=1)\\title\\0,1\O,0,2.92466981,0.12011866,-0.2
 3660837\C,0,1.72748745,0.01944296,-0.37463752\C,0,0.76313687,0.0425283
 3,0.69437093\C,0,-0.67998113,1.08242931,-0.3933492\N,0,-0.58351349,-0.
 0230459,0.36176527\C,0,-1.41925142,-1.14501411,0.31742192\O,0,-2.45281
 033,-1.15158608,-0.27981769\H,0,1.26829038,-0.14760338,-1.37747891\H,0
 ,1.07694835,0.04463657,1.73346274\H,0,-1.0978292,1.03001341,-1.3945261

 Normal termination of Gaussian 16 at Wed Apr  9 17:44:41 2025.
