 Gaussian 16, Revision C.01,

 ----------------------------------------------------------------------
 #t hf aug-cc-pvdz symm=none int=(grid=ultrafine) guess=(read,tcheck) s
 table=(opt,rrhf)
 ----------------------------------------------------------------------
 -----
 title
 -----
 Symbolic Z-matrix:
 Charge =  0 Multiplicity = 1

 SCF Done:  E(RHF) =  -343.560492376     A.U. after   16 cycles
 Normal termination of Gaussian 16 at Wed Apr  9 18:10:11 2025.
 Gaussian 16:  ES64L-G16RevC.01  3-Jul-2019

 ----------------------------------------------------------------------
 #t hf aug-cc-pvdz iop(5/13=1,5/36=2,99/5=2) pseudo=read geom=check gue
 ss=(read,tcheck) scf=(maxcycle=1)
 ----------------------------------------------------------------------
 -----
 title
 -----
 Structure from the checkpoint file:  "Grambow2020_wb97xd3_007153_reverse_mol1.chk"
 Charge =  0 Multiplicity = 1

                         Standard orientation:
 ---------------------------------------------------------------------
 Center     Atomic      Atomic             Coordinates (Angstroms)
 Number     Number       Type             X           Y           Z
 ---------------------------------------------------------------------
      1          8           0        0.271639    1.489669    0.373333
      2          6           0        0.528964    0.523187   -0.525300
      3          6           0       -0.353543   -1.089559   -0.049798
      4          6           0       -1.781742   -0.593251   -0.090740
      5          8           0       -2.185300    0.537754   -0.033608
      6          6           0        1.470621   -0.844000    0.527470
      7          6           0        1.987424    0.144334   -0.422814
      8          1           0       -0.690098    1.614688    0.340498
      9          1           0       -0.240007   -1.711904   -0.939659
     10          1           0       -0.457307   -1.811889    0.791533
     11          1           0       -2.512221   -1.429082   -0.140734
     12          1           0        1.711126   -1.888896    0.380070
     13          1           0        1.395535   -0.524605    1.558806
     14          1           0        2.585653    0.945293   -0.001314
     15          1           0        2.406258   -0.257253   -1.339913
 ---------------------------------------------------------------------

 SCF Done:  E(RHF) =  -343.911674629     A.U. after    2 cycles

 The electronic state is 1-A.
 Alpha  occ. eigenvalues --  -20.55833 -20.55728 -11.35477 -11.29641 -11.28830
 Alpha  occ. eigenvalues --  -11.28719 -11.23645  -1.50056  -1.47899  -1.12115
 Alpha  occ. eigenvalues --   -1.01811  -0.87848  -0.81176  -0.78306  -0.70586
 Alpha  occ. eigenvalues --   -0.68471  -0.65614  -0.64043  -0.61383  -0.59339
 Alpha  occ. eigenvalues --   -0.55594  -0.54671  -0.51743  -0.51248  -0.46100
 Alpha  occ. eigenvalues --   -0.40894  -0.30386
 Alpha virt. eigenvalues --    0.02877   0.03768   0.03827   0.04911   0.06193
 Alpha virt. eigenvalues --    0.06521   0.07054   0.07165   0.09741   0.11206
 Alpha virt. eigenvalues --    0.11739   0.12026   0.13418   0.14466   0.14792

 Mulliken charges:
               1
     1  O   -1.250878
     2  C    0.716377
     3  C   -0.417431
     4  C    1.196259
     5  O   -1.230470
     6  C   -0.195673
     7  C    0.125338
     8  H    0.440209
     9  H    0.164998
    10  H    0.111886
    11  H    0.089022
    12  H    0.024532
    13  H    0.028863
    14  H    0.123084
    15  H    0.073885
 Sum of Mulliken charges =  -0.00000

 Dipole moment (field-independent basis, Debye):
    X=              1.2027    Y=             -3.4300    Z=              0.6691  Tot=              3.6958

 Test job not archived.
 1\1\GINC-SE340\SP\RHF\Aug-CC-pVDZ\C5H8O2\OHZDE\09-Apr-2025\0\\#t hf au
 g-cc-pvdz iop(5/13=1,5/36=2,99/5=2) pseudo=read geom=check guess=(read
 ,tcheck) scf=(maxcycle=1)\\title\\0,1\O,0,0.06581796,0.19042638,-1.761
 32875\C,0,-0.13871142,0.80032969,-0.58063781\C,0,0.58714549,-0.2271646
 5,0.84177482\C,0,2.03635474,-0.23159374,0.4087356\O,0,2.49474762,-0.01
 451583,-0.68124034\C,0,-1.27527403,-0.46819119,0.40085134\C,0,-1.61843
 244,0.78387421,-0.27848754\H,0,1.03028729,0.13257335,-1.85132105\H,0,0
 .54392555,0.45424141,1.69375736\H,0,0.54902925,-1.24606921,1.2898239\H

 Normal termination of Gaussian 16 at Wed Apr  9 18:10:15 2025.
