 Gaussian 16, Revision C.01,

 ----------------------------------------------------------------------
 #t hf aug-cc-pvdz symm=none int=(grid=ultrafine) guess=(read,tcheck) s
 table=(opt,rrhf)
 ----------------------------------------------------------------------
 -----
 title
 -----
 Symbolic Z-matrix:
 Charge =  0 Multiplicity = 1

 SCF Done:  E(RHF) =  -317.683671272     A.U. after   15 cycles
 Normal termination of Gaussian 16 at Wed Apr  9 18:42:20 2025.
 Gaussian 16:  ES64L-G16RevC.01  3-Jul-2019

 ----------------------------------------------------------------------
 #t hf aug-cc-pvdz iop(5/13=1,5/36=2,99/5=2) pseudo=read geom=check gue
 ss=(read,tcheck) scf=(maxcycle=1)
 ----------------------------------------------------------------------
 -----
 title
 -----
 Structure from the checkpoint file:  "Grambow2020_wb97xd3_007984_reverse_mol2.chk"
 Charge =  0 Multiplicity = 1

                         Standard orientation:
 ---------------------------------------------------------------------
 Center     Atomic      Atomic             Coordinates (Angstroms)
 Number     Number       Type             X           Y           Z
 ---------------------------------------------------------------------
      1          7           0        2.205708    0.032604   -0.035361
      2          6           0        0.845064   -0.054210   -0.008631
      3          7           0        0.148355    1.104293   -0.028529
      4          6           0       -1.219286    1.062464    0.004930
      5          6           0       -1.825550   -0.138708    0.037882
      6          6           0       -1.087963   -1.390550   -0.015667
      7          7           0        0.275762   -1.233602   -0.013966
      8          1           0        2.654003   -0.858699    0.099204
      9          1           0        2.664182    0.823863    0.380234
     10          1           0       -1.717241    2.024753   -0.005766
     11          1           0       -2.907558   -0.173108    0.075410
     12          1           0        0.624249    1.986151   -0.115180
 ---------------------------------------------------------------------

 SCF Done:  E(RHF) =  -318.005069356     A.U. after    2 cycles

 The electronic state is 1-A.
 Alpha  occ. eigenvalues --  -15.58853 -15.54557 -15.47294 -11.38160 -11.31293
 Alpha  occ. eigenvalues --  -11.22845 -11.22512  -1.36226  -1.24812  -1.19338
 Alpha  occ. eigenvalues --   -1.06425  -0.92516  -0.91132  -0.83075  -0.76580
 Alpha  occ. eigenvalues --   -0.74412  -0.69938  -0.66783  -0.64365  -0.59600
 Alpha  occ. eigenvalues --   -0.54132  -0.46874  -0.45127  -0.37485  -0.30603
 Alpha virt. eigenvalues --    0.01177   0.02988   0.04110   0.05686   0.06570
 Alpha virt. eigenvalues --    0.07504   0.09260   0.09795   0.10986   0.11499
 Alpha virt. eigenvalues --    0.11946   0.12083   0.13175   0.14357   0.15416

 Mulliken charges:
               1
     1  N    0.556061
     2  C   -1.591433
     3  N    0.388151
     4  C   -0.036863
     5  C    0.635271
     6  C   -0.810225
     7  N    0.695706
     8  H    0.249358
     9  H    0.099045
    10  H   -0.236019
    11  H   -0.102855
    12  H    0.153802
 Sum of Mulliken charges =  -0.00000

 Dipole moment (field-independent basis, Debye):
    X=              3.1228    Y=              7.5749    Z=              0.8219  Tot=              8.2344

 Test job not archived.
 1\1\GINC-SE135\SP\RHF\Aug-CC-pVDZ\C4H5N3\OHZDE\09-Apr-2025\0\\#t hf au
 g-cc-pvdz iop(5/13=1,5/36=2,99/5=2) pseudo=read geom=check guess=(read
 ,tcheck) scf=(maxcycle=1)\\title\\0,1\N,0,2.1539228,-0.04920015,-0.320
 98552\C,0,0.846674,0.1549174,0.0092287\N,0,-0.04882096,-0.77257156,-0.
 397932\C,0,-1.37249712,-0.60220655,-0.0943401\C,0,-1.7347556,0.4799749
 1,0.61917743\C,0,-0.77078032,1.44365422,1.125223\N,0,0.52176637,1.1952
 3867,0.73535808\H,0,2.7400913,0.73521192,-0.08731897\H,0,2.38503894,-0
 .53497592,-1.16928705\H,0,-2.03884956,-1.37644134,-0.45574039\H,0,-2.7

 Normal termination of Gaussian 16 at Wed Apr  9 18:42:25 2025.
