 Gaussian 16, Revision C.01,

 ----------------------------------------------------------------------
 #t hf aug-cc-pvdz symm=none int=(grid=ultrafine) guess=(read,tcheck) s
 table=(opt,rrhf)
 ----------------------------------------------------------------------
 -----
 title
 -----
 Symbolic Z-matrix:
 Charge =  0 Multiplicity = 1

 SCF Done:  E(RHF) =  -263.793554780     A.U. after   14 cycles
 Normal termination of Gaussian 16 at Wed Apr  9 15:51:42 2025.
 Gaussian 16:  ES64L-G16RevC.01  3-Jul-2019

 ----------------------------------------------------------------------
 #t hf aug-cc-pvdz iop(5/13=1,5/36=2,99/5=2) pseudo=read geom=check gue
 ss=(read,tcheck) scf=(maxcycle=1)
 ----------------------------------------------------------------------
 -----
 title
 -----
 Structure from the checkpoint file:  "Grambow2020_b97d3_006866_reverse_mol2.chk"
 Charge =  0 Multiplicity = 1

                         Standard orientation:
 ---------------------------------------------------------------------
 Center     Atomic      Atomic             Coordinates (Angstroms)
 Number     Number       Type             X           Y           Z
 ---------------------------------------------------------------------
      1          6           0       -1.984644   -0.053436   -0.355572
      2          6           0       -0.679593   -0.034161    0.470925
      3          6           0        0.189517   -1.261915    0.219705
      4          7           0        1.315298   -0.701109   -0.153334
      5          7           0        1.417306    0.773473   -0.217555
      6          6           0        0.238388    1.132148    0.156137
      7          1           0       -1.758967   -0.081318   -1.429149
      8          1           0       -2.567781   -0.946803   -0.103173
      9          1           0       -2.591109    0.838452   -0.148935
     10          1           0       -0.947592   -0.021698    1.542848
     11          1           0        2.172371   -1.179943   -0.421638
     12          1           0       -0.017160    2.188939    0.209106
 ---------------------------------------------------------------------

 SCF Done:  E(RHF) =  -264.060702954     A.U. after    2 cycles

 The electronic state is 1-A.
 Alpha  occ. eigenvalues --  -15.57649 -15.55765 -11.29915 -11.26180 -11.26085
 Alpha  occ. eigenvalues --  -11.25051  -1.34164  -1.15395  -1.07457  -0.93964
 Alpha  occ. eigenvalues --   -0.83420  -0.82403  -0.71081  -0.65012  -0.63840
 Alpha  occ. eigenvalues --   -0.60163  -0.57742  -0.53235  -0.52064  -0.49670
 Alpha  occ. eigenvalues --   -0.43971  -0.37537
 Alpha virt. eigenvalues --    0.03199   0.04070   0.04498   0.04634   0.06164
 Alpha virt. eigenvalues --    0.06796   0.08677   0.09511   0.10211   0.11751
 Alpha virt. eigenvalues --    0.12399   0.13530   0.14431   0.15250   0.15965

 Mulliken charges:
               1
     1  C   -0.105512
     2  C   -0.829892
     3  C   -0.533256
     4  N    0.405769
     5  N    0.271876
     6  C   -0.125511
     7  H    0.254417
     8  H    0.184435
     9  H    0.190675
    10  H    0.264673
    11  H    0.082516
    12  H   -0.060191
 Sum of Mulliken charges =  -0.00000

 Dipole moment (field-independent basis, Debye):
    X=             -1.7557    Y=              1.8003    Z=              0.3961  Tot=              2.5457

 Test job not archived.
 1\1\GINC-SE226\SP\RHF\Aug-CC-pVDZ\C4H6N2\OHZDE\09-Apr-2025\0\\#t hf au
 g-cc-pvdz iop(5/13=1,5/36=2,99/5=2) pseudo=read geom=check guess=(read
 ,tcheck) scf=(maxcycle=1)\\title\\0,1\C,0,-1.5297791,-0.40521163,-0.18
 012896\C,0,-0.11414336,-0.32870038,0.4336689\C,0,0.92897399,-1.0530333
 2,-0.41077871\N,0,1.79546826,-0.09056511,-0.62026923\N,0,1.55342606,1.
 25423346,-0.05294757\C,0,0.43375981,1.08061876,0.55889075\H,0,-1.54096
 82,0.05151289,-1.17790233\H,0,-1.83287082,-1.45418251,-0.2783858\H,0,-
 2.2586499,0.1188671,0.45236829\H,0,-0.14016543,-0.8105842,1.42770446\H

 Normal termination of Gaussian 16 at Wed Apr  9 15:51:47 2025.
