 Gaussian 16, Revision C.01,

 ----------------------------------------------------------------------
 #t hf aug-cc-pvdz symm=none int=(grid=ultrafine) guess=(read,tcheck) s
 table=(opt,rrhf)
 ----------------------------------------------------------------------
 -----
 title
 -----
 Symbolic Z-matrix:
 Charge =  0 Multiplicity = 1

 SCF Done:  E(RHF) =  -306.535796901     A.U. after   17 cycles
 Normal termination of Gaussian 16 at Wed Apr  9 19:16:02 2025.
 Gaussian 16:  ES64L-G16RevC.01  3-Jul-2019

 ----------------------------------------------------------------------
 #t hf aug-cc-pvdz iop(5/13=1,5/36=2,99/5=2) pseudo=read geom=check gue
 ss=(read,tcheck) scf=(maxcycle=1)
 ----------------------------------------------------------------------
 -----
 title
 -----
 Structure from the checkpoint file:  "Grambow2020_wb97xd3_009027_forward_mol1.chk"
 Charge =  0 Multiplicity = 1

                         Standard orientation:
 ---------------------------------------------------------------------
 Center     Atomic      Atomic             Coordinates (Angstroms)
 Number     Number       Type             X           Y           Z
 ---------------------------------------------------------------------
      1          6           0        2.181826   -0.055161    0.367470
      2          6           0        0.780729   -0.085269   -0.139088
      3          8           0        0.131103   -1.217954   -0.043240
      4          6           0       -1.184813   -0.944972   -0.379852
      5          6           0       -1.669869    0.176278    0.478407
      6          6           0       -0.634405    1.204093    0.277858
      7          6           0        0.099984    0.943781   -0.898353
      8          1           0        2.766636   -0.814756   -0.157444
      9          1           0        2.631068    0.918782    0.183020
     10          1           0        2.235136   -0.269093    1.435672
     11          1           0       -1.759188   -1.862737   -0.437360
     12          1           0       -2.594223    0.591050    0.062295
     13          1           0       -1.869476   -0.116108    1.521063
     14          1           0       -0.594377    2.127509    0.849922
     15          1           0        0.694884    1.736487   -1.349897
 ---------------------------------------------------------------------

 SCF Done:  E(RHF) =  -306.854653957     A.U. after    2 cycles

 The electronic state is 1-A.
 Alpha  occ. eigenvalues --  -20.59790 -11.34131 -11.27700 -11.26163 -11.25476
 Alpha  occ. eigenvalues --  -11.25440 -11.23660  -1.54700  -1.14257  -1.06275
 Alpha  occ. eigenvalues --   -0.97135  -0.87446  -0.82164  -0.73223  -0.68607
 Alpha  occ. eigenvalues --   -0.65939  -0.65806  -0.62155  -0.58830  -0.57918
 Alpha  occ. eigenvalues --   -0.56828  -0.53524  -0.49773  -0.48846  -0.35731
 Alpha  occ. eigenvalues --   -0.24751
 Alpha virt. eigenvalues --    0.02982   0.03692   0.03855   0.04544   0.05891
 Alpha virt. eigenvalues --    0.06227   0.06429   0.06728   0.06842   0.10158
 Alpha virt. eigenvalues --    0.11536   0.12144   0.13063   0.13601   0.14128

 Mulliken charges:
               1
     1  C   -0.537989
     2  C    1.225393
     3  O   -1.488008
     4  C    0.582755
     5  C   -0.637595
     6  C    0.322375
     7  C   -0.064876
     8  H    0.227076
     9  H    0.175919
    10  H    0.237397
    11  H   -0.156171
    12  H    0.298772
    13  H    0.099146
    14  H   -0.142658
    15  H   -0.141537
 Sum of Mulliken charges =  -0.00000

 Dipole moment (field-independent basis, Debye):
    X=              1.5129    Y=              1.9203    Z=              1.9471  Tot=              3.1254

 Test job not archived.
 1\1\GINC-SE340\SP\RHF\Aug-CC-pVDZ\C6H8O1\OHZDE\09-Apr-2025\0\\#t hf au
 g-cc-pvdz iop(5/13=1,5/36=2,99/5=2) pseudo=read geom=check guess=(read
 ,tcheck) scf=(maxcycle=1)\\title\\0,1\C,0,2.08058735,0.35446669,-0.253
 97474\C,0,0.63374537,0.4521271,0.08908775\O,0,-0.11714156,1.20006915,-
 0.67963054\C,0,-1.42710398,0.97026358,-0.29149688\C,0,-1.68299042,-0.4
 9995959,-0.33682397\C,0,-0.57505395,-1.04274306,0.467334\C,0,-0.019074
 91,-0.03731605,1.28621432\H,0,2.51359144,1.35795553,-0.26015093\H,0,2.
 60608679,-0.24667327,0.48554331\H,0,2.23837991,-0.08544695,-1.23949125

 Normal termination of Gaussian 16 at Wed Apr  9 19:16:07 2025.
