 Gaussian 16, Revision C.01,

 ----------------------------------------------------------------------
 #t hf aug-cc-pvdz symm=none int=(grid=ultrafine) guess=(read,tcheck) s
 table=(opt,rrhf)
 ----------------------------------------------------------------------
 -----
 title
 -----
 Symbolic Z-matrix:
 Charge =  0 Multiplicity = 1

 SCF Done:  E(RHF) =  -309.099587204     A.U. after   14 cycles

 1\1\GINC-SE393\Stability\RHF\Aug-CC-pVDZ\C6H12O1\OHZDE\09-Apr-2025\0\\
 #t hf aug-cc-pvdz symm=none int=(grid=ultrafine) guess=(read,tcheck) s
 table=(opt,rrhf)\\title\\0,1\C,0,3.62006391,0.14588108,-0.14890351\C,0
 ,-0.32337061,-0.9820066,0.21779559\O,0,0.534997,-1.8105455,0.35930229\
 C,0,-0.09955141,0.51533793,0.06151384\C,0,-1.48813659,1.13557534,0.206
 83993\C,0,-2.43736039,0.05222687,-0.32848432\C,0,-1.81966609,-1.255130
 46,0.16509353\H,0,3.54166106,0.94161961,0.5916526\H,0,3.45016274,0.560
 09293,-1.14248018\H,0,4.61821925,-0.28776512,-0.10653371\H,0,2.8770608

 Normal termination of Gaussian 16 at Wed Apr  9 03:59:03 2025.
 Gaussian 16:  ES64L-G16RevC.01  3-Jul-2019

 ----------------------------------------------------------------------
 #t hf aug-cc-pvdz iop(5/13=1,5/36=2,99/5=2) pseudo=read geom=check gue
 ss=(read,tcheck) scf=(maxcycle=1)
 ----------------------------------------------------------------------
 -----
 title
 -----
 Structure from the checkpoint file:  "Grambow2020_wb97xd3_008676_reverse_mol2.chk"
 Charge =  0 Multiplicity = 1

                         Standard orientation:
 ---------------------------------------------------------------------
 Center     Atomic      Atomic             Coordinates (Angstroms)
 Number     Number       Type             X           Y           Z
 ---------------------------------------------------------------------
      1          6           0        3.785035   -0.388803    0.132307
      2          6           0       -0.171834    0.731538   -0.080520
      3          8           0        0.677618    1.578702   -0.144091
      4          6           0        0.066928   -0.771642   -0.080824
      5          6           0       -1.317461   -1.387460   -0.276317
      6          6           0       -2.270853   -0.374204    0.376062
      7          6           0       -1.669899    0.982948    0.013651
      8          1           0        3.706244   -1.105135   -0.685270
      9          1           0        3.628921   -0.904397    1.079632
     10          1           0        4.778795    0.056790    0.125528
     11          1           0        3.033115    0.390185    0.010691
     12          1           0        0.813549   -1.045118   -0.825451
     13          1           0        0.482198   -1.027544    0.899824
     14          1           0       -1.541129   -1.469819   -1.343793
     15          1           0       -1.405973   -2.385985    0.151391
     16          1           0       -2.263269   -0.506599    1.461812
     17          1           0       -3.302095   -0.490477    0.042865
     18          1           0       -1.884517    1.794357    0.708244
     19          1           0       -1.998282    1.309859   -0.978902
 ---------------------------------------------------------------------

 SCF Done:  E(RHF) =  -309.432385602     A.U. after    2 cycles

 The electronic state is 1-A.
 Alpha  occ. eigenvalues --  -20.53160 -11.33370 -11.24420 -11.24395 -11.24303
 Alpha  occ. eigenvalues --  -11.24224 -11.20673  -1.47080  -1.14006  -0.99547
 Alpha  occ. eigenvalues --   -0.94563  -0.93428  -0.81656  -0.74274  -0.68098
 Alpha  occ. eigenvalues --   -0.67562  -0.60318  -0.60218  -0.57421  -0.56670
 Alpha  occ. eigenvalues --   -0.54029  -0.53934  -0.53639  -0.51656  -0.50385
 Alpha  occ. eigenvalues --   -0.48843  -0.47895  -0.39425
 Alpha virt. eigenvalues --    0.03146   0.03407   0.03686   0.04280   0.05260
 Alpha virt. eigenvalues --    0.06053   0.06422   0.06741   0.06981   0.08471
 Alpha virt. eigenvalues --    0.09279   0.09875   0.11946   0.12196   0.14080

 Mulliken charges:
               1
     1  C   -0.196135
     2  C    1.327551
     3  O   -1.478127
     4  C   -0.305463
     5  C   -0.346543
     6  C   -0.117639
     7  C   -0.403614
     8  H    0.094699
     9  H    0.090122
    10  H    0.041085
    11  H   -0.012414
    12  H    0.125603
    13  H    0.225212
    14  H    0.119176
    15  H    0.155968
    16  H    0.107127
    17  H    0.139382
    18  H    0.170926
    19  H    0.263085
 Sum of Mulliken charges =  -0.00000

 Dipole moment (field-independent basis, Debye):
    X=             -2.5574    Y=             -2.2554    Z=              0.1622  Tot=              3.4137

 Test job not archived.
 1\1\GINC-SE393\SP\RHF\Aug-CC-pVDZ\C6H12O1\OHZDE\09-Apr-2025\0\\#t hf a
 ug-cc-pvdz iop(5/13=1,5/36=2,99/5=2) pseudo=read geom=check guess=(rea
 d,tcheck) scf=(maxcycle=1)\\title\\0,1\C,0,3.62006391,0.14588108,-0.14
 890351\C,0,-0.32337061,-0.9820066,0.21779559\O,0,0.534997,-1.8105455,0
 .35930229\C,0,-0.09955141,0.51533793,0.06151384\C,0,-1.48813659,1.1355
 7534,0.20683993\C,0,-2.43736039,0.05222687,-0.32848432\C,0,-1.81966609
 ,-1.25513046,0.16509353\H,0,3.54166106,0.94161961,0.5916526\H,0,3.4501
 6274,0.56009293,-1.14248018\H,0,4.61821925,-0.28776512,-0.10653371\H,0

 Normal termination of Gaussian 16 at Wed Apr  9 03:59:10 2025.
