 Gaussian 16, Revision C.01,

 ----------------------------------------------------------------------
 #t hf aug-cc-pvdz symm=none int=(grid=ultrafine) guess=(read,tcheck) s
 table=(opt,rrhf)
 ----------------------------------------------------------------------
 -----
 title
 -----
 Symbolic Z-matrix:
 Charge =  0 Multiplicity = 1

 SCF Done:  E(RHF) =  -307.682315475     A.U. after   17 cycles

 1\1\GINC-SE159\Stability\RHF\Aug-CC-pVDZ\C6H10O1\OHZDE\09-Apr-2025\0\\
 #t hf aug-cc-pvdz symm=none int=(grid=ultrafine) guess=(read,tcheck) s
 table=(opt,rrhf)\\title\\0,1\C,0,2.09785378,0.38911627,-0.16120798\C,0
 ,0.91073737,-0.50837477,-0.09909064\C,0,-0.01769278,-0.6587512,1.20700
 389\C,0,-1.24764912,-0.24852646,0.52723986\O,0,-2.22122553,-1.14789878
 ,0.36346554\C,0,-1.11202045,0.9622091,-0.27161316\C,0,-0.00516076,0.24
 728897,-1.07613294\H,0,3.09861606,-0.011322,0.01705139\H,0,1.95523479,
 1.33131161,0.37318558\H,0,1.16719457,0.84760296,-1.31741236\H,0,1.1296

 Normal termination of Gaussian 16 at Wed Apr  9 19:08:14 2025.
 Gaussian 16:  ES64L-G16RevC.01  3-Jul-2019

 ----------------------------------------------------------------------
 #t hf aug-cc-pvdz iop(5/13=1,5/36=2,99/5=2) pseudo=read geom=check gue
 ss=(read,tcheck) scf=(maxcycle=1)
 ----------------------------------------------------------------------
 -----
 title
 -----
 Structure from the checkpoint file:  "Grambow2020_wb97xd3_008610_reverse_mol1.chk"
 Charge =  0 Multiplicity = 1

                         Standard orientation:
 ---------------------------------------------------------------------
 Center     Atomic      Atomic             Coordinates (Angstroms)
 Number     Number       Type             X           Y           Z
 ---------------------------------------------------------------------
      1          6           0        2.394441   -0.062100    0.066422
      2          6           0        1.044069   -0.420383   -0.450031
      3          6           0       -0.055911   -1.209167    0.420798
      4          6           0       -1.070143   -0.159122    0.311737
      5          8           0       -2.185010   -0.412604   -0.378453
      6          6           0       -0.574777    1.180474    0.599026
      7          6           0        0.446672    0.993444   -0.543410
      8          1           0        3.253807   -0.699171   -0.155578
      9          1           0        2.390196    0.232273    1.118551
     10          1           0        1.741927    1.280817   -0.362464
     11          1           0        1.084476   -0.904893   -1.425280
     12          1           0        0.293478   -1.352876    1.440470
     13          1           0       -0.379102   -2.157880   -0.002345
     14          1           0       -2.696790    0.394115   -0.490763
     15          1           0       -1.286234    1.987895    0.428289
     16          1           0       -0.101357    1.295682    1.575661
     17          1           0        0.073577    1.286002   -1.526173
 ---------------------------------------------------------------------

 SCF Done:  E(RHF) =  -308.009045934     A.U. after    2 cycles

 The electronic state is 1-A.
 Alpha  occ. eigenvalues --  -20.64029 -11.38331 -11.27052 -11.24872 -11.23378
 Alpha  occ. eigenvalues --  -11.21491 -11.16870  -1.55964  -1.17082  -1.01354
 Alpha  occ. eigenvalues --   -0.99398  -0.84711  -0.83779  -0.75202  -0.73208
 Alpha  occ. eigenvalues --   -0.69963  -0.65839  -0.61631  -0.59105  -0.56929
 Alpha  occ. eigenvalues --   -0.56380  -0.55472  -0.50897  -0.45944  -0.45391
 Alpha  occ. eigenvalues --   -0.39258  -0.22498
 Alpha virt. eigenvalues --    0.01946   0.03563   0.03864   0.04883   0.05828
 Alpha virt. eigenvalues --    0.05917   0.06403   0.06727   0.07084   0.08425
 Alpha virt. eigenvalues --    0.09702   0.10790   0.12349   0.12815   0.14070

 Mulliken charges:
               1
     1  C   -0.423443
     2  C   -0.050391
     3  C   -0.157711
     4  C    1.700009
     5  O   -1.555064
     6  C   -0.056633
     7  C   -0.512721
     8  H   -0.109863
     9  H    0.003945
    10  H    0.671394
    11  H   -0.033304
    12  H    0.161971
    13  H    0.023043
    14  H    0.343741
    15  H    0.029357
    16  H    0.076462
    17  H   -0.110793
 Sum of Mulliken charges =  -0.00000

 Dipole moment (field-independent basis, Debye):
    X=             -5.5611    Y=              0.2577    Z=              0.7796  Tot=              5.6214

 Test job not archived.
 1\1\GINC-SE159\SP\RHF\Aug-CC-pVDZ\C6H10O1\OHZDE\09-Apr-2025\0\\#t hf a
 ug-cc-pvdz iop(5/13=1,5/36=2,99/5=2) pseudo=read geom=check guess=(rea
 d,tcheck) scf=(maxcycle=1)\\title\\0,1\C,0,2.09785378,0.38911627,-0.16
 120798\C,0,0.91073737,-0.50837477,-0.09909064\C,0,-0.01769278,-0.65875
 12,1.20700389\C,0,-1.24764912,-0.24852646,0.52723986\O,0,-2.22122553,-
 1.14789878,0.36346554\C,0,-1.11202045,0.9622091,-0.27161316\C,0,-0.005
 16076,0.24728897,-1.07613294\H,0,3.09861606,-0.011322,0.01705139\H,0,1
 .95523479,1.33131161,0.37318558\H,0,1.16719457,0.84760296,-1.31741236\

 Normal termination of Gaussian 16 at Wed Apr  9 19:08:20 2025.
