 Gaussian 16, Revision C.01,

 ----------------------------------------------------------------------
 #t hf aug-cc-pvdz symm=none int=(grid=ultrafine) guess=(read,tcheck) s
 table=(opt,rrhf)
 ----------------------------------------------------------------------
 -----
 title
 -----
 Symbolic Z-matrix:
 Charge =  0 Multiplicity = 1

 SCF Done:  E(RHF) =  -321.481927259     A.U. after   15 cycles
 Normal termination of Gaussian 16 at Wed Apr  9 18:53:34 2025.
 Gaussian 16:  ES64L-G16RevC.01  3-Jul-2019

 ----------------------------------------------------------------------
 #t hf aug-cc-pvdz iop(5/13=1,5/36=2,99/5=2) pseudo=read geom=check gue
 ss=(read,tcheck) scf=(maxcycle=1)
 ----------------------------------------------------------------------
 -----
 title
 -----
 Structure from the checkpoint file:  "Grambow2020_wb97xd3_008185_reverse_mol2.chk"
 Charge =  0 Multiplicity = 1

                         Standard orientation:
 ---------------------------------------------------------------------
 Center     Atomic      Atomic             Coordinates (Angstroms)
 Number     Number       Type             X           Y           Z
 ---------------------------------------------------------------------
      1          8           0       -3.166886   -0.854545   -0.012062
      2          6           0        2.439275   -1.640129    0.009361
      3          6           0        1.490747   -0.713796   -0.011841
      4          6           0       -2.383568    0.190132   -0.000919
      5          6           0       -1.618362    1.108828    0.001849
      6          6           0        1.787186    0.687863   -0.003418
      7          7           0        1.993792    1.818025    0.002314
      8          1           0       -4.082338   -0.583071    0.104832
      9          1           0        3.489528   -1.378346    0.033516
     10          1           0        2.181177   -2.691094    0.001892
     11          1           0        0.435726   -0.961776   -0.035601
     12          1           0       -0.937217    1.927087    0.005462
 ---------------------------------------------------------------------

 SCF Done:  E(RHF) =  -321.803863860     A.U. after    2 cycles

 The electronic state is 1-A.
 Alpha  occ. eigenvalues --  -20.63218 -15.51498 -11.31066 -11.29255 -11.28531
 Alpha  occ. eigenvalues --  -11.28476 -11.23685  -1.54877  -1.23978  -1.10132
 Alpha  occ. eigenvalues --   -1.03529  -0.88747  -0.83037  -0.73279  -0.71565
 Alpha  occ. eigenvalues --   -0.67203  -0.67101  -0.62473  -0.61428  -0.57237
 Alpha  occ. eigenvalues --   -0.54500  -0.50654  -0.41337  -0.41137  -0.38940
 Alpha virt. eigenvalues --    0.02620   0.03275   0.04674   0.05736   0.06167
 Alpha virt. eigenvalues --    0.06830   0.10131   0.10274   0.11684   0.11809
 Alpha virt. eigenvalues --    0.12353   0.12596   0.13268   0.13803   0.14958

 Mulliken charges:
               1
     1  O   -1.177544
     2  C    0.106424
     3  C    1.116240
     4  C    0.377627
     5  C    0.560658
     6  C   -1.885388
     7  N    0.834255
     8  H    0.418064
     9  H   -0.014071
    10  H   -0.040275
    11  H   -0.114894
    12  H   -0.181096
 Sum of Mulliken charges =  -0.00000

 Dipole moment (field-independent basis, Debye):
    X=             -2.0609    Y=             -4.2570    Z=              0.1961  Tot=              4.7337

 Test job not archived.
 1\1\GINC-SE097\SP\RHF\Aug-CC-pVDZ\C5H5N1O1\OHZDE\09-Apr-2025\0\\#t hf
 aug-cc-pvdz iop(5/13=1,5/36=2,99/5=2) pseudo=read geom=check guess=(re
 ad,tcheck) scf=(maxcycle=1)\\title\\0,1\O,0,-1.78167181,2.73765924,-0.
 76422692\C,0,-0.40057484,-2.64487045,0.31632489\C,0,0.08998158,-1.4178
 9797,0.20614212\C,0,-0.5411505,2.45063711,-0.47476585\C,0,0.57965432,2
 .12816777,-0.21140535\C,0,1.47311254,-1.12155952,0.43358084\N,0,2.5763
 9503,-0.85345929,0.60929502\H,0,-1.89929984,3.69144746,-0.80743133\H,0
 ,0.22606023,-3.48600558,0.58458665\H,0,-1.45084801,-2.83482972,0.13732

 Normal termination of Gaussian 16 at Wed Apr  9 18:53:38 2025.
