 Gaussian 16, Revision C.01,

 ----------------------------------------------------------------------
 #t hf aug-cc-pvdz symm=none int=(grid=ultrafine) guess=(read,tcheck) s
 table=(opt,rrhf)
 ----------------------------------------------------------------------
 -----
 title
 -----
 Symbolic Z-matrix:
 Charge =  0 Multiplicity = 1

 SCF Done:  E(RHF) =  -339.281157287     A.U. after   17 cycles
 Normal termination of Gaussian 16 at Wed Apr  9 15:50:35 2025.
 Gaussian 16:  ES64L-G16RevC.01  3-Jul-2019

 ----------------------------------------------------------------------
 #t hf aug-cc-pvdz iop(5/13=1,5/36=2,99/5=2) pseudo=read geom=check gue
 ss=(read,tcheck) scf=(maxcycle=1)
 ----------------------------------------------------------------------
 -----
 title
 -----
 Structure from the checkpoint file:  "Grambow2020_b97d3_006812_reverse_mol2.chk"
 Charge =  0 Multiplicity = 1

                         Standard orientation:
 ---------------------------------------------------------------------
 Center     Atomic      Atomic             Coordinates (Angstroms)
 Number     Number       Type             X           Y           Z
 ---------------------------------------------------------------------
      1          8           0       -1.840994   -0.778300   -0.330946
      2          6           0       -0.987221   -0.317298    0.544785
      3          6           0        0.047923    0.588249    0.052538
      4          8           0       -0.193042    1.800799   -0.039562
      5          6           0        1.452873    0.016579   -0.090482
      6          8           0        1.688407   -1.174804    0.017346
      7          1           0       -2.538728   -1.285359    0.144821
      8          1           0        2.222313    0.778619   -0.360574
 ---------------------------------------------------------------------

 SCF Done:  E(RHF) =  -339.604524347     A.U. after    2 cycles

 The electronic state is 1-A.
 Alpha  occ. eigenvalues --  -20.66666 -20.60175 -20.58459 -11.38726 -11.37898
 Alpha  occ. eigenvalues --  -11.35741  -1.57544  -1.51656  -1.49154  -1.03661
 Alpha  occ. eigenvalues --   -0.93312  -0.80688  -0.72542  -0.71940  -0.70946
 Alpha  occ. eigenvalues --   -0.66128  -0.61420  -0.59481  -0.53177  -0.51663
 Alpha  occ. eigenvalues --   -0.45682  -0.38767
 Alpha virt. eigenvalues --    0.02139   0.03471   0.04218   0.06929   0.08218
 Alpha virt. eigenvalues --    0.09615   0.10337   0.11096   0.11963   0.12379
 Alpha virt. eigenvalues --    0.13701   0.14311   0.14827   0.16048   0.18935

 Mulliken charges:
               1
     1  O   -1.030063
     2  C    0.534166
     3  C    1.221952
     4  O   -1.272498
     5  C    0.884403
     6  O   -1.045291
     7  H    0.498599
     8  H    0.208733
 Sum of Mulliken charges =  -0.00000

 Dipole moment (field-independent basis, Debye):
    X=             -1.2616    Y=             -1.1384    Z=             -0.5773  Tot=              1.7947

 Test job not archived.
 1\1\GINC-SE057\SP\RHF\Aug-CC-pVDZ\C3H2O3\OHZDE\09-Apr-2025\0\\#t hf au
 g-cc-pvdz iop(5/13=1,5/36=2,99/5=2) pseudo=read geom=check guess=(read
 ,tcheck) scf=(maxcycle=1)\\title\\0,1\O,0,-1.50607403,0.56863773,1.175
 01942\C,0,-0.22234805,0.62797615,0.93652047\C,0,0.21040003,0.39877183,
 -0.43972066\O,0,0.23023271,1.34484034,-1.24058634\C,0,0.8473406,-0.950
 81725,-0.7464168\O,0,0.8403986,-1.87359609,0.0504063\H,0,-1.66711047,0
 .84275469,2.10734041\H,0,1.25990862,-1.0279194,-1.78059981\\Version=ES
 64L-G16RevC.01\State=1-A\HF=-339.6045243\RMSD=1.139e-02\Dipole=-0.5653

 Normal termination of Gaussian 16 at Wed Apr  9 15:50:38 2025.
