 Gaussian 16, Revision C.01,

 ----------------------------------------------------------------------
 #t hf aug-cc-pvdz symm=none int=(grid=ultrafine) guess=(read,tcheck) s
 table=(opt,rrhf)
 ----------------------------------------------------------------------
 -----
 title
 -----
 Symbolic Z-matrix:
 Charge =  0 Multiplicity = 1

 SCF Done:  E(RHF) =  -343.633077712     A.U. after   14 cycles
 Normal termination of Gaussian 16 at Wed Apr  9 18:51:40 2025.
 Gaussian 16:  ES64L-G16RevC.01  3-Jul-2019

 ----------------------------------------------------------------------
 #t hf aug-cc-pvdz iop(5/13=1,5/36=2,99/5=2) pseudo=read geom=check gue
 ss=(read,tcheck) scf=(maxcycle=1)
 ----------------------------------------------------------------------
 -----
 title
 -----
 Structure from the checkpoint file:  "Grambow2020_wb97xd3_008141_reverse_mol2.chk"
 Charge =  0 Multiplicity = 1

                         Standard orientation:
 ---------------------------------------------------------------------
 Center     Atomic      Atomic             Coordinates (Angstroms)
 Number     Number       Type             X           Y           Z
 ---------------------------------------------------------------------
      1          6           0       -0.955974   -1.218441    0.141599
      2          8           0        0.191779   -1.161088   -0.689164
      3          6           0        0.960540   -0.001602   -0.487497
      4          6           0        1.663047    0.000077    0.864075
      5          6           0       -1.623007    0.003315    0.564849
      6          6           0       -0.950380    1.221976    0.141949
      7          8           0        0.192030    1.156314   -0.695912
      8          1           0       -0.754099   -1.772100    1.076063
      9          1           0       -1.703626   -1.834465   -0.372650
     10          1           0        1.700616   -0.003032   -1.287856
     11          1           0        2.276088    0.897002    0.954580
     12          1           0        2.306499   -0.876704    0.938459
     13          1           0        0.965886   -0.021002    1.704062
     14          1           0       -1.692849    1.851710   -0.362070
     15          1           0       -0.734348    1.764837    1.080165
 ---------------------------------------------------------------------

 SCF Done:  E(RHF) =  -343.983127516     A.U. after    2 cycles

 The electronic state is 1-A.
 Alpha  occ. eigenvalues --  -20.55448 -20.55438 -11.34540 -11.30091 -11.30080
 Alpha  occ. eigenvalues --  -11.27771 -11.23862  -1.51808  -1.44403  -1.09003
 Alpha  occ. eigenvalues --   -1.01547  -0.95643  -0.87506  -0.74413  -0.70918
 Alpha  occ. eigenvalues --   -0.70641  -0.63573  -0.63020  -0.62118  -0.57670
 Alpha  occ. eigenvalues --   -0.57215  -0.56939  -0.53512  -0.49118  -0.43445
 Alpha  occ. eigenvalues --   -0.43174  -0.37303
 Alpha virt. eigenvalues --    0.03577   0.04077   0.04086   0.04418   0.05993
 Alpha virt. eigenvalues --    0.06329   0.06566   0.07336   0.07663   0.09236
 Alpha virt. eigenvalues --    0.12027   0.12255   0.13659   0.13949   0.14976

 Mulliken charges:
               1
     1  C    0.478357
     2  O   -1.490094
     3  C    1.940741
     4  C   -0.416454
     5  C   -0.673573
     6  C    0.471324
     7  O   -1.493001
     8  H    0.293778
     9  H    0.083058
    10  H   -0.011175
    11  H    0.182037
    12  H    0.176027
    13  H    0.078957
    14  H    0.079681
    15  H    0.300337
 Sum of Mulliken charges =  -0.00000

 Dipole moment (field-independent basis, Debye):
    X=              1.0418    Y=              0.0074    Z=              0.9011  Tot=              1.3774

 Test job not archived.
 1\1\GINC-SE362\SP\RHF\Aug-CC-pVDZ\C5H8O2\OHZDE\09-Apr-2025\0\\#t hf au
 g-cc-pvdz iop(5/13=1,5/36=2,99/5=2) pseudo=read geom=check guess=(read
 ,tcheck) scf=(maxcycle=1)\\title\\0,1\C,0,-1.2403329,0.8422243,0.61235
 929\O,0,-0.83758875,0.99019676,-0.73919293\C,0,0.28871077,0.21534266,-
 1.06648844\C,0,-0.02027501,-1.27607977,-1.08772062\C,0,-0.25977814,0.5
 5359476,1.64771789\C,0,1.08924686,0.34632298,1.14415557\O,0,1.3760532,
 0.52776539,-0.23288653\H,0,-2.01170938,0.05915138,0.72321645\H,0,-1.75
 786516,1.76418074,0.9040403\H,0,0.58624801,0.54458662,-2.06215868\H,0,

 Normal termination of Gaussian 16 at Wed Apr  9 18:51:44 2025.
