 Gaussian 16, Revision C.01,

 ----------------------------------------------------------------------
 #t hf aug-cc-pvdz symm=none int=(grid=ultrafine) guess=(read,tcheck) s
 table=(opt,rrhf)
 ----------------------------------------------------------------------
 -----
 title
 -----
 Symbolic Z-matrix:
 Charge =  0 Multiplicity = 1

 SCF Done:  E(RHF) =  -380.621302124     A.U. after   15 cycles
 Normal termination of Gaussian 16 at Wed Apr  9 18:23:21 2025.
 Gaussian 16:  ES64L-G16RevC.01  3-Jul-2019

 ----------------------------------------------------------------------
 #t hf aug-cc-pvdz iop(5/13=1,5/36=2,99/5=2) pseudo=read geom=check gue
 ss=(read,tcheck) scf=(maxcycle=1)
 ----------------------------------------------------------------------
 -----
 title
 -----
 Structure from the checkpoint file:  "Grambow2020_wb97xd3_007508_forward_mol1.chk"
 Charge =  0 Multiplicity = 1

                         Standard orientation:
 ---------------------------------------------------------------------
 Center     Atomic      Atomic             Coordinates (Angstroms)
 Number     Number       Type             X           Y           Z
 ---------------------------------------------------------------------
      1          8           0       -2.850933   -0.476108   -0.200996
      2          6           0       -1.643274   -0.029809   -0.065418
      3          6           0        0.398455    1.786238   -0.480932
      4          6           0        0.812739    0.675340    0.211291
      5          8           0        0.272393    0.267432    1.291686
      6          6           0        1.823069   -0.287546   -0.404072
      7          8           0        1.390242   -1.615263   -0.180602
      8          1           0       -2.871385   -1.313744   -0.679975
      9          1           0       -0.831119   -0.587298   -0.503600
     10          1           0       -1.539895    0.893210    0.469129
     11          1           0       -0.217093    2.536333    0.001011
     12          1           0        0.848260    2.045811   -1.430961
     13          1           0        1.919498   -0.137702   -1.480149
     14          1           0        2.806030   -0.116473    0.054565
     15          1           0        1.046154   -1.593971    0.724064
 ---------------------------------------------------------------------

 SCF Done:  E(RHF) =  -381.007506889     A.U. after    2 cycles

 The electronic state is 1-A.
 Alpha  occ. eigenvalues --  -20.69857 -20.53385 -20.48290 -11.43495 -11.27641
 Alpha  occ. eigenvalues --  -11.26875 -11.19845  -1.62407  -1.44563  -1.39313
 Alpha  occ. eigenvalues --   -1.01154  -0.99841  -0.90461  -0.84168  -0.76212
 Alpha  occ. eigenvalues --   -0.73077  -0.67188  -0.66332  -0.64228  -0.61850
 Alpha  occ. eigenvalues --   -0.61148  -0.55768  -0.54728  -0.50682  -0.46262
 Alpha  occ. eigenvalues --   -0.43753  -0.38451  -0.29718
 Alpha virt. eigenvalues --    0.01133   0.03432   0.04526   0.04901   0.05638
 Alpha virt. eigenvalues --    0.06396   0.06757   0.07592   0.08503   0.10052
 Alpha virt. eigenvalues --    0.11492   0.12850   0.14206   0.14657   0.15228

 Mulliken charges:
               1
     1  O   -1.108667
     2  C    0.963064
     3  C    0.117379
     4  C    1.043684
     5  O   -1.546690
     6  C    0.613111
     7  O   -1.165765
     8  H    0.356391
     9  H    0.194167
    10  H    0.257978
    11  H   -0.127675
    12  H   -0.160143
    13  H    0.031111
    14  H    0.141421
    15  H    0.390633
 Sum of Mulliken charges =  -0.00000

 Dipole moment (field-independent basis, Debye):
    X=             -4.8604    Y=             -1.6439    Z=             -2.5150  Tot=              5.7142

 Test job not archived.
 1\1\GINC-SE173\SP\RHF\Aug-CC-pVDZ\C4H8O3\OHZDE\09-Apr-2025\0\\#t hf au
 g-cc-pvdz iop(5/13=1,5/36=2,99/5=2) pseudo=read geom=check guess=(read
 ,tcheck) scf=(maxcycle=1)\\title\\0,1\O,0,-1.74699168,1.79543758,-1.33
 242928\C,0,-1.11559239,0.85323933,-0.70824782\C,0,-0.87362582,-1.15234
 747,1.17812626\C,0,0.2983588,-0.91920822,0.50211169\O,0,0.40724169,-0.
 95709381,-0.76766168\C,0,1.51737959,-0.36752786,1.23438738\O,0,2.10034
 243,0.65698732,0.45295816\H,0,-1.33398961,2.65651136,-1.19295356\H,0,-
 0.26155293,1.1124038,-0.10339867\H,0,-1.50982486,-0.13615679,-0.826848

 Normal termination of Gaussian 16 at Wed Apr  9 18:23:26 2025.
