 Gaussian 16, Revision C.01,

 ----------------------------------------------------------------------
 #t hf aug-cc-pvdz symm=none int=(grid=ultrafine) guess=(read,tcheck) s
 table=(opt,rrhf)
 ----------------------------------------------------------------------
 -----
 title
 -----
 Symbolic Z-matrix:
 Charge =  0 Multiplicity = 1

 SCF Done:  E(RHF) =  -346.088315080     A.U. after   15 cycles

 1\1\GINC-SE219\Stability\RHF\Aug-CC-pVDZ\C5H12O2\OHZDE\09-Apr-2025\0\\
 #t hf aug-cc-pvdz symm=none int=(grid=ultrafine) guess=(read,tcheck) s
 table=(opt,rrhf)\\title\\0,1\C,0,2.55854463,0.1279901,0.87458352\C,0,1
 .20964407,0.62435828,1.37378058\C,0,0.0586692,0.13761804,0.49345942\O,
 0,-0.00580257,-1.25860355,0.46073618\C,0,-1.25138527,0.71306178,0.9668
 8967\C,0,-1.90180979,-0.60803611,-2.49911851\O,0,-2.18636358,0.0186269
 6,1.26534483\H,0,2.57338771,-0.96122319,0.83339482\H,0,2.76918437,0.50
 624972,-0.12862739\H,0,3.36298853,0.45645607,1.53399413\H,0,1.0323665,

 Normal termination of Gaussian 16 at Wed Apr  9 18:48:01 2025.
 Gaussian 16:  ES64L-G16RevC.01  3-Jul-2019

 ----------------------------------------------------------------------
 #t hf aug-cc-pvdz iop(5/13=1,5/36=2,99/5=2) pseudo=read geom=check gue
 ss=(read,tcheck) scf=(maxcycle=1)
 ----------------------------------------------------------------------
 -----
 title
 -----
 Structure from the checkpoint file:  "Grambow2020_wb97xd3_008068_reverse_mol2.chk"
 Charge =  0 Multiplicity = 1

                         Standard orientation:
 ---------------------------------------------------------------------
 Center     Atomic      Atomic             Coordinates (Angstroms)
 Number     Number       Type             X           Y           Z
 ---------------------------------------------------------------------
      1          6           0        2.624196   -1.057253   -0.089163
      2          6           0        1.849929    0.223745   -0.362417
      3          6           0        0.348183    0.043555   -0.141248
      4          8           0        0.066042   -0.331960    1.175584
      5          6           0       -0.395806    1.304561   -0.498820
      6          6           0       -3.001255   -1.408048   -0.311877
      7          8           0       -1.115089    1.868229    0.282468
      8          1           0        2.449655   -1.398826    0.931212
      9          1           0        2.315719   -1.854940   -0.769176
     10          1           0        3.695796   -0.900040   -0.218774
     11          1           0        2.199332    1.023548    0.297386
     12          1           0        2.018392    0.555821   -1.392309
     13          1           0       -0.016349   -0.731288   -0.837363
     14          1           0       -0.564321    0.316416    1.517829
     15          1           0       -0.245442    1.691885   -1.524414
     16          1           0       -2.160813   -1.636940    0.342540
     17          1           0       -3.877147   -1.969647    0.009090
     18          1           0       -2.755806   -1.683921   -1.337196
     19          1           0       -3.218122   -0.341582   -0.262086
 ---------------------------------------------------------------------

 SCF Done:  E(RHF) =  -346.454277867     A.U. after    2 cycles

 The electronic state is 1-A.
 Alpha  occ. eigenvalues --  -20.56756 -20.55135 -11.35492 -11.30494 -11.24842
 Alpha  occ. eigenvalues --  -11.23060 -11.21617  -1.50882  -1.45775  -1.08347
 Alpha  occ. eigenvalues --   -0.97863  -0.94416  -0.85097  -0.80579  -0.74012
 Alpha  occ. eigenvalues --   -0.69833  -0.65839  -0.62237  -0.59560  -0.56012
 Alpha  occ. eigenvalues --   -0.55045  -0.54924  -0.54781  -0.54008  -0.52595
 Alpha  occ. eigenvalues --   -0.52445  -0.50345  -0.44497  -0.43482
 Alpha virt. eigenvalues --    0.03011   0.03653   0.03893   0.04444   0.05668
 Alpha virt. eigenvalues --    0.06105   0.06351   0.07284   0.07656   0.08967
 Alpha virt. eigenvalues --    0.09137   0.09430   0.11148   0.12402   0.13564

 Mulliken charges:
               1
     1  C   -0.364304
     2  C   -0.301522
     3  C    0.604493
     4  O   -1.379594
     5  C    1.125855
     6  C   -0.269411
     7  O   -1.144432
     8  H    0.204653
     9  H    0.164857
    10  H    0.130467
    11  H    0.155639
    12  H    0.164952
    13  H    0.250584
    14  H    0.319716
    15  H    0.082369
    16  H    0.044650
    17  H    0.021027
    18  H    0.102069
    19  H    0.087934
 Sum of Mulliken charges =  -0.00000

 Dipole moment (field-independent basis, Debye):
    X=              1.3715    Y=             -0.1991    Z=             -2.2195  Tot=              2.6166

 Test job not archived.
 1\1\GINC-SE219\SP\RHF\Aug-CC-pVDZ\C5H12O2\OHZDE\09-Apr-2025\0\\#t hf a
 ug-cc-pvdz iop(5/13=1,5/36=2,99/5=2) pseudo=read geom=check guess=(rea
 d,tcheck) scf=(maxcycle=1)\\title\\0,1\C,0,2.55854463,0.1279901,0.8745
 8352\C,0,1.20964407,0.62435828,1.37378058\C,0,0.0586692,0.13761804,0.4
 9345942\O,0,-0.00580257,-1.25860355,0.46073618\C,0,-1.25138527,0.71306
 178,0.96688967\C,0,-1.90180979,-0.60803611,-2.49911851\O,0,-2.18636358
 ,0.01862696,1.26534483\H,0,2.57338771,-0.96122319,0.83339482\H,0,2.769
 18437,0.50624972,-0.12862739\H,0,3.36298853,0.45645607,1.53399413\H,0,

 Normal termination of Gaussian 16 at Wed Apr  9 18:48:09 2025.
