 Gaussian 16, Revision C.01,

 ----------------------------------------------------------------------
 #t hf aug-cc-pvdz symm=none int=(grid=ultrafine) guess=(read,tcheck) s
 table=(opt,rrhf)
 ----------------------------------------------------------------------
 -----
 title
 -----
 Symbolic Z-matrix:
 Charge =  0 Multiplicity = 1

 SCF Done:  E(RHF) =  -317.617141015     A.U. after   16 cycles
 Normal termination of Gaussian 16 at Wed Apr  9 18:42:20 2025.
 Gaussian 16:  ES64L-G16RevC.01  3-Jul-2019

 ----------------------------------------------------------------------
 #t hf aug-cc-pvdz iop(5/13=1,5/36=2,99/5=2) pseudo=read geom=check gue
 ss=(read,tcheck) scf=(maxcycle=1)
 ----------------------------------------------------------------------
 -----
 title
 -----
 Structure from the checkpoint file:  "Grambow2020_wb97xd3_007983_reverse_mol1.chk"
 Charge =  0 Multiplicity = 1

                         Standard orientation:
 ---------------------------------------------------------------------
 Center     Atomic      Atomic             Coordinates (Angstroms)
 Number     Number       Type             X           Y           Z
 ---------------------------------------------------------------------
      1          7           0        2.172529    0.247376   -0.201652
      2          6           0        0.862445   -0.042397   -0.019901
      3          7           0        0.358319   -1.242541   -0.225851
      4          6           0       -0.790665   -0.926185    0.406222
      5          6           0       -1.836985   -0.175924   -0.292788
      6          6           0       -1.244930    1.012500   -0.135946
      7          7           0        0.041737    0.966912    0.435230
      8          1           0        2.470531    1.149481    0.122282
      9          1           0        2.834790   -0.505919   -0.195162
     10          1           0       -0.889144   -1.133335    1.478535
     11          1           0       -2.716812   -0.508893   -0.817333
     12          1           0       -1.646649    1.988482   -0.387932
 ---------------------------------------------------------------------

 SCF Done:  E(RHF) =  -317.941025008     A.U. after    2 cycles

 The electronic state is 1-A.
 Alpha  occ. eigenvalues --  -15.51974 -15.47939 -15.47030 -11.39194 -11.36361
 Alpha  occ. eigenvalues --  -11.29162 -11.23734  -1.35184  -1.22180  -1.17400
 Alpha  occ. eigenvalues --   -1.06039  -0.90338  -0.86110  -0.77386  -0.75799
 Alpha  occ. eigenvalues --   -0.70489  -0.70258  -0.66409  -0.60873  -0.56777
 Alpha  occ. eigenvalues --   -0.55808  -0.48920  -0.42271  -0.40550  -0.34756
 Alpha virt. eigenvalues --    0.03346   0.03797   0.04364   0.04737   0.05902
 Alpha virt. eigenvalues --    0.06558   0.08902   0.10246   0.10608   0.11320
 Alpha virt. eigenvalues --    0.13172   0.13714   0.13827   0.14182   0.14984

 Mulliken charges:
               1
     1  N    0.584242
     2  C   -1.867375
     3  N    0.694313
     4  C   -0.328854
     5  C    0.600680
     6  C   -0.240870
     7  N    0.298141
     8  H    0.197976
     9  H    0.125862
    10  H    0.086477
    11  H   -0.075628
    12  H   -0.074963
 Sum of Mulliken charges =  -0.00000

 Dipole moment (field-independent basis, Debye):
    X=             -0.6067    Y=             -0.5450    Z=              0.7034  Tot=              1.0770

 Test job not archived.
 1\1\GINC-SE041\SP\RHF\Aug-CC-pVDZ\C4H5N3\OHZDE\09-Apr-2025\0\\#t hf au
 g-cc-pvdz iop(5/13=1,5/36=2,99/5=2) pseudo=read geom=check guess=(read
 ,tcheck) scf=(maxcycle=1)\\title\\0,1\N,0,2.17554487,-0.27742852,-0.37
 792355\C,0,0.84679247,-0.290594,-0.11798998\N,0,0.07338919,-1.32271116
 ,-0.38907382\C,0,-0.93543832,-0.83048904,0.35908809\C,0,-1.82421771,0.
 1999236,-0.18369303\C,0,-0.97083379,1.20656552,0.03051969\N,0,0.303394
 71,0.82048225,0.48998993\H,0,2.68807405,0.49834712,0.00025275\H,0,2.64
 969988,-1.15392253,-0.49202118\H,0,-1.0153118,-1.12246217,1.41305082\H

 Normal termination of Gaussian 16 at Wed Apr  9 18:42:25 2025.
