 Gaussian 16, Revision C.01,

 ----------------------------------------------------------------------
 #t hf aug-cc-pvdz symm=none int=(grid=ultrafine) guess=(read,tcheck) s
 table=(opt,rrhf)
 ----------------------------------------------------------------------
 -----
 title
 -----
 Symbolic Z-matrix:
 Charge =  0 Multiplicity = 1

 SCF Done:  E(RHF) =  -286.838337210     A.U. after   15 cycles
 Normal termination of Gaussian 16 at Wed Apr  9 18:13:21 2025.
 Gaussian 16:  ES64L-G16RevC.01  3-Jul-2019

 ----------------------------------------------------------------------
 #t hf aug-cc-pvdz iop(5/13=1,5/36=2,99/5=2) pseudo=read geom=check gue
 ss=(read,tcheck) scf=(maxcycle=1)
 ----------------------------------------------------------------------
 -----
 title
 -----
 Structure from the checkpoint file:  "Grambow2020_wb97xd3_007191_reverse_mol2.chk"
 Charge =  0 Multiplicity = 1

                         Standard orientation:
 ---------------------------------------------------------------------
 Center     Atomic      Atomic             Coordinates (Angstroms)
 Number     Number       Type             X           Y           Z
 ---------------------------------------------------------------------
      1          6           0       -2.442866   -0.530008    0.170496
      2          6           0       -1.053453   -0.019592    0.001095
      3          6           0       -0.588986    1.304864    0.118479
      4          6           0        0.776172    1.397450   -0.113773
      5          6           0        1.175693   -0.010315   -0.430702
      6          6           0        2.292900   -0.560360    0.443456
      7          7           0       -0.052565   -0.819560   -0.313102
      8          1           0       -2.462177   -1.440547    0.771442
      9          1           0       -3.067860    0.221856    0.647795
     10          1           0       -2.874739   -0.761059   -0.805889
     11          1           0       -1.253349    2.119641    0.380746
     12          1           0        1.480681   -0.021256   -1.485031
     13          1           0        2.540035   -1.592398    0.182492
     14          1           0        3.181475    0.055383    0.317411
     15          1           0        2.000765   -0.523974    1.494346
     16          1           0       -0.133628   -1.812960   -0.445906
 ---------------------------------------------------------------------

 SCF Done:  E(RHF) =  -287.143008380     A.U. after    2 cycles

 The electronic state is 1-A.
 Alpha  occ. eigenvalues --  -15.54124 -11.32465 -11.26695 -11.26515 -11.23021
 Alpha  occ. eigenvalues --  -11.19784 -11.19680  -1.30115  -1.06854  -1.04807
 Alpha  occ. eigenvalues --   -0.99654  -0.88039  -0.81666  -0.76407  -0.71427
 Alpha  occ. eigenvalues --   -0.65533  -0.62350  -0.60449  -0.58680  -0.57255
 Alpha  occ. eigenvalues --   -0.56227  -0.53029  -0.48780  -0.47170  -0.35041
 Alpha  occ. eigenvalues --   -0.32139
 Alpha virt. eigenvalues --    0.02255   0.03495   0.04046   0.04521   0.05307
 Alpha virt. eigenvalues --    0.05589   0.05834   0.07240   0.08152   0.08631
 Alpha virt. eigenvalues --    0.10878   0.12106   0.12689   0.12894   0.13261

 Mulliken charges:
               1
     1  C   -0.614178
     2  C   -0.676756
     3  C    0.952879
     4  C   -0.712249
     5  C   -1.003573
     6  C   -0.042682
     7  N    0.955705
     8  H    0.159030
     9  H    0.195580
    10  H    0.275585
    11  H   -0.175189
    12  H    0.144679
    13  H    0.143411
    14  H    0.212334
    15  H    0.205345
    16  H   -0.019922
 Sum of Mulliken charges =  -0.00000

 Dipole moment (field-independent basis, Debye):
    X=             -3.0209    Y=             -5.0565    Z=             -0.2348  Tot=              5.8949

 Test job not archived.
 1\1\GINC-SE174\SP\RHF\Aug-CC-pVDZ\C6H9N1\OHZDE\09-Apr-2025\0\\#t hf au
 g-cc-pvdz iop(5/13=1,5/36=2,99/5=2) pseudo=read geom=check guess=(read
 ,tcheck) scf=(maxcycle=1)\\title\\0,1\C,0,-2.403631,-0.3951998,0.12508
 467\C,0,-1.02137822,0.15001088,0.01641148\C,0,-0.5505327,1.42022325,0.
 40184372\C,0,0.8043152,1.57124733,0.14156027\C,0,1.18860096,0.26961537
 ,-0.49085018\C,0,2.33923023,-0.4498772,0.1970719\N,0,-0.03517103,-0.55
 471776,-0.50435439\H,0,-2.400144,-1.41510771,0.51285705\H,0,-3.0077605
 8,0.22971356,0.77948719\H,0,-2.87479397,-0.4106101,-0.86030555\H,0,-1.

 Normal termination of Gaussian 16 at Wed Apr  9 18:13:27 2025.
