 Gaussian 16, Revision C.01,

 ----------------------------------------------------------------------
 #t hf aug-cc-pvdz symm=none int=(grid=ultrafine) guess=(read,tcheck) s
 table=(opt,rrhf)
 ----------------------------------------------------------------------
 -----
 title
 -----
 Symbolic Z-matrix:
 Charge =  0 Multiplicity = 1

 SCF Done:  E(RHF) =  -338.527542924     A.U. after   19 cycles
 Normal termination of Gaussian 16 at Wed Apr  9 19:01:50 2025.
 Gaussian 16:  ES64L-G16RevC.01  3-Jul-2019

 ----------------------------------------------------------------------
 #t hf aug-cc-pvdz iop(5/13=1,5/36=2,99/5=2) pseudo=read geom=check gue
 ss=(read,tcheck) scf=(maxcycle=1)
 ----------------------------------------------------------------------
 -----
 title
 -----
 Structure from the checkpoint file:  "Grambow2020_wb97xd3_008466_forward_mol1.chk"
 Charge =  0 Multiplicity = 1

                         Standard orientation:
 ---------------------------------------------------------------------
 Center     Atomic      Atomic             Coordinates (Angstroms)
 Number     Number       Type             X           Y           Z
 ---------------------------------------------------------------------
      1          7           0        0.980218   -1.714931    0.228785
      2          6           0        0.479339   -0.527723   -0.092708
      3          6           0       -0.857691   -0.010155   -0.101626
      4          8           0       -1.945401   -0.808872   -0.084977
      5          6           0       -0.737877    1.347816    0.131393
      6          6           0        0.652933    1.638228    0.058539
      7          7           0        1.334538    0.524498   -0.116326
      8          1           0        2.296052   -1.359167   -0.095834
      9          1           0        0.434699   -2.473035   -0.191916
     10          1           0       -2.699160   -0.320469    0.251971
     11          1           0       -1.540762    2.070055    0.186970
     12          1           0        1.097780    2.609757   -0.106189
     13          1           0        2.551079   -0.412122   -0.125979
 ---------------------------------------------------------------------

 SCF Done:  E(RHF) =  -338.870310504     A.U. after    2 cycles

 The electronic state is 1-A.
 Alpha  occ. eigenvalues --  -20.60382 -15.55639 -15.51499 -11.33011 -11.30900
 Alpha  occ. eigenvalues --  -11.29125 -11.24718  -1.52035  -1.31789  -1.21085
 Alpha  occ. eigenvalues --   -1.05527  -0.96795  -0.85874  -0.78495  -0.77949
 Alpha  occ. eigenvalues --   -0.70482  -0.66269  -0.66020  -0.62264  -0.60790
 Alpha  occ. eigenvalues --   -0.56866  -0.55187  -0.52915  -0.46985  -0.36277
 Alpha  occ. eigenvalues --   -0.28603
 Alpha virt. eigenvalues --   -0.01100   0.02766   0.03993   0.04502   0.05626
 Alpha virt. eigenvalues --    0.07813   0.08885   0.09609   0.10560   0.11622
 Alpha virt. eigenvalues --    0.12116   0.12750   0.13643   0.14222   0.14802

 Mulliken charges:
               1
     1  N    0.761842
     2  C   -2.296374
     3  C    1.950135
     4  O   -1.684921
     5  C    0.448667
     6  C   -0.407961
     7  N    0.761412
     8  H    0.048900
     9  H    0.230294
    10  H    0.342208
    11  H   -0.154964
    12  H   -0.137053
    13  H    0.137814
 Sum of Mulliken charges =  -0.00000

 Dipole moment (field-independent basis, Debye):
    X=             -3.7833    Y=              1.7042    Z=             -0.1582  Tot=              4.1524

 Test job not archived.
 1\1\GINC-SE028\SP\RHF\Aug-CC-pVDZ\C4H6N2O1\OHZDE\09-Apr-2025\0\\#t hf
 aug-cc-pvdz iop(5/13=1,5/36=2,99/5=2) pseudo=read geom=check guess=(re
 ad,tcheck) scf=(maxcycle=1)\\title\\0,1\N,0,1.76297007,0.78129295,0.33
 120833\C,0,0.59578348,0.29044748,-0.06934974\C,0,0.00517198,-1.0118636
 4,0.03442808\O,0,0.7305342,-2.11898402,0.29800509\C,0,-1.36155253,-0.8
 039598,0.07413985\C,0,-1.55856647,0.57389808,-0.22029459\N,0,-0.393649
 85,1.17717334,-0.34106861\H,0,1.52715494,2.05249378,-0.20898184\H,0,2.
 5328151,0.15107323,0.08735836\H,0,0.16147029,-2.79711256,0.66750898\H,

 Normal termination of Gaussian 16 at Wed Apr  9 19:01:54 2025.
