 Gaussian 16, Revision C.01,

 ----------------------------------------------------------------------
 #t hf aug-cc-pvdz symm=none int=(grid=ultrafine) guess=(read,tcheck) s
 table=(opt,rrhf)
 ----------------------------------------------------------------------
 -----
 title
 -----
 Symbolic Z-matrix:
 Charge =  0 Multiplicity = 1

 SCF Done:  E(RHF) =  -323.867274093     A.U. after   13 cycles
 Normal termination of Gaussian 16 at Wed Apr  9 18:29:28 2025.
 Gaussian 16:  ES64L-G16RevC.01  3-Jul-2019

 ----------------------------------------------------------------------
 #t hf aug-cc-pvdz iop(5/13=1,5/36=2,99/5=2) pseudo=read geom=check gue
 ss=(read,tcheck) scf=(maxcycle=1)
 ----------------------------------------------------------------------
 -----
 title
 -----
 Structure from the checkpoint file:  "Grambow2020_wb97xd3_007622_reverse_mol2.chk"
 Charge =  0 Multiplicity = 1

                         Standard orientation:
 ---------------------------------------------------------------------
 Center     Atomic      Atomic             Coordinates (Angstroms)
 Number     Number       Type             X           Y           Z
 ---------------------------------------------------------------------
      1          6           0       -1.176908    1.499671   -0.515681
      2          6           0       -1.318170    0.344719    0.434956
      3          7           0       -1.733427   -0.929101   -0.134905
      4          6           0       -0.392477   -0.830641    0.432587
      5          6           0        0.752879   -0.958160   -0.505716
      6          6           0        1.865022   -0.242437   -0.388434
      7          8           0        2.103553    0.699847    0.556431
      8          1           0       -2.158092    1.916406   -0.750644
      9          1           0       -0.564899    2.295433   -0.084411
     10          1           0        1.319501    0.796498    1.105931
     11          1           0       -1.739895    0.598807    1.405045
     12          1           0       -2.354637   -1.427697    0.488689
     13          1           0       -0.249343   -1.305016    1.402852
     14          1           0       -0.712204    1.174826   -1.445814
     15          1           0        0.677360   -1.675047   -1.312496
     16          1           0        2.705695   -0.348192   -1.062536
 ---------------------------------------------------------------------

 SCF Done:  E(RHF) =  -324.210640501     A.U. after    2 cycles

 The electronic state is 1-A.
 Alpha  occ. eigenvalues --  -20.57788 -15.50276 -11.29918 -11.27391 -11.27263
 Alpha  occ. eigenvalues --  -11.22687 -11.22338  -1.49344  -1.27756  -1.04574
 Alpha  occ. eigenvalues --   -0.99969  -0.90406  -0.83658  -0.78262  -0.74565
 Alpha  occ. eigenvalues --   -0.68886  -0.67015  -0.59846  -0.59241  -0.57242
 Alpha  occ. eigenvalues --   -0.56583  -0.54725  -0.51660  -0.50425  -0.48331
 Alpha  occ. eigenvalues --   -0.42563  -0.34302
 Alpha virt. eigenvalues --    0.03070   0.04137   0.04273   0.04360   0.05375
 Alpha virt. eigenvalues --    0.06055   0.06417   0.07365   0.07683   0.12114
 Alpha virt. eigenvalues --    0.12387   0.12838   0.13496   0.13841   0.14619

 Mulliken charges:
               1
     1  C   -0.271333
     2  C   -0.799470
     3  N    0.419245
     4  C   -0.147854
     5  C    0.315970
     6  C    1.207661
     7  O   -1.508844
     8  H    0.151966
     9  H    0.225799
    10  H    0.456515
    11  H   -0.160192
    12  H    0.215041
    13  H   -0.134732
    14  H    0.264648
    15  H   -0.172455
    16  H   -0.061967
 Sum of Mulliken charges =   0.00000

 Dipole moment (field-independent basis, Debye):
    X=             -0.7893    Y=              0.1477    Z=              1.7702  Tot=              1.9438

 Test job not archived.
 1\1\GINC-SE229\SP\RHF\Aug-CC-pVDZ\C5H9N1O1\OHZDE\09-Apr-2025\0\\#t hf
 aug-cc-pvdz iop(5/13=1,5/36=2,99/5=2) pseudo=read geom=check guess=(re
 ad,tcheck) scf=(maxcycle=1)\\title\\0,1\C,0,-1.0872245,0.48821801,1.25
 35041\C,0,-1.1470357,0.32207853,-0.23860928\N,0,-0.60452121,1.40731674
 ,-1.04342761\C,0,0.06904945,0.11329852,-1.08473618\C,0,1.44394144,0.04
 53894,-0.52475729\C,0,1.89417352,-1.00042473,0.15820587\O,0,1.18247828
 ,-2.11378631,0.46066709\H,0,-1.88790785,1.14875736,1.59142557\H,0,-1.2
 0081852,-0.47109409,1.76399662\H,0,0.28309444,-2.00740408,0.13536657\H

 Normal termination of Gaussian 16 at Wed Apr  9 18:29:34 2025.
