 Gaussian 16, Revision C.01,

 ----------------------------------------------------------------------
 #t hf aug-cc-pvdz symm=none int=(grid=ultrafine) guess=(read,tcheck) s
 table=(opt,rrhf)
 ----------------------------------------------------------------------
 -----
 title
 -----
 Symbolic Z-matrix:
 Charge =  0 Multiplicity = 1

 SCF Done:  E(RHF) =  -286.676919029     A.U. after   15 cycles
 Normal termination of Gaussian 16 at Wed Apr  9 19:19:13 2025.
 Gaussian 16:  ES64L-G16RevC.01  3-Jul-2019

 ----------------------------------------------------------------------
 #t hf aug-cc-pvdz iop(5/13=1,5/36=2,99/5=2) pseudo=read geom=check gue
 ss=(read,tcheck) scf=(maxcycle=1)
 ----------------------------------------------------------------------
 -----
 title
 -----
 Structure from the checkpoint file:  "Grambow2020_wb97xd3_009265_forward_mol1.chk"
 Charge =  0 Multiplicity = 1

                         Standard orientation:
 ---------------------------------------------------------------------
 Center     Atomic      Atomic             Coordinates (Angstroms)
 Number     Number       Type             X           Y           Z
 ---------------------------------------------------------------------
      1          6           0        1.954342    0.003562   -0.478115
      2          6           0        0.508437    0.024150   -0.131124
      3          6           0       -0.514308    1.098724   -0.248808
      4          6           0       -1.493697    0.009614   -0.712069
      5          7           0       -0.452905   -1.057087   -0.457187
      6          6           0       -0.161712   -1.055077    0.935056
      7          6           0       -0.258260    1.040781    1.207636
      8          1           0        2.067583   -0.161142   -1.551721
      9          1           0        2.486400   -0.793114    0.044431
     10          1           0        2.418691    0.953885   -0.214546
     11          1           0       -0.295368    1.968916   -0.854452
     12          1           0       -2.413514   -0.114358   -0.139877
     13          1           0       -1.700931    0.028006   -1.780312
     14          1           0        0.663781   -1.713817    1.192365
     15          1           0       -0.961802   -1.048491    1.655066
     16          1           0        0.696685    1.549199    1.413902
 ---------------------------------------------------------------------

 SCF Done:  E(RHF) =  -286.982841853     A.U. after    2 cycles

 The electronic state is 1-A.
 Alpha  occ. eigenvalues --  -15.51863 -11.30842 -11.30492 -11.26922 -11.25000
 Alpha  occ. eigenvalues --  -11.24417 -11.22971  -1.33396  -1.07800  -1.02925
 Alpha  occ. eigenvalues --   -0.96954  -0.86008  -0.77558  -0.73677  -0.70929
 Alpha  occ. eigenvalues --   -0.67274  -0.63254  -0.60085  -0.57973  -0.57538
 Alpha  occ. eigenvalues --   -0.53502  -0.51824  -0.48976  -0.47081  -0.39114
 Alpha  occ. eigenvalues --   -0.30223
 Alpha virt. eigenvalues --    0.03157   0.03873   0.04165   0.04724   0.05387
 Alpha virt. eigenvalues --    0.05430   0.06270   0.07189   0.08883   0.10502
 Alpha virt. eigenvalues --    0.11194   0.12396   0.12606   0.12913   0.14046

 Mulliken charges:
               1
     1  C   -0.614509
     2  C   -1.397478
     3  C    0.626008
     4  C    0.092238
     5  N    0.610742
     6  C    0.386523
     7  C   -0.293170
     8  H    0.312909
     9  H    0.218480
    10  H    0.201789
    11  H   -0.155551
    12  H    0.012105
    13  H   -0.010574
    14  H   -0.040103
    15  H    0.009361
    16  H    0.041229
 Sum of Mulliken charges =  -0.00000

 Dipole moment (field-independent basis, Debye):
    X=              1.4122    Y=              0.2766    Z=             -1.2241  Tot=              1.8892

 Test job not archived.
 1\1\GINC-SE014\SP\RHF\Aug-CC-pVDZ\C6H9N1\OHZDE\09-Apr-2025\0\\#t hf au
 g-cc-pvdz iop(5/13=1,5/36=2,99/5=2) pseudo=read geom=check guess=(read
 ,tcheck) scf=(maxcycle=1)\\title\\0,1\C,0,1.84479799,-0.22527836,-0.06
 814895\C,0,0.37247103,-0.01908872,-0.03343625\C,0,-0.50169297,0.651668
 9,0.96680884\C,0,-1.28609705,1.23004613,-0.22069468\N,0,-0.44416301,0.
 42866039,-1.18764499\C,0,-0.67315692,-0.94992521,-0.92269286\C,0,-0.78
 861858,-0.7839281,1.18333616\H,0,2.33071498,0.68666872,-0.4214437\H,0,
 2.12545703,-1.03961469,-0.73816318\H,0,2.21593244,-0.46086866,0.929327

 Normal termination of Gaussian 16 at Wed Apr  9 19:19:19 2025.
