 Gaussian 16, Revision C.01,

 ----------------------------------------------------------------------
 #t hf aug-cc-pvdz symm=none int=(grid=ultrafine) guess=(read,tcheck) s
 table=(opt,rrhf)
 ----------------------------------------------------------------------
 -----
 title
 -----
 Symbolic Z-matrix:
 Charge =  0 Multiplicity = 1

 SCF Done:  E(RHF) =  -264.992122868     A.U. after   14 cycles
 Normal termination of Gaussian 16 at Wed Apr  9 03:08:54 2025.
 Gaussian 16:  ES64L-G16RevC.01  3-Jul-2019

 ----------------------------------------------------------------------
 #t hf aug-cc-pvdz iop(5/13=1,5/36=2,99/5=2) pseudo=read geom=check gue
 ss=(read,tcheck) scf=(maxcycle=1)
 ----------------------------------------------------------------------
 -----
 title
 -----
 Structure from the checkpoint file:  "Grambow2020_b97d3_006627_reverse_mol2.chk"
 Charge =  0 Multiplicity = 1

                         Standard orientation:
 ---------------------------------------------------------------------
 Center     Atomic      Atomic             Coordinates (Angstroms)
 Number     Number       Type             X           Y           Z
 ---------------------------------------------------------------------
      1          6           0        1.908815   -0.335543   -0.202013
      2          6           0        1.783593    1.145632    0.151990
      3          6           0       -1.607163   -0.153318    0.521470
      4          7           0       -2.490063    0.573605   -0.345566
      5          6           0       -0.423180   -0.640568    0.171198
      6          7           0        0.660384   -1.126324   -0.178975
      7          1           0        2.331750   -0.463044   -1.210010
      8          1           0        2.603484   -0.843544    0.484398
      9          1           0        2.768981    1.630396    0.108075
     10          1           0        1.375658    1.276307    1.163311
     11          1           0        1.112157    1.662699   -0.547703
     12          1           0       -1.921216   -0.225069    1.563253
     13          1           0       -2.069642    0.677016   -1.270819
     14          1           0       -3.365810    0.057055   -0.474592
 ---------------------------------------------------------------------

 SCF Done:  E(RHF) =  -265.271031064     A.U. after    2 cycles

 The electronic state is 1-A.
 Alpha  occ. eigenvalues --  -15.52010 -15.51047 -11.29979 -11.27725 -11.27397
 Alpha  occ. eigenvalues --  -11.23436  -1.24686  -1.19414  -1.03286  -0.97417
 Alpha  occ. eigenvalues --   -0.88189  -0.74539  -0.69752  -0.67342  -0.64531
 Alpha  occ. eigenvalues --   -0.62920  -0.61286  -0.53703  -0.52946  -0.52218
 Alpha  occ. eigenvalues --   -0.48864  -0.45346  -0.33365
 Alpha virt. eigenvalues --    0.03307   0.04067   0.04628   0.04807   0.05497
 Alpha virt. eigenvalues --    0.06101   0.07683   0.08764   0.09498   0.11159
 Alpha virt. eigenvalues --    0.12122   0.13050   0.13814   0.13946   0.14566

 Mulliken charges:
               1
     1  C   -0.492125
     2  C   -0.361627
     3  C    0.043645
     4  N    0.276285
     5  C   -1.292734
     6  N    0.878420
     7  H    0.130558
     8  H    0.131193
     9  H    0.112167
    10  H    0.219573
    11  H    0.199836
    12  H   -0.084502
    13  H    0.042221
    14  H    0.197091
 Sum of Mulliken charges =  -0.00000

 Dipole moment (field-independent basis, Debye):
    X=              0.0781    Y=              0.8128    Z=             -0.2556  Tot=              0.8556

 Test job not archived.
 1\1\GINC-SE393\SP\RHF\Aug-CC-pVDZ\C4H8N2\OHZDE\09-Apr-2025\0\\#t hf au
 g-cc-pvdz iop(5/13=1,5/36=2,99/5=2) pseudo=read geom=check guess=(read
 ,tcheck) scf=(maxcycle=1)\\title\\0,1\C,0,-1.49634624,0.99378874,-0.23
 575253\C,0,-1.7178576,-0.51329289,-0.35623224\C,0,1.71824968,-0.205476
 49,0.83516721\N,0,2.60208289,-0.84496021,-0.09734428\C,0,0.73508001,0.
 62461437,0.50921416\N,0,-0.15162204,1.4296965,0.19569346\H,0,-1.685647
 58,1.49565736,-1.19673218\H,0,-2.20438598,1.43626004,0.48166541\H,0,-2
 .74851095,-0.7204212,-0.67680066\H,0,-1.54423858,-1.01552586,0.6049521

 Normal termination of Gaussian 16 at Wed Apr  9 03:08:58 2025.
