 Gaussian 16, Revision C.01,

 ----------------------------------------------------------------------
 #t hf aug-cc-pvdz symm=none int=(grid=ultrafine) guess=(read,tcheck) s
 table=(opt,rrhf)
 ----------------------------------------------------------------------
 -----
 title
 -----
 Symbolic Z-matrix:
 Charge =  0 Multiplicity = 1

 SCF Done:  E(RHF) =  -323.758608634     A.U. after   14 cycles
 Normal termination of Gaussian 16 at Wed Apr  9 18:48:40 2025.
 Gaussian 16:  ES64L-G16RevC.01  3-Jul-2019

 ----------------------------------------------------------------------
 #t hf aug-cc-pvdz iop(5/13=1,5/36=2,99/5=2) pseudo=read geom=check gue
 ss=(read,tcheck) scf=(maxcycle=1)
 ----------------------------------------------------------------------
 -----
 title
 -----
 Structure from the checkpoint file:  "Grambow2020_wb97xd3_008088_forward_mol1.chk"
 Charge =  0 Multiplicity = 1

                         Standard orientation:
 ---------------------------------------------------------------------
 Center     Atomic      Atomic             Coordinates (Angstroms)
 Number     Number       Type             X           Y           Z
 ---------------------------------------------------------------------
      1          6           0        1.598241    1.284522   -0.130009
      2          6           0        1.240798   -0.104404   -0.001572
      3          7           0        2.337652   -0.766451    0.265684
      4          8           0        0.068948   -0.721574   -0.062120
      5          6           0       -1.041418    0.053233   -0.460750
      6          6           0       -1.887327    0.664539    0.602349
      7          6           0       -2.365726   -0.543716   -0.162332
      8          1           0        2.023165    1.495834   -1.109864
      9          1           0        0.900441    2.049410    0.200438
     10          1           0        2.782847    0.419163    0.297348
     11          1           0        2.414678   -1.757894    0.055682
     12          1           0       -0.878202    0.587961   -1.388175
     13          1           0       -1.574169    0.508472    1.626071
     14          1           0       -2.336597    1.627680    0.400843
     15          1           0       -2.359952   -1.490365    0.361160
     16          1           0       -3.154767   -0.427555   -0.892457
 ---------------------------------------------------------------------

 SCF Done:  E(RHF) =  -324.097512012     A.U. after    2 cycles

 The electronic state is 1-A.
 Alpha  occ. eigenvalues --  -20.60379 -15.49976 -11.36499 -11.31016 -11.24947
 Alpha  occ. eigenvalues --  -11.24831 -11.18866  -1.54378  -1.24251  -1.15988
 Alpha  occ. eigenvalues --   -0.97452  -0.88579  -0.84846  -0.78329  -0.77539
 Alpha  occ. eigenvalues --   -0.69718  -0.67667  -0.63876  -0.61425  -0.57664
 Alpha  occ. eigenvalues --   -0.54827  -0.53645  -0.53146  -0.47068  -0.45406
 Alpha  occ. eigenvalues --   -0.41920  -0.32836
 Alpha virt. eigenvalues --    0.03480   0.03844   0.04081   0.04253   0.06055
 Alpha virt. eigenvalues --    0.06497   0.06680   0.07240   0.08515   0.10357
 Alpha virt. eigenvalues --    0.10899   0.12621   0.13221   0.14197   0.14811

 Mulliken charges:
               1
     1  C   -0.560345
     2  C   -0.170101
     3  N    0.746943
     4  O   -1.747707
     5  C    1.246524
     6  C   -0.000338
     7  C    0.210735
     8  H    0.102132
     9  H    0.022777
    10  H    0.601725
    11  H    0.005855
    12  H   -0.090527
    13  H   -0.074322
    14  H   -0.077686
    15  H   -0.106107
    16  H   -0.109557
 Sum of Mulliken charges =  -0.00000

 Dipole moment (field-independent basis, Debye):
    X=             -2.6028    Y=             -0.5537    Z=             -1.1478  Tot=              2.8980

 Test job not archived.
 1\1\GINC-SE340\SP\RHF\Aug-CC-pVDZ\C5H9N1O1\OHZDE\09-Apr-2025\0\\#t hf
 aug-cc-pvdz iop(5/13=1,5/36=2,99/5=2) pseudo=read geom=check guess=(re
 ad,tcheck) scf=(maxcycle=1)\\title\\0,1\C,0,1.86206756,-0.88317594,-0.
 04815231\C,0,1.33385668,0.45635361,-0.05384419\N,0,2.32388308,1.264951
 84,-0.33462532\O,0,0.10334637,0.9186889,0.11903199\C,0,-0.87794632,-0.
 01185085,0.52314414\C,0,-1.71325277,-0.65190679,-0.53138263\C,0,-2.280
 78083,0.43517983,0.34590749\H,0,2.3729162,-1.10420224,0.88753555\H,0,1
 .2401733,-1.70507799,-0.39296759\H,0,2.90421178,0.14808236,-0.47851439

 Normal termination of Gaussian 16 at Wed Apr  9 18:48:44 2025.
