 Gaussian 16, Revision C.01,

 ----------------------------------------------------------------------
 #t hf aug-cc-pvdz symm=none int=(grid=ultrafine) guess=(read,tcheck) s
 table=(opt,rrhf)
 ----------------------------------------------------------------------
 -----
 title
 -----
 Symbolic Z-matrix:
 Charge =  0 Multiplicity = 1

 SCF Done:  E(RHF) =  -374.444850533     A.U. after   16 cycles
 Normal termination of Gaussian 16 at Wed Apr  9 19:08:37 2025.
 Gaussian 16:  ES64L-G16RevC.01  3-Jul-2019

 ----------------------------------------------------------------------
 #t hf aug-cc-pvdz iop(5/13=1,5/36=2,99/5=2) pseudo=read geom=check gue
 ss=(read,tcheck) scf=(maxcycle=1)
 ----------------------------------------------------------------------
 -----
 title
 -----
 Structure from the checkpoint file:  "Grambow2020_wb97xd3_008645_forward_mol1.chk"
 Charge =  0 Multiplicity = 1

                         Standard orientation:
 ---------------------------------------------------------------------
 Center     Atomic      Atomic             Coordinates (Angstroms)
 Number     Number       Type             X           Y           Z
 ---------------------------------------------------------------------
      1          6           0        1.509488    1.259854    0.215599
      2          7           0        0.525366    0.235007   -0.001794
      3          7           0        1.062844   -1.085435   -0.650996
      4          6           0        0.257170   -1.401031    0.284380
      5          8           0       -1.184485   -0.967679    0.154807
      6          6           0       -0.876890    0.317280   -0.059569
      7          8           0       -1.571087    1.274542   -0.156832
      8          1           0        2.293548    0.875582    0.866613
      9          1           0        1.949575    1.576995   -0.730766
     10          1           0        1.007003    2.098041    0.697419
     11          1           0        0.338368   -2.109146    1.110013
 ---------------------------------------------------------------------

 SCF Done:  E(RHF) =  -374.816395622     A.U. after    2 cycles

 The electronic state is 1-A.
 Alpha  occ. eigenvalues --  -20.61312 -20.55551 -15.60396 -15.53563 -11.44073
 Alpha  occ. eigenvalues --  -11.43876 -11.30233  -1.58783  -1.49630  -1.35515
 Alpha  occ. eigenvalues --   -1.17973  -1.01396  -0.90279  -0.80977  -0.77071
 Alpha  occ. eigenvalues --   -0.75031  -0.69206  -0.66345  -0.65512  -0.61330
 Alpha  occ. eigenvalues --   -0.60754  -0.58422  -0.51748  -0.49373  -0.48190
 Alpha  occ. eigenvalues --   -0.40950
 Alpha virt. eigenvalues --    0.02820   0.04074   0.04779   0.05691   0.05952
 Alpha virt. eigenvalues --    0.08465   0.08947   0.10439   0.10625   0.11697
 Alpha virt. eigenvalues --    0.13902   0.14319   0.14655   0.14898   0.16124

 Mulliken charges:
               1
     1  C   -0.184364
     2  N    0.241904
     3  N    0.247024
     4  C    0.230705
     5  O   -1.235741
     6  C    1.220715
     7  O   -1.009876
     8  H    0.168969
     9  H    0.217813
    10  H    0.105871
    11  H   -0.003020
 Sum of Mulliken charges =  -0.00000

 Dipole moment (field-independent basis, Debye):
    X=              2.4980    Y=             -0.9401    Z=              2.8295  Tot=              3.8897

 Test job not archived.
 1\1\GINC-SE028\SP\RHF\Aug-CC-pVDZ\C3H4N2O2\OHZDE\09-Apr-2025\0\\#t hf
 aug-cc-pvdz iop(5/13=1,5/36=2,99/5=2) pseudo=read geom=check guess=(re
 ad,tcheck) scf=(maxcycle=1)\\title\\0,1\C,0,-1.45903475,-0.25669943,0.
 10250156\N,0,-0.04149228,-0.02671623,0.16371939\N,0,0.82290868,-1.2664
 301,0.57582778\C,0,1.41203609,-0.6721001,-0.38507911\O,0,1.87953324,0.
 74711342,-0.16096113\C,0,0.68239082,1.17474082,0.2581778\O,0,0.2987191
 8,2.26540759,0.52456486\H,0,-1.66591408,-1.04824905,-0.61644518\H,0,-1
 .84365135,-0.54828725,1.08071806\H,0,-1.92649344,0.67139433,-0.2250981

 Normal termination of Gaussian 16 at Wed Apr  9 19:08:41 2025.
