 Gaussian 16, Revision C.01,

 ----------------------------------------------------------------------
 #t hf aug-cc-pvdz symm=none int=(grid=ultrafine) guess=(read,tcheck) s
 table=(opt,rrhf)
 ----------------------------------------------------------------------
 -----
 title
 -----
 Symbolic Z-matrix:
 Charge =  0 Multiplicity = 1

 SCF Done:  E(RHF) =  -279.800167815     A.U. after   15 cycles
 Normal termination of Gaussian 16 at Wed Apr  9 15:56:42 2025.
 Gaussian 16:  ES64L-G16RevC.01  3-Jul-2019

 ----------------------------------------------------------------------
 #t hf aug-cc-pvdz iop(5/13=1,5/36=2,99/5=2) pseudo=read geom=check gue
 ss=(read,tcheck) scf=(maxcycle=1)
 ----------------------------------------------------------------------
 -----
 title
 -----
 Structure from the checkpoint file:  "Grambow2020_b97d3_007051_reverse_mol2.chk"
 Charge =  0 Multiplicity = 1

                         Standard orientation:
 ---------------------------------------------------------------------
 Center     Atomic      Atomic             Coordinates (Angstroms)
 Number     Number       Type             X           Y           Z
 ---------------------------------------------------------------------
      1          7           0       -2.035745   -0.076366   -0.085720
      2          6           0       -0.659741    0.066288    0.020931
      3          6           0        0.150629    1.193325   -0.000966
      4          6           0        1.535212    0.814622    0.012462
      5          7           0        1.470823   -0.528990   -0.068326
      6          7           0        0.129618   -1.068735    0.088594
      7          1           0       -2.525486    0.811814   -0.009735
      8          1           0       -2.445901   -0.770178    0.536994
      9          1           0       -0.223331    2.215091    0.013580
     10          1           0        2.194763   -1.153328    0.274275
     11          1           0       -0.109515   -1.830185   -0.551512
 ---------------------------------------------------------------------

 SCF Done:  E(RHF) =  -280.085961807     A.U. after    2 cycles

 The electronic state is 1-A.
 Alpha  occ. eigenvalues --  -15.56953 -15.55957 -15.54517 -11.34093 -11.23346
 Alpha  occ. eigenvalues --  -11.21034  -1.35028  -1.24083  -1.12591  -1.03841
 Alpha  occ. eigenvalues --   -0.84507  -0.83209  -0.78752  -0.74280  -0.68383
 Alpha  occ. eigenvalues --   -0.65404  -0.61220  -0.57418  -0.54179  -0.44776
 Alpha  occ. eigenvalues --   -0.35465  -0.35284
 Alpha virt. eigenvalues --    0.02192   0.04094   0.04734   0.05601   0.06519
 Alpha virt. eigenvalues --    0.09999   0.10683   0.10934   0.12035   0.12490
 Alpha virt. eigenvalues --    0.12924   0.14210   0.14703   0.15709   0.16552

 Mulliken charges:
               1
     1  N    0.668666
     2  C   -1.835876
     3  C    0.870340
     4  C   -0.778936
     5  N    0.271630
     6  N    0.409706
     7  H    0.181100
     8  H    0.077484
     9  H   -0.110629
    10  H    0.109653
    11  H    0.136862
 Sum of Mulliken charges =  -0.00000

 Dipole moment (field-independent basis, Debye):
    X=             -4.1030    Y=             -2.7312    Z=              0.5402  Tot=              4.9584

 Test job not archived.
 1\1\GINC-SE454\SP\RHF\Aug-CC-pVDZ\C3H5N3\OHZDE\09-Apr-2025\0\\#t hf au
 g-cc-pvdz iop(5/13=1,5/36=2,99/5=2) pseudo=read geom=check guess=(read
 ,tcheck) scf=(maxcycle=1)\\title\\0,1\N,0,-1.8107648,0.06550247,0.1117
 763\C,0,-0.43409351,-0.07652702,0.01320408\C,0,0.38695116,-1.18641023,
 0.15961164\C,0,1.76781499,-0.79975283,0.09343931\N,0,1.69123943,0.5435
 9269,0.01911469\N,0,0.34416512,1.0499281,-0.19015542\H,0,-2.29254383,-
 0.82973947,0.14199476\H,0,-2.23088459,0.67921332,-0.58409292\H,0,0.022
 54483,-2.20624279,0.26550344\H,0,2.40735916,1.13049431,-0.39799718\H,0

 Normal termination of Gaussian 16 at Wed Apr  9 15:56:46 2025.
