 Gaussian 16, Revision C.01,

 ----------------------------------------------------------------------
 #t hf aug-cc-pvdz symm=none int=(grid=ultrafine) guess=(read,tcheck) s
 table=(opt,rrhf)
 ----------------------------------------------------------------------
 -----
 title
 -----
 Symbolic Z-matrix:
 Charge =  0 Multiplicity = 1

 SCF Done:  E(RHF) =  -245.654125500     A.U. after   18 cycles
 Normal termination of Gaussian 16 at Wed Apr  9 16:18:38 2025.
 Gaussian 16:  ES64L-G16RevC.01  3-Jul-2019

 ----------------------------------------------------------------------
 #t hf aug-cc-pvdz iop(5/13=1,5/36=2,99/5=2) pseudo=read geom=check gue
 ss=(read,tcheck) scf=(maxcycle=1)
 ----------------------------------------------------------------------
 -----
 title
 -----
 Structure from the checkpoint file:  "Grambow2020_b97d3_007197_forward_mol1.chk"
 Charge =  0 Multiplicity = 1

                         Standard orientation:
 ---------------------------------------------------------------------
 Center     Atomic      Atomic             Coordinates (Angstroms)
 Number     Number       Type             X           Y           Z
 ---------------------------------------------------------------------
      1          8           0       -1.574456   -0.673516   -0.187066
      2          6           0       -0.886893    0.196863    0.363498
      3          6           0        0.625552    0.141404    0.600352
      4          6           0        1.402782   -0.792088   -0.088703
      5          7           0        0.337117    1.151181   -0.560483
      6          1           0       -1.292030    1.044411    0.950962
      7          1           0        1.066204    0.667936    1.448978
      8          1           0        2.478858   -0.879079    0.060442
      9          1           0        0.929951   -1.433833   -0.832459
     10          1           0        0.204198    0.653355   -1.458904
 ---------------------------------------------------------------------

 SCF Done:  E(RHF) =  -245.900308096     A.U. after    2 cycles

 The electronic state is 1-A.
 Alpha  occ. eigenvalues --  -20.47808 -15.53675 -11.37627 -11.34870 -11.30130
 Alpha  occ. eigenvalues --   -1.41487  -1.21818  -1.03380  -0.91177  -0.80020
 Alpha  occ. eigenvalues --   -0.73834  -0.66320  -0.62812  -0.60921  -0.57346
 Alpha  occ. eigenvalues --   -0.53329  -0.46913  -0.39207  -0.35871
 Alpha virt. eigenvalues --   -0.01968   0.02247   0.03833   0.04856   0.06137
 Alpha virt. eigenvalues --    0.06625   0.09181   0.10948   0.11312   0.12954
 Alpha virt. eigenvalues --    0.13398   0.13798   0.14756   0.16360   0.17220

 Mulliken charges:
               1
     1  O   -1.371171
     2  C    1.063042
     3  C    0.184342
     4  C    0.088822
     5  N   -0.135933
     6  H    0.182023
     7  H   -0.105201
     8  H    0.023091
     9  H    0.011483
    10  H    0.059503
 Sum of Mulliken charges =  -0.00000

 Dipole moment (field-independent basis, Debye):
    X=              5.2783    Y=             -1.7479    Z=              1.3019  Tot=              5.7105

 Test job not archived.
 1\1\GINC-SE113\SP\RHF\Aug-CC-pVDZ\C3H5N1O1\OHZDE\09-Apr-2025\0\\#t hf
 aug-cc-pvdz iop(5/13=1,5/36=2,99/5=2) pseudo=read geom=check guess=(re
 ad,tcheck) scf=(maxcycle=1)\\title\\0,1\O,0,0.95958189,-0.89557565,1.5
 5338322\C,0,1.14154588,-0.2656893,0.50288142\C,0,0.13186563,-0.0920820
 8,-0.63600892\C,0,-1.21610993,-0.38646533,-0.42015397\N,0,0.23554435,1
 .25688859,0.15133527\H,0,2.12738903,0.08608804,0.13962669\H,0,0.481430
 42,0.04865282,-1.66049625\H,0,-1.96643313,-0.29415984,-1.20516802\H,0,
 -1.54385431,-0.68232936,0.57665378\H,0,-0.34965283,1.23221511,1.005497

 Normal termination of Gaussian 16 at Wed Apr  9 16:18:41 2025.
