 Gaussian 16, Revision C.01,

 ----------------------------------------------------------------------
 #t hf aug-cc-pvdz symm=none int=(grid=ultrafine) guess=(read,tcheck) s
 table=(opt,rrhf)
 ----------------------------------------------------------------------
 -----
 title
 -----
 Symbolic Z-matrix:
 Charge =  0 Multiplicity = 1

 SCF Done:  E(RHF) =  -284.855116670     A.U. after   13 cycles
 Normal termination of Gaussian 16 at Wed Apr  9 17:06:15 2025.
 Gaussian 16:  ES64L-G16RevC.01  3-Jul-2019

 ----------------------------------------------------------------------
 #t hf aug-cc-pvdz iop(5/13=1,5/36=2,99/5=2) pseudo=read geom=check gue
 ss=(read,tcheck) scf=(maxcycle=1)
 ----------------------------------------------------------------------
 -----
 title
 -----
 Structure from the checkpoint file:  "Grambow2020_wb97xd3_006244_reverse_mol2.chk"
 Charge =  0 Multiplicity = 1

                         Standard orientation:
 ---------------------------------------------------------------------
 Center     Atomic      Atomic             Coordinates (Angstroms)
 Number     Number       Type             X           Y           Z
 ---------------------------------------------------------------------
      1          8           0       -1.467823   -0.929386    0.619266
      2          6           0       -1.475994   -0.018816   -0.375523
      3          7           0       -0.657740    0.907741   -0.608879
      4          6           0        0.443680    1.128564    0.305952
      5          6           0        1.544105    0.100535    0.291766
      6          6           0        1.604902   -0.977447   -0.474640
      7          1           0       -2.342078   -0.160719   -1.016846
      8          1           0        0.888566    2.097345    0.063653
      9          1           0        0.078570    1.228157    1.339718
     10          1           0        2.356870    0.307983    0.983830
     11          1           0       -0.612244   -0.924105    1.065212
     12          1           0        2.448441   -1.653692   -0.418533
     13          1           0        0.828488   -1.211082   -1.194335
 ---------------------------------------------------------------------

 SCF Done:  E(RHF) =  -285.149911841     A.U. after    2 cycles

 The electronic state is 1-A.
 Alpha  occ. eigenvalues --  -20.59406 -15.48728 -11.34544 -11.27454 -11.25438
 Alpha  occ. eigenvalues --  -11.24103  -1.51640  -1.23194  -1.07508  -0.96876
 Alpha  occ. eigenvalues --   -0.85969  -0.78741  -0.70475  -0.70341  -0.67449
 Alpha  occ. eigenvalues --   -0.61684  -0.59764  -0.58195  -0.55734  -0.53155
 Alpha  occ. eigenvalues --   -0.45473  -0.42781  -0.38407
 Alpha virt. eigenvalues --    0.03396   0.04195   0.04370   0.04873   0.05844
 Alpha virt. eigenvalues --    0.06949   0.07156   0.09845   0.10973   0.11686
 Alpha virt. eigenvalues --    0.12822   0.13009   0.14309   0.14992   0.15353

 Mulliken charges:
               1
     1  O   -1.203817
     2  C    0.475960
     3  N    0.639339
     4  C   -0.722268
     5  C    0.475828
     6  C   -0.140703
     7  H    0.044218
     8  H    0.130490
     9  H    0.186251
    10  H   -0.160301
    11  H    0.485627
    12  H   -0.124657
    13  H   -0.085967
 Sum of Mulliken charges =   0.00000

 Dipole moment (field-independent basis, Debye):
    X=              0.9541    Y=             -0.8677    Z=              1.4623  Tot=              1.9497

 Test job not archived.
 1\1\GINC-SE163\SP\RHF\Aug-CC-pVDZ\C4H7N1O1\OHZDE\09-Apr-2025\0\\#t hf
 aug-cc-pvdz iop(5/13=1,5/36=2,99/5=2) pseudo=read geom=check guess=(re
 ad,tcheck) scf=(maxcycle=1)\\title\\0,1\O,0,0.9499239,0.00625353,-1.98
 750216\C,0,1.63972561,0.47396647,-0.92720581\N,0,1.20595729,0.94019815
 ,0.15767973\C,0,-0.22329665,1.08008449,0.34865018\C,0,-1.00259362,-0.1
 9433545,0.53977746\C,0,-0.510639,-1.42351158,0.55476177\H,0,2.7094261,
 0.41835803,-1.112085\H,0,-0.38159116,1.70403698,1.23227633\H,0,-0.6757
 1823,1.63881419,-0.48503496\H,0,-2.06925674,-0.04616494,0.69094319\H,0

 Normal termination of Gaussian 16 at Wed Apr  9 17:06:20 2025.
