 Gaussian 16, Revision C.01,

 ----------------------------------------------------------------------
 #t hf aug-cc-pvdz symm=none int=(grid=ultrafine) guess=(read,tcheck) s
 table=(opt,rrhf)
 ----------------------------------------------------------------------
 -----
 title
 -----
 Symbolic Z-matrix:
 Charge =  0 Multiplicity = 1

 SCF Done:  E(RHF) =  -266.800683379     A.U. after   13 cycles
 Normal termination of Gaussian 16 at Wed Apr  9 03:05:14 2025.
 Gaussian 16:  ES64L-G16RevC.01  3-Jul-2019

 ----------------------------------------------------------------------
 #t hf aug-cc-pvdz iop(5/13=1,5/36=2,99/5=2) pseudo=read geom=check gue
 ss=(read,tcheck) scf=(maxcycle=1)
 ----------------------------------------------------------------------
 -----
 title
 -----
 Structure from the checkpoint file:  "Grambow2020_b97d3_006471_forward_mol2.chk"
 Charge =  0 Multiplicity = 1

                         Standard orientation:
 ---------------------------------------------------------------------
 Center     Atomic      Atomic             Coordinates (Angstroms)
 Number     Number       Type             X           Y           Z
 ---------------------------------------------------------------------
      1          8           0        1.516653   -0.723382   -0.065855
      2          6           0        1.089147    0.627015   -0.079214
      3          6           0       -0.427110    0.730710   -0.020941
      4          6           0       -1.282609   -0.303285   -0.621244
      5          8           0       -1.048251   -0.277666    0.806851
      6          1           0        0.951452   -1.152462    0.610800
      7          1           0        1.514377    1.200572    0.767932
      8          1           0        1.459913    1.080930   -1.009533
      9          1           0       -0.834621    1.739660    0.108811
     10          1           0       -0.813112   -1.135414   -1.150818
     11          1           0       -2.301797   -0.051539   -0.926761
 ---------------------------------------------------------------------

 SCF Done:  E(RHF) =  -267.074477733     A.U. after    2 cycles

 The electronic state is 1-A.
 Alpha  occ. eigenvalues --  -20.57057 -20.55138 -11.30744 -11.30168 -11.29865
 Alpha  occ. eigenvalues --   -1.49753  -1.44499  -1.00582  -0.92467  -0.82351
 Alpha  occ. eigenvalues --   -0.72986  -0.69616  -0.64611  -0.61027  -0.58511
 Alpha  occ. eigenvalues --   -0.54221  -0.50911  -0.48008  -0.45205  -0.43400
 Alpha virt. eigenvalues --    0.03338   0.04105   0.04771   0.05057   0.06546
 Alpha virt. eigenvalues --    0.07640   0.10124   0.11106   0.12211   0.13688
 Alpha virt. eigenvalues --    0.14351   0.15476   0.15705   0.17069   0.17530

 Mulliken charges:
               1
     1  O   -1.168985
     2  C    0.676555
     3  C    0.583120
     4  C    0.483863
     5  O   -1.243819
     6  H    0.394191
     7  H    0.155061
     8  H    0.169066
     9  H   -0.054647
    10  H    0.010450
    11  H   -0.004855
 Sum of Mulliken charges =  -0.00000

 Dipole moment (field-independent basis, Debye):
    X=             -0.9943    Y=              1.5407    Z=             -0.9829  Tot=              2.0805

 Test job not archived.
 1\1\GINC-SE128\SP\RHF\Aug-CC-pVDZ\C3H6O2\OHZDE\09-Apr-2025\0\\#t hf au
 g-cc-pvdz iop(5/13=1,5/36=2,99/5=2) pseudo=read geom=check guess=(read
 ,tcheck) scf=(maxcycle=1)\\title\\0,1\O,0,-1.69353533,-0.39715418,-0.3
 2503411\C,0,-0.93623126,0.75443962,0.00182384\C,0,0.55426265,0.4524191
 6,0.02173147\C,0,1.0550791,-0.87462441,0.40841739\O,0,0.96960136,-0.49
 615137,-0.98603108\H,0,-1.19710084,-0.8163765,-1.0593563\H,0,-1.118592
 95,1.58185953,-0.71201464\H,0,-1.26294937,1.0926152,0.99575106\H,0,1.2
 1786683,1.31737981,0.13288425\H,0,0.34000633,-1.63783912,0.72383684\H,

 Normal termination of Gaussian 16 at Wed Apr  9 03:05:17 2025.
