 Gaussian 16, Revision C.01,

 ----------------------------------------------------------------------
 #t hf aug-cc-pvdz symm=none int=(grid=ultrafine) guess=(read,tcheck) s
 table=(opt,rrhf)
 ----------------------------------------------------------------------
 -----
 title
 -----
 Symbolic Z-matrix:
 Charge =  0 Multiplicity = 1

 SCF Done:  E(RHF) =  -308.890060926     A.U. after   16 cycles

 1\1\GINC-SE094\Stability\RHF\Aug-CC-pVDZ\C6H12O1\OHZDE\09-Apr-2025\0\\
 #t hf aug-cc-pvdz symm=none int=(grid=ultrafine) guess=(read,tcheck) s
 table=(opt,rrhf)\\title\\0,1\C,0,1.94862004,-0.85502055,-0.35676423\C,
 0,0.62390727,-0.12557031,-0.1730331\O,0,0.5759255,0.30074077,1.2742233
 1\C,0,0.40367905,1.11060795,-0.93341645\C,0,-1.2877738,0.94502232,1.05
 760713\C,0,-1.78587119,-0.15132986,0.17714926\C,0,-0.58743174,-1.04324
 692,-0.20888032\H,0,2.78212215,-0.15687755,-0.26041261\H,0,1.98782534,
 -1.28478201,-1.35833109\H,0,2.08253172,-1.65671786,0.37278402\H,0,0.95

 Normal termination of Gaussian 16 at Wed Apr  9 03:59:12 2025.
 Gaussian 16:  ES64L-G16RevC.01  3-Jul-2019

 ----------------------------------------------------------------------
 #t hf aug-cc-pvdz iop(5/13=1,5/36=2,99/5=2) pseudo=read geom=check gue
 ss=(read,tcheck) scf=(maxcycle=1)
 ----------------------------------------------------------------------
 -----
 title
 -----
 Structure from the checkpoint file:  "Grambow2020_wb97xd3_008669_forward_mol1.chk"
 Charge =  0 Multiplicity = 1

                         Standard orientation:
 ---------------------------------------------------------------------
 Center     Atomic      Atomic             Coordinates (Angstroms)
 Number     Number       Type             X           Y           Z
 ---------------------------------------------------------------------
      1          6           0        2.145387    0.282312   -0.274590
      2          6           0        0.688215    0.039402    0.097380
      3          8           0        0.134416   -0.888706   -0.956430
      4          6           0        0.402049   -0.630417    1.371850
      5          6           0       -1.690625   -0.714723   -0.198569
      6          6           0       -1.643662    0.740769    0.124898
      7          6           0       -0.208070    1.246114   -0.129059
      8          1           0        2.725986   -0.633534   -0.149910
      9          1           0        2.566424    1.037073    0.390565
     10          1           0        2.256156    0.624650   -1.305816
     11          1           0        0.281008   -1.762825   -0.570507
     12          1           0        1.149313   -1.354442    1.696059
     13          1           0        0.053955   -0.003697    2.188160
     14          1           0       -2.030578   -1.000057   -1.188189
     15          1           0       -1.934319   -1.408444    0.588622
     16          1           0       -1.901165    0.875578    1.174904
     17          1           0       -2.358305    1.294431   -0.490303
     18          1           0        0.062796    2.073384    0.527980
     19          1           0       -0.106365    1.586797   -1.161585
 ---------------------------------------------------------------------

 SCF Done:  E(RHF) =  -309.221918305     A.U. after    2 cycles

 The electronic state is 1-A.
 Alpha  occ. eigenvalues --  -20.57685 -11.35007 -11.27791 -11.25557 -11.23620
 Alpha  occ. eigenvalues --  -11.21358 -11.13850  -1.46527  -1.10769  -1.03579
 Alpha  occ. eigenvalues --   -0.93523  -0.89093  -0.83381  -0.75769  -0.69056
 Alpha  occ. eigenvalues --   -0.65919  -0.63931  -0.62269  -0.59033  -0.56219
 Alpha  occ. eigenvalues --   -0.55602  -0.52773  -0.51298  -0.49833  -0.48439
 Alpha  occ. eigenvalues --   -0.46057  -0.45142  -0.23478
 Alpha virt. eigenvalues --    0.02888   0.03406   0.03789   0.04472   0.05638
 Alpha virt. eigenvalues --    0.05924   0.06332   0.06511   0.06946   0.08234
 Alpha virt. eigenvalues --    0.09477   0.09792   0.09926   0.12355   0.13312

 Mulliken charges:
               1
     1  C   -0.348423
     2  C   -0.053328
     3  O   -1.357053
     4  C    0.002207
     5  C    0.485739
     6  C   -0.208835
     7  C   -0.019887
     8  H    0.176031
     9  H    0.280902
    10  H    0.203056
    11  H    0.507118
    12  H   -0.157285
    13  H   -0.140999
    14  H   -0.045343
    15  H    0.078514
    16  H    0.200495
    17  H    0.132760
    18  H    0.139174
    19  H    0.125159
 Sum of Mulliken charges =  -0.00000

 Dipole moment (field-independent basis, Debye):
    X=             -2.6397    Y=              0.6127    Z=             -2.0007  Tot=              3.3684

 Test job not archived.
 1\1\GINC-SE094\SP\RHF\Aug-CC-pVDZ\C6H12O1\OHZDE\09-Apr-2025\0\\#t hf a
 ug-cc-pvdz iop(5/13=1,5/36=2,99/5=2) pseudo=read geom=check guess=(rea
 d,tcheck) scf=(maxcycle=1)\\title\\0,1\C,0,1.94862004,-0.85502055,-0.3
 5676423\C,0,0.62390727,-0.12557031,-0.1730331\O,0,0.5759255,0.30074077
 ,1.27422331\C,0,0.40367905,1.11060795,-0.93341645\C,0,-1.2877738,0.945
 02232,1.05760713\C,0,-1.78587119,-0.15132986,0.17714926\C,0,-0.5874317
 4,-1.04324692,-0.20888032\H,0,2.78212215,-0.15687755,-0.26041261\H,0,1
 .98782534,-1.28478201,-1.35833109\H,0,2.08253172,-1.65671786,0.3727840

 Normal termination of Gaussian 16 at Wed Apr  9 03:59:20 2025.
