 Gaussian 16, Revision C.01,

 ----------------------------------------------------------------------
 #t hf aug-cc-pvdz symm=none int=(grid=ultrafine) guess=(read,tcheck) s
 table=(opt,rrhf)
 ----------------------------------------------------------------------
 -----
 title
 -----
 Symbolic Z-matrix:
 Charge =  0 Multiplicity = 1

 SCF Done:  E(RHF) =  -321.593731381     A.U. after   14 cycles
 Normal termination of Gaussian 16 at Wed Apr  9 03:46:15 2025.
 Gaussian 16:  ES64L-G16RevC.01  3-Jul-2019

 ----------------------------------------------------------------------
 #t hf aug-cc-pvdz iop(5/13=1,5/36=2,99/5=2) pseudo=read geom=check gue
 ss=(read,tcheck) scf=(maxcycle=1)
 ----------------------------------------------------------------------
 -----
 title
 -----
 Structure from the checkpoint file:  "Grambow2020_wb97xd3_007885_reverse_mol2.chk"
 Charge =  0 Multiplicity = 1

                         Standard orientation:
 ---------------------------------------------------------------------
 Center     Atomic      Atomic             Coordinates (Angstroms)
 Number     Number       Type             X           Y           Z
 ---------------------------------------------------------------------
      1          8           0        2.793008    0.211313   -0.005526
      2          6           0        2.130381   -0.696023   -0.036014
      3          6           0       -1.062903   -0.218752   -1.117328
      4          7           0       -1.205011   -1.021125   -0.023373
      5          6           0       -1.019483   -0.290498    1.113498
      6          6           0       -0.766536    1.003560    0.743283
      7          6           0       -0.793302    1.049070   -0.674956
      8          1           0       -1.166534   -0.612025   -2.115361
      9          1           0       -1.370163   -2.009250   -0.051982
     10          1           0       -1.084837   -0.746070    2.088004
     11          1           0       -0.580564    1.826178    1.414878
     12          1           0       -0.635832    1.914393   -1.298618
 ---------------------------------------------------------------------

 SCF Done:  E(RHF) =  -321.913491084     A.U. after    2 cycles

 The electronic state is 1-A.
 Alpha  occ. eigenvalues --  -20.63730 -15.54669 -11.35589 -11.25945 -11.25919
 Alpha  occ. eigenvalues --  -11.21788 -11.21730  -1.59205  -1.29842  -1.05449
 Alpha  occ. eigenvalues --   -0.99168  -0.82049  -0.79375  -0.79310  -0.75667
 Alpha  occ. eigenvalues --   -0.62450  -0.62208  -0.61862  -0.60740  -0.60272
 Alpha  occ. eigenvalues --   -0.56436  -0.54442  -0.53714  -0.37169  -0.31356
 Alpha virt. eigenvalues --    0.03162   0.04270   0.04589   0.05343   0.05538
 Alpha virt. eigenvalues --    0.07646   0.09887   0.10477   0.11191   0.12089
 Alpha virt. eigenvalues --    0.12882   0.13879   0.14643   0.14816   0.14885

 Mulliken charges:
               1
     1  O   -0.505980
     2  C    0.501430
     3  C   -0.537453
     4  N    0.936754
     5  C   -0.539283
     6  C    0.492051
     7  C    0.487181
     8  H   -0.230452
     9  H   -0.030148
    10  H   -0.231150
    11  H   -0.172687
    12  H   -0.170264
 Sum of Mulliken charges =  -0.00000

 Dipole moment (field-independent basis, Debye):
    X=             -0.5309    Y=             -1.5164    Z=             -0.0415  Tot=              1.6072

 Test job not archived.
 1\1\GINC-SE368\SP\RHF\Aug-CC-pVDZ\C5H5N1O1\OHZDE\09-Apr-2025\0\\#t hf
 aug-cc-pvdz iop(5/13=1,5/36=2,99/5=2) pseudo=read geom=check guess=(re
 ad,tcheck) scf=(maxcycle=1)\\title\\0,1\O,0,0.64151533,-1.4857652,2.75
 230529\C,0,-0.13166301,-1.73093536,1.97426381\C,0,0.41272741,-0.509262
 97,-1.15706962\N,0,-0.90996944,-0.2605994,-0.93486657\C,0,-1.04522833,
 0.79164573,-0.07743096\C,0,0.21037454,1.23277007,0.24583167\C,0,1.1373
 1828,0.40524164,-0.43985135\H,0,0.72903023,-1.31028914,-1.8049757\H,0,
 -1.66753049,-0.80208189,-1.30551814\H,0,-2.01723123,1.14166648,0.22945

 Normal termination of Gaussian 16 at Wed Apr  9 03:46:19 2025.
