 Gaussian 16, Revision C.01,

 ----------------------------------------------------------------------
 #t hf aug-cc-pvdz symm=none int=(grid=ultrafine) guess=(read,tcheck) s
 table=(opt,rrhf)
 ----------------------------------------------------------------------
 -----
 title
 -----
 Symbolic Z-matrix:
 Charge =  0 Multiplicity = 1

 SCF Done:  E(RHF) =  -342.437528584     A.U. after   16 cycles
 Normal termination of Gaussian 16 at Wed Apr  9 19:04:51 2025.
 Gaussian 16:  ES64L-G16RevC.01  3-Jul-2019

 ----------------------------------------------------------------------
 #t hf aug-cc-pvdz iop(5/13=1,5/36=2,99/5=2) pseudo=read geom=check gue
 ss=(read,tcheck) scf=(maxcycle=1)
 ----------------------------------------------------------------------
 -----
 title
 -----
 Structure from the checkpoint file:  "Grambow2020_wb97xd3_008521_reverse_mol1.chk"
 Charge =  0 Multiplicity = 1

                         Standard orientation:
 ---------------------------------------------------------------------
 Center     Atomic      Atomic             Coordinates (Angstroms)
 Number     Number       Type             X           Y           Z
 ---------------------------------------------------------------------
      1          8           0       -2.049129   -0.791778    0.093175
      2          6           0       -1.015661   -0.231880   -0.133071
      3          6           0       -0.695845    1.220701    0.205659
      4          8           0        0.704390    1.352040    0.067694
      5          6           0        1.219936    0.139039   -0.444127
      6          6           0        1.396719   -0.996087    0.610344
      7          6           0        0.221775   -0.832556   -0.815259
      8          1           0       -1.012205    1.438133    1.228251
      9          1           0       -1.212430    1.906738   -0.473683
     10          1           0        2.098860    0.335486   -1.045871
     11          1           0        1.210498   -0.609459    1.607788
     12          1           0        2.313547   -1.558646    0.478452
     13          1           0        0.598094   -1.789661    0.376831
 ---------------------------------------------------------------------

 SCF Done:  E(RHF) =  -342.781362307     A.U. after    2 cycles

 The electronic state is 1-A.
 Alpha  occ. eigenvalues --  -20.57451 -20.56103 -11.35567 -11.32422 -11.30913
 Alpha  occ. eigenvalues --  -11.29670 -11.27962  -1.50851  -1.49167  -1.16288
 Alpha  occ. eigenvalues --   -1.02433  -0.93150  -0.83848  -0.77691  -0.71700
 Alpha  occ. eigenvalues --   -0.68810  -0.64845  -0.63485  -0.62903  -0.58529
 Alpha  occ. eigenvalues --   -0.57192  -0.54711  -0.52864  -0.44972  -0.42127
 Alpha  occ. eigenvalues --   -0.37222
 Alpha virt. eigenvalues --    0.02901   0.03649   0.03876   0.05160   0.05953
 Alpha virt. eigenvalues --    0.06570   0.07775   0.08928   0.09696   0.11190
 Alpha virt. eigenvalues --    0.11914   0.13507   0.13828   0.14483   0.14674

 Mulliken charges:
               1
     1  O   -1.364030
     2  C    1.199784
     3  C    0.467058
     4  O   -1.485532
     5  C    1.537879
     6  C   -0.489316
     7  C   -0.712403
     8  H    0.146492
     9  H    0.154015
    10  H   -0.039484
    11  H    0.143791
    12  H    0.074571
    13  H    0.367173
 Sum of Mulliken charges =   0.00000

 Dipole moment (field-independent basis, Debye):
    X=              2.6786    Y=              0.9928    Z=              1.5241  Tot=              3.2378

 Test job not archived.
 1\1\GINC-SE162\SP\RHF\Aug-CC-pVDZ\C5H6O2\OHZDE\09-Apr-2025\0\\#t hf au
 g-cc-pvdz iop(5/13=1,5/36=2,99/5=2) pseudo=read geom=check guess=(read
 ,tcheck) scf=(maxcycle=1)\\title\\0,1\O,0,1.17789158,1.98858095,0.8177
 2487\C,0,0.79367743,1.06713383,0.1573882\C,0,1.56926409,-0.2173274,-0.
 11763606\O,0,0.63003837,-1.13249733,-0.64419371\C,0,-0.60083117,-0.459
 52944,-0.82081301\C,0,-1.44695568,-0.28685,0.47762021\C,0,-0.55536916,
 0.958901,-0.56773181\H,0,2.00349144,-0.5910444,0.81232898\H,0,2.377237
 29,-0.04369658,-0.835998\H,0,-1.14043997,-0.8888187,-1.65611311\H,0,-0

 Normal termination of Gaussian 16 at Wed Apr  9 19:04:55 2025.
