 Gaussian 16, Revision C.01,

 ----------------------------------------------------------------------
 #t hf aug-cc-pvdz symm=none int=(grid=ultrafine) guess=(read,tcheck) s
 table=(opt,rrhf)
 ----------------------------------------------------------------------
 -----
 title
 -----
 Symbolic Z-matrix:
 Charge =  0 Multiplicity = 1

 SCF Done:  E(RHF) =  -343.653149470     A.U. after   14 cycles
 Normal termination of Gaussian 16 at Wed Apr  9 18:14:07 2025.
 Gaussian 16:  ES64L-G16RevC.01  3-Jul-2019

 ----------------------------------------------------------------------
 #t hf aug-cc-pvdz iop(5/13=1,5/36=2,99/5=2) pseudo=read geom=check gue
 ss=(read,tcheck) scf=(maxcycle=1)
 ----------------------------------------------------------------------
 -----
 title
 -----
 Structure from the checkpoint file:  "Grambow2020_wb97xd3_007218_reverse_mol2.chk"
 Charge =  0 Multiplicity = 1

                         Standard orientation:
 ---------------------------------------------------------------------
 Center     Atomic      Atomic             Coordinates (Angstroms)
 Number     Number       Type             X           Y           Z
 ---------------------------------------------------------------------
      1          8           0        2.401602   -0.894429    0.090794
      2          6           0        2.589075    0.275511   -0.099390
      3          6           0       -0.761873   -0.917390   -0.484170
      4          6           0       -2.035770   -0.983315   -0.075424
      5          6           0       -2.185060    0.481699    0.295431
      6          6           0       -0.714912    0.538566   -0.189123
      7          8           0        0.089113    1.420657   -0.277379
      8          1           0        0.878555   -0.517649    2.278448
      9          1           0        2.753027    0.684187   -1.112002
     10          1           0        2.618850    1.006355    0.727296
     11          1           0       -0.043042   -1.629678   -0.862261
     12          1           0       -2.740149   -1.802652   -0.018131
     13          1           0        0.470613   -0.091204    2.735540
     14          1           0       -2.323098    0.700864    1.355953
     15          1           0       -2.889239    1.069523   -0.296110
 ---------------------------------------------------------------------

 SCF Done:  E(RHF) =  -344.003309970     A.U. after    2 cycles

 The electronic state is 1-A.
 Alpha  occ. eigenvalues --  -20.54615 -20.54346 -11.35049 -11.33806 -11.28597
 Alpha  occ. eigenvalues --  -11.26257 -11.25714  -1.48341  -1.47722  -1.18629
 Alpha  occ. eigenvalues --   -0.93695  -0.86033  -0.85053  -0.73188  -0.69902
 Alpha  occ. eigenvalues --   -0.68423  -0.64669  -0.64020  -0.63812  -0.58360
 Alpha  occ. eigenvalues --   -0.57484  -0.53428  -0.53148  -0.51675  -0.41808
 Alpha  occ. eigenvalues --   -0.41119  -0.39997
 Alpha virt. eigenvalues --    0.03109   0.04260   0.04301   0.04811   0.05675
 Alpha virt. eigenvalues --    0.06543   0.07900   0.08256   0.09003   0.10287
 Alpha virt. eigenvalues --    0.11215   0.11862   0.12279   0.13325   0.14069

 Mulliken charges:
               1
     1  O   -0.810434
     2  C    0.576109
     3  C    0.117933
     4  C    0.455933
     5  C   -0.660998
     6  C    1.220362
     7  O   -1.282620
     8  H   -0.027901
     9  H    0.104358
    10  H    0.127320
    11  H   -0.129930
    12  H   -0.063088
    13  H    0.034638
    14  H    0.160665
    15  H    0.177653
 Sum of Mulliken charges =  -0.00000

 Dipole moment (field-independent basis, Debye):
    X=             -2.3928    Y=             -0.1863    Z=             -0.1779  Tot=              2.4066

 Test job not archived.
 1\1\GINC-SE340\SP\RHF\Aug-CC-pVDZ\C5H8O2\OHZDE\09-Apr-2025\0\\#t hf au
 g-cc-pvdz iop(5/13=1,5/36=2,99/5=2) pseudo=read geom=check guess=(read
 ,tcheck) scf=(maxcycle=1)\\title\\0,1\O,0,2.38720841,-0.67575294,0.889
 97821\C,0,2.33833126,-1.47107992,-0.00731837\C,0,-0.7377099,0.07826723
 ,0.96088342\C,0,-1.75693907,0.91219307,0.71599098\C,0,-1.9522036,0.539
 09202,-0.74303348\C,0,-0.77808863,-0.42393026,-0.43741304\O,0,-0.18334
 56,-1.23040747,-1.09178582\H,0,1.72390152,1.4303787,-0.65005391\H,0,2.
 0697055,-2.52851273,0.1628474\H,0,2.56937409,-1.19303465,-1.05026538\H

 Normal termination of Gaussian 16 at Wed Apr  9 18:14:11 2025.
