 Gaussian 16, Revision C.01,

 ----------------------------------------------------------------------
 #t hf aug-cc-pvdz symm=none int=(grid=ultrafine) guess=(read,tcheck) s
 table=(opt,rrhf)
 ----------------------------------------------------------------------
 -----
 title
 -----
 Symbolic Z-matrix:
 Charge =  0 Multiplicity = 1

 SCF Done:  E(RHF) =  -268.838795158     A.U. after   13 cycles
 Normal termination of Gaussian 16 at Wed Apr  9 03:05:50 2025.
 Gaussian 16:  ES64L-G16RevC.01  3-Jul-2019

 ----------------------------------------------------------------------
 #t hf aug-cc-pvdz iop(5/13=1,5/36=2,99/5=2) pseudo=read geom=check gue
 ss=(read,tcheck) scf=(maxcycle=1)
 ----------------------------------------------------------------------
 -----
 title
 -----
 Structure from the checkpoint file:  "Grambow2020_b97d3_006497_reverse_mol2.chk"
 Charge =  0 Multiplicity = 1

                         Standard orientation:
 ---------------------------------------------------------------------
 Center     Atomic      Atomic             Coordinates (Angstroms)
 Number     Number       Type             X           Y           Z
 ---------------------------------------------------------------------
      1          8           0       -2.106603   -0.001024   -0.038454
      2          6           0       -0.891863    0.001562   -0.079143
      3          6           0        0.013324    1.252226   -0.093603
      4          6           0        1.399126    0.679488   -0.229253
      5          6           0        1.401596   -0.666901   -0.244357
      6          6           0        0.016772   -1.245220   -0.125411
      7          1           0       -0.276797    1.926590   -0.914919
      8          1           0       -0.132169    1.821383    0.839861
      9          1           0        2.290576    1.302197   -0.297823
     10          1           0        0.462530   -0.101393    3.173680
     11          1           0        0.981784   -0.049327    2.640030
     12          1           0        2.295318   -1.284196   -0.327320
     13          1           0       -0.271665   -1.894747   -0.966901
     14          1           0       -0.130482   -1.839246    0.791619
 ---------------------------------------------------------------------

 SCF Done:  E(RHF) =  -269.121001880     A.U. after    2 cycles

 The electronic state is 1-A.
 Alpha  occ. eigenvalues --  -20.54011 -11.34702 -11.25819 -11.25725 -11.25701
 Alpha  occ. eigenvalues --  -11.25687  -1.46635  -1.14809  -0.99256  -0.95010
 Alpha  occ. eigenvalues --   -0.76697  -0.75928  -0.69319  -0.64579  -0.60290
 Alpha  occ. eigenvalues --   -0.59619  -0.58944  -0.58079  -0.56874  -0.53266
 Alpha  occ. eigenvalues --   -0.49698  -0.40183  -0.37317
 Alpha virt. eigenvalues --    0.03129   0.03666   0.04441   0.05013   0.06063
 Alpha virt. eigenvalues --    0.06149   0.07559   0.08550   0.09604   0.11416
 Alpha virt. eigenvalues --    0.12363   0.13155   0.13428   0.14602   0.14729

 Mulliken charges:
               1
     1  O   -1.402639
     2  C    1.410958
     3  C   -0.869927
     4  C    0.448891
     5  C    0.436980
     6  C   -0.862590
     7  H    0.232097
     8  H    0.254790
     9  H   -0.082524
    10  H    0.023746
    11  H    0.006517
    12  H   -0.081957
    13  H    0.234267
    14  H    0.251390
 Sum of Mulliken charges =  -0.00000

 Dipole moment (field-independent basis, Debye):
    X=              3.1936    Y=              0.0062    Z=             -0.0893  Tot=              3.1948

 Test job not archived.
 1\1\GINC-SE123\SP\RHF\Aug-CC-pVDZ\C5H8O1\OHZDE\09-Apr-2025\0\\#t hf au
 g-cc-pvdz iop(5/13=1,5/36=2,99/5=2) pseudo=read geom=check guess=(read
 ,tcheck) scf=(maxcycle=1)\\title\\0,1\O,0,-0.62814859,2.3195959,-0.646
 92727\C,0,-0.33435959,1.25197608,-0.14579601\C,0,-1.32292937,0.1401717
 ,0.26694196\C,0,-0.43570483,-0.9008823,0.89616096\C,0,0.86693374,-0.56
 286337,0.85287476\C,0,1.09287142,0.76962083,0.18971795\H,0,-2.09303613
 ,0.54310782,0.9437539\H,0,-1.85692169,-0.22611931,-0.62588784\H,0,-0.8
 2303375,-1.82389139,1.32648814\H,0,0.2812441,-1.16478517,-2.63700769\H

 Normal termination of Gaussian 16 at Wed Apr  9 03:05:54 2025.
