 Gaussian 16, Revision C.01,

 ----------------------------------------------------------------------
 #t hf aug-cc-pvdz symm=none int=(grid=ultrafine) guess=(read,tcheck) s
 table=(opt,rrhf)
 ----------------------------------------------------------------------
 -----
 title
 -----
 Symbolic Z-matrix:
 Charge =  0 Multiplicity = 1

 SCF Done:  E(RHF) =  -302.874231788     A.U. after   15 cycles
 Normal termination of Gaussian 16 at Wed Apr  9 19:20:06 2025.
 Gaussian 16:  ES64L-G16RevC.01  3-Jul-2019

 ----------------------------------------------------------------------
 #t hf aug-cc-pvdz iop(5/13=1,5/36=2,99/5=2) pseudo=read geom=check gue
 ss=(read,tcheck) scf=(maxcycle=1)
 ----------------------------------------------------------------------
 -----
 title
 -----
 Structure from the checkpoint file:  "Grambow2020_wb97xd3_009341_reverse_mol2.chk"
 Charge =  0 Multiplicity = 1

                         Standard orientation:
 ---------------------------------------------------------------------
 Center     Atomic      Atomic             Coordinates (Angstroms)
 Number     Number       Type             X           Y           Z
 ---------------------------------------------------------------------
      1          6           0        0.255375    1.954821   -0.366444
      2          7           0        1.589158   -0.019001    0.249927
      3          6           0        0.300379    0.657647    0.431530
      4          6           0       -0.706904   -0.380798    0.064110
      5          6           0       -2.179958   -0.182704    0.073477
      6          6           0        0.010834   -1.457430   -0.255749
      7          7           0        1.404626   -1.191190   -0.127590
      8          1           0        0.344013    1.749274   -1.434108
      9          1           0        1.079893    2.602636   -0.071256
     10          1           0       -0.682114    2.483782   -0.189220
     11          1           0        0.235277    0.887841    1.503252
     12          1           0       -2.707381   -1.096586   -0.197242
     13          1           0       -2.469345    0.600186   -0.632606
     14          1           0       -2.526001    0.132412    1.060757
     15          1           0       -0.309191   -2.437420   -0.577480
 ---------------------------------------------------------------------

 SCF Done:  E(RHF) =  -303.190118200     A.U. after    2 cycles

 The electronic state is 1-A.
 Alpha  occ. eigenvalues --  -15.55615 -15.54653 -11.27408 -11.26061 -11.25900
 Alpha  occ. eigenvalues --  -11.25527 -11.24563  -1.37991  -1.11642  -1.07134
 Alpha  occ. eigenvalues --   -0.98756  -0.93685  -0.80730  -0.79246  -0.71344
 Alpha  occ. eigenvalues --   -0.66014  -0.61192  -0.60901  -0.59220  -0.57564
 Alpha  occ. eigenvalues --   -0.56069  -0.55759  -0.51520  -0.50143  -0.43574
 Alpha  occ. eigenvalues --   -0.37627
 Alpha virt. eigenvalues --    0.02970   0.03506   0.03872   0.04072   0.05696
 Alpha virt. eigenvalues --    0.06200   0.06514   0.07149   0.08972   0.10569
 Alpha virt. eigenvalues --    0.11047   0.12339   0.13284   0.13513   0.14097

 Mulliken charges:
               1
     1  C   -0.160771
     2  N   -0.067045
     3  C   -0.899748
     4  C    0.330807
     5  C   -0.462800
     6  C    0.100863
     7  N    0.035500
     8  H    0.258219
     9  H    0.164599
    10  H    0.205619
    11  H    0.170996
    12  H    0.117737
    13  H    0.217363
    14  H    0.237277
    15  H   -0.248615
 Sum of Mulliken charges =  -0.00000

 Dipole moment (field-independent basis, Debye):
    X=             -4.4101    Y=              1.3860    Z=              0.1724  Tot=              4.6260

 Test job not archived.
 1\1\GINC-SE041\SP\RHF\Aug-CC-pVDZ\C5H8N2\OHZDE\09-Apr-2025\0\\#t hf au
 g-cc-pvdz iop(5/13=1,5/36=2,99/5=2) pseudo=read geom=check guess=(read
 ,tcheck) scf=(maxcycle=1)\\title\\0,1\C,0,-1.46579284,-0.80546148,-0.7
 5158529\N,0,-1.51300204,0.76441017,1.14265326\C,0,-0.7360213,-0.290395
 61,0.48275176\C,0,0.59804608,0.33707614,0.24923911\C,0,1.7513712,-0.32
 913965,-0.41046724\C,0,0.49103652,1.56776452,0.74978931\N,0,-0.8120331
 3,1.78386576,1.28389982\H,0,-1.5825092,-0.00772827,-1.48643924\H,0,-2.
 45581904,-1.16640173,-0.47554054\H,0,-0.91311035,-1.62590389,-1.211488

 Normal termination of Gaussian 16 at Wed Apr  9 19:20:11 2025.
