 Gaussian 16, Revision C.01,

 ----------------------------------------------------------------------
 #t hf aug-cc-pvdz symm=none int=(grid=ultrafine) guess=(read,tcheck) s
 table=(opt,rrhf)
 ----------------------------------------------------------------------
 -----
 title
 -----
 Symbolic Z-matrix:
 Charge =  0 Multiplicity = 1

 SCF Done:  E(RHF) =  -359.526812463     A.U. after   17 cycles
 Normal termination of Gaussian 16 at Wed Apr  9 03:46:35 2025.
 Gaussian 16:  ES64L-G16RevC.01  3-Jul-2019

 ----------------------------------------------------------------------
 #t hf aug-cc-pvdz iop(5/13=1,5/36=2,99/5=2) pseudo=read geom=check gue
 ss=(read,tcheck) scf=(maxcycle=1)
 ----------------------------------------------------------------------
 -----
 title
 -----
 Structure from the checkpoint file:  "Grambow2020_wb97xd3_007904_forward_mol1.chk"
 Charge =  0 Multiplicity = 1

                         Standard orientation:
 ---------------------------------------------------------------------
 Center     Atomic      Atomic             Coordinates (Angstroms)
 Number     Number       Type             X           Y           Z
 ---------------------------------------------------------------------
      1          6           0        0.433499    1.568579    0.364980
      2          6           0        0.276706    0.154022   -0.049879
      3          7           0        1.166355   -0.722196   -0.208212
      4          8           0        2.452748   -0.241493   -0.056199
      5          6           0       -1.235875   -0.300815   -0.507999
      6          6           0       -1.389795   -1.284189    0.566451
      7          8           0       -2.086240    0.645541   -0.259523
      8          1           0        1.331733    1.686573    0.968685
      9          1           0        0.516589    2.202762   -0.520817
     10          1           0       -0.460243    1.879252    0.901913
     11          1           0        2.995245   -1.020973   -0.196668
     12          1           0       -1.098603   -0.697148   -1.530822
     13          1           0       -2.332838   -1.244034    1.102578
     14          1           0       -0.555641   -1.809028    1.017069
 ---------------------------------------------------------------------

 SCF Done:  E(RHF) =  -359.891125513     A.U. after    2 cycles

 The electronic state is 1-A.
 Alpha  occ. eigenvalues --  -20.60024 -20.44553 -15.56997 -11.37864 -11.31332
 Alpha  occ. eigenvalues --  -11.30388 -11.23265  -1.52399  -1.37658  -1.21005
 Alpha  occ. eigenvalues --   -1.04350  -0.99618  -0.86357  -0.76840  -0.73296
 Alpha  occ. eigenvalues --   -0.69311  -0.68007  -0.66380  -0.62306  -0.58599
 Alpha  occ. eigenvalues --   -0.56408  -0.55145  -0.52529  -0.48015  -0.41513
 Alpha  occ. eigenvalues --   -0.35824  -0.35429
 Alpha virt. eigenvalues --   -0.02079   0.02773   0.03980   0.04783   0.05151
 Alpha virt. eigenvalues --    0.05812   0.06441   0.07737   0.09627   0.11136
 Alpha virt. eigenvalues --    0.12310   0.12712   0.13971   0.14588   0.14971

 Mulliken charges:
               1
     1  C   -0.428887
     2  C   -1.467005
     3  N    1.581776
     4  O   -1.175307
     5  C    1.360250
     6  C    0.105652
     7  O   -1.515064
     8  H    0.227185
     9  H    0.279132
    10  H    0.232256
    11  H    0.295532
    12  H    0.253219
    13  H    0.084822
    14  H    0.166439
 Sum of Mulliken charges =  -0.00000

 Dipole moment (field-independent basis, Debye):
    X=              2.0109    Y=             -3.7850    Z=              1.8669  Tot=              4.6750

 Test job not archived.
 1\1\GINC-SE072\SP\RHF\Aug-CC-pVDZ\C4H7N1O2\OHZDE\09-Apr-2025\0\\#t hf
 aug-cc-pvdz iop(5/13=1,5/36=2,99/5=2) pseudo=read geom=check guess=(re
 ad,tcheck) scf=(maxcycle=1)\\title\\0,1\C,0,-0.97385143,-1.24033909,0.
 20500213\C,0,-0.29518817,0.0569029,-0.02790051\N,0,-0.69169349,1.21530
 453,0.26397267\O,0,-1.9711877,1.24982175,0.78425526\C,0,1.08885099,-0.
 00101686,-0.91431736\C,0,1.9395182,0.49583317,0.16950179\O,0,1.4422202
 7,-1.23129659,-1.11923489\H,0,-1.64312815,-1.16690336,1.06050386\H,0,-
 1.55685611,-1.51218943,-0.67813461\H,0,-0.21992638,-2.01218506,0.34443

 Normal termination of Gaussian 16 at Wed Apr  9 03:46:40 2025.
