 Gaussian 16, Revision C.01,

 ----------------------------------------------------------------------
 #t hf aug-cc-pvdz symm=none int=(grid=ultrafine) guess=(read,tcheck) s
 table=(opt,rrhf)
 ----------------------------------------------------------------------
 -----
 title
 -----
 Symbolic Z-matrix:
 Charge =  0 Multiplicity = 1

 SCF Done:  E(RHF) =  -302.840786251     A.U. after   14 cycles
 Normal termination of Gaussian 16 at Wed Apr  9 18:11:44 2025.
 Gaussian 16:  ES64L-G16RevC.01  3-Jul-2019

 ----------------------------------------------------------------------
 #t hf aug-cc-pvdz iop(5/13=1,5/36=2,99/5=2) pseudo=read geom=check gue
 ss=(read,tcheck) scf=(maxcycle=1)
 ----------------------------------------------------------------------
 -----
 title
 -----
 Structure from the checkpoint file:  "Grambow2020_wb97xd3_007172_reverse_mol2.chk"
 Charge =  0 Multiplicity = 1

                         Standard orientation:
 ---------------------------------------------------------------------
 Center     Atomic      Atomic             Coordinates (Angstroms)
 Number     Number       Type             X           Y           Z
 ---------------------------------------------------------------------
      1          6           0       -2.520725   -0.397372    0.128208
      2          6           0       -1.087019   -0.053314    0.414298
      3          6           0       -0.025143   -0.601097   -0.466794
      4          7           0       -0.453542    0.848250   -0.530039
      5          6           0        0.851446    1.241126    0.092752
      6          6           0        1.315073   -0.201286    0.049376
      7          7           0        2.442957   -0.724780    0.220591
      8          1           0       -2.680431   -0.509841   -0.944513
      9          1           0       -3.179674    0.394870    0.486930
     10          1           0       -2.800387   -1.328119    0.625006
     11          1           0       -0.841956    0.083233    1.465837
     12          1           0        2.426427   -1.716769   -0.010990
     13          1           0       -0.235704   -1.314012   -1.255523
     14          1           0        1.428414    1.878086   -0.576715
     15          1           0        0.755618    1.719925    1.069074
 ---------------------------------------------------------------------

 SCF Done:  E(RHF) =  -303.161138024     A.U. after    2 cycles

 The electronic state is 1-A.
 Alpha  occ. eigenvalues --  -15.51796 -15.49253 -11.29984 -11.28591 -11.27980
 Alpha  occ. eigenvalues --  -11.27350 -11.24071  -1.32724  -1.21236  -1.04532
 Alpha  occ. eigenvalues --   -0.95802  -0.92475  -0.82416  -0.76199  -0.73941
 Alpha  occ. eigenvalues --   -0.67396  -0.64029  -0.60895  -0.58445  -0.56857
 Alpha  occ. eigenvalues --   -0.54942  -0.50893  -0.49060  -0.47906  -0.44696
 Alpha  occ. eigenvalues --   -0.40597
 Alpha virt. eigenvalues --    0.03359   0.03855   0.04196   0.04550   0.05529
 Alpha virt. eigenvalues --    0.05841   0.06658   0.07350   0.09918   0.10936
 Alpha virt. eigenvalues --    0.12047   0.12708   0.12966   0.13913   0.14354

 Mulliken charges:
               1
     1  C   -0.456463
     2  C   -0.179366
     3  C    0.171561
     4  N    0.507193
     5  C   -0.389307
     6  C   -1.201823
     7  N    0.944298
     8  H    0.156537
     9  H    0.228740
    10  H    0.260266
    11  H   -0.170441
    12  H    0.174235
    13  H   -0.212699
    14  H    0.073243
    15  H    0.094023
 Sum of Mulliken charges =   0.00000

 Dipole moment (field-independent basis, Debye):
    X=             -2.3166    Y=             -1.3035    Z=              0.5556  Tot=              2.7156

 Test job not archived.
 1\1\GINC-SE135\SP\RHF\Aug-CC-pVDZ\C5H8N2\OHZDE\09-Apr-2025\0\\#t hf au
 g-cc-pvdz iop(5/13=1,5/36=2,99/5=2) pseudo=read geom=check guess=(read
 ,tcheck) scf=(maxcycle=1)\\title\\0,1\C,0,-1.91517373,-1.1217093,0.328
 98719\C,0,-0.488444,-0.71964187,0.08707855\C,0,-0.1930929,0.67618043,-
 0.32330815\N,0,0.09228543,0.17183119,1.07394765\C,0,1.55885942,0.21766
 076,0.77017715\C,0,1.26651298,0.82675933,-0.58662646\N,0,2.0093234,1.3
 7496088,-1.43703161\H,0,-2.48627924,-0.28345834,0.72906239\H,0,-1.9618
 0951,-1.93808823,1.0514085\H,0,-2.38398204,-1.45619266,-0.5981856\H,0,

 Normal termination of Gaussian 16 at Wed Apr  9 18:11:49 2025.
