 Gaussian 16, Revision C.01,

 ----------------------------------------------------------------------
 #t hf aug-cc-pvdz symm=none int=(grid=ultrafine) guess=(read,tcheck) s
 table=(opt,rrhf)
 ----------------------------------------------------------------------
 -----
 title
 -----
 Symbolic Z-matrix:
 Charge =  0 Multiplicity = 1

 SCF Done:  E(RHF) =  -343.725385198     A.U. after   15 cycles
 Normal termination of Gaussian 16 at Wed Apr  9 18:31:29 2025.
 Gaussian 16:  ES64L-G16RevC.01  3-Jul-2019

 ----------------------------------------------------------------------
 #t hf aug-cc-pvdz iop(5/13=1,5/36=2,99/5=2) pseudo=read geom=check gue
 ss=(read,tcheck) scf=(maxcycle=1)
 ----------------------------------------------------------------------
 -----
 title
 -----
 Structure from the checkpoint file:  "Grambow2020_wb97xd3_007675_reverse_mol2.chk"
 Charge =  0 Multiplicity = 1

                         Standard orientation:
 ---------------------------------------------------------------------
 Center     Atomic      Atomic             Coordinates (Angstroms)
 Number     Number       Type             X           Y           Z
 ---------------------------------------------------------------------
      1          6           0       -1.746735   -1.427383   -0.262944
      2          6           0       -0.683651   -0.683486    0.500450
      3          6           0        0.453242   -0.019931   -0.263747
      4          8           0        2.821473   -0.106577   -0.386012
      5          6           0        1.819457   -0.068018    0.277705
      6          6           0       -0.601306    0.790412    0.475028
      7          8           0       -1.549563    1.478382   -0.268180
      8          1           0       -1.396858   -2.424328   -0.534839
      9          1           0       -2.019496   -0.894284   -1.172693
     10          1           0       -2.647726   -1.533554    0.343521
     11          1           0       -0.391743   -1.137020    1.442613
     12          1           0        0.377622   -0.026022   -1.344499
     13          1           0        1.881782   -0.062786    1.389685
     14          1           0       -0.281696    1.288778    1.387374
     15          1           0       -1.143217    2.265215   -0.636583
 ---------------------------------------------------------------------

 SCF Done:  E(RHF) =  -344.078843516     A.U. after    2 cycles

 The electronic state is 1-A.
 Alpha  occ. eigenvalues --  -20.57413 -20.54210 -11.34264 -11.31449 -11.26390
 Alpha  occ. eigenvalues --  -11.25213 -11.23818  -1.48432  -1.47648  -1.17790
 Alpha  occ. eigenvalues --   -0.99378  -0.91420  -0.81331  -0.80314  -0.73024
 Alpha  occ. eigenvalues --   -0.70677  -0.64847  -0.63447  -0.59532  -0.58414
 Alpha  occ. eigenvalues --   -0.57008  -0.54792  -0.53412  -0.50774  -0.45599
 Alpha  occ. eigenvalues --   -0.41346  -0.40712
 Alpha virt. eigenvalues --    0.03123   0.03357   0.03792   0.04534   0.05782
 Alpha virt. eigenvalues --    0.06424   0.06736   0.07484   0.10098   0.11874
 Alpha virt. eigenvalues --    0.12442   0.13242   0.13405   0.13849   0.14510

 Mulliken charges:
               1
     1  C   -0.578673
     2  C    0.044475
     3  C    0.304432
     4  O   -1.163606
     5  C    0.784818
     6  C    1.577202
     7  O   -1.397072
     8  H    0.209911
     9  H    0.165593
    10  H    0.200422
    11  H   -0.196927
    12  H   -0.242013
    13  H    0.085291
    14  H   -0.075171
    15  H    0.281318
 Sum of Mulliken charges =  -0.00000

 Dipole moment (field-independent basis, Debye):
    X=             -2.1372    Y=              0.5671    Z=              1.3789  Tot=              2.6059

 Test job not archived.
 1\1\GINC-SE114\SP\RHF\Aug-CC-pVDZ\C5H8O2\OHZDE\09-Apr-2025\0\\#t hf au
 g-cc-pvdz iop(5/13=1,5/36=2,99/5=2) pseudo=read geom=check guess=(read
 ,tcheck) scf=(maxcycle=1)\\title\\0,1\C,0,1.82512709,-0.35877842,0.471
 18989\C,0,0.38030834,0.01996405,0.6592206\C,0,-0.41005382,0.54900262,-
 0.52917033\O,0,-1.61524367,2.49415647,-1.1575555\C,0,-1.36221947,1.652
 76726,-0.33652824\C,0,-0.71336082,-0.80116393,0.10294725\O,0,-0.369155
 94,-1.95109124,-0.59278245\H,0,2.4597996,0.52836982,0.49112274\H,0,1.9
 74019,-0.87180031,-0.47795485\H,0,2.14974697,-1.03079829,1.26734854\H,

 Normal termination of Gaussian 16 at Wed Apr  9 18:31:34 2025.
