 Gaussian 16, Revision C.01,

 ----------------------------------------------------------------------
 #t hf aug-cc-pvdz symm=none int=(grid=ultrafine) guess=(read,tcheck) s
 table=(opt,rrhf)
 ----------------------------------------------------------------------
 -----
 title
 -----
 Symbolic Z-matrix:
 Charge =  0 Multiplicity = 1

 SCF Done:  E(RHF) =  -358.401082059     A.U. after   17 cycles
 Normal termination of Gaussian 16 at Wed Apr  9 17:42:36 2025.
 Gaussian 16:  ES64L-G16RevC.01  3-Jul-2019

 ----------------------------------------------------------------------
 #t hf aug-cc-pvdz iop(5/13=1,5/36=2,99/5=2) pseudo=read geom=check gue
 ss=(read,tcheck) scf=(maxcycle=1)
 ----------------------------------------------------------------------
 -----
 title
 -----
 Structure from the checkpoint file:  "Grambow2020_wb97xd3_006787_forward_mol1.chk"
 Charge =  0 Multiplicity = 1

                         Standard orientation:
 ---------------------------------------------------------------------
 Center     Atomic      Atomic             Coordinates (Angstroms)
 Number     Number       Type             X           Y           Z
 ---------------------------------------------------------------------
      1          8           0       -2.646853   -0.585683    0.045951
      2          6           0       -1.377537   -0.465784    0.267230
      3          6           0       -0.677864    0.644323   -0.387424
      4          6           0        0.321886    1.358896    0.497114
      5          7           0        0.749774    0.530316   -0.571143
      6          6           0        1.451834   -0.655184   -0.370344
      7          8           0        2.368086   -0.766513    0.392445
      8          1           0       -2.104500   -1.336258    0.777793
      9          1           0       -1.237673    1.197495   -1.139098
     10          1           0        0.457811    0.980222    1.504657
     11          1           0        0.432056    2.427140    0.359963
     12          1           0        1.124109   -1.456740   -1.051944
 ---------------------------------------------------------------------

 SCF Done:  E(RHF) =  -358.760798010     A.U. after    2 cycles

 The electronic state is 1-A.
 Alpha  occ. eigenvalues --  -20.60540 -20.54653 -15.55353 -11.37707 -11.35077
 Alpha  occ. eigenvalues --  -11.31245 -11.31091  -1.53468  -1.49409  -1.33897
 Alpha  occ. eigenvalues --   -1.04148  -0.95681  -0.84753  -0.79839  -0.77006
 Alpha  occ. eigenvalues --   -0.73728  -0.68025  -0.66745  -0.60359  -0.59132
 Alpha  occ. eigenvalues --   -0.56997  -0.55630  -0.53198  -0.45241  -0.44542
 Alpha  occ. eigenvalues --   -0.37765
 Alpha virt. eigenvalues --    0.03328   0.03652   0.04380   0.05020   0.05899
 Alpha virt. eigenvalues --    0.08174   0.08609   0.09498   0.10536   0.10686
 Alpha virt. eigenvalues --    0.12054   0.13261   0.13778   0.14538   0.14788

 Mulliken charges:
               1
     1  O   -1.110316
     2  C    0.381994
     3  C    0.003967
     4  C    0.225897
     5  N    0.594074
     6  C    0.749093
     7  O   -1.068739
     8  H    0.385524
     9  H   -0.176858
    10  H   -0.040420
    11  H   -0.052907
    12  H    0.108692
 Sum of Mulliken charges =  -0.00000

 Dipole moment (field-independent basis, Debye):
    X=             -2.0388    Y=              1.0439    Z=             -0.2458  Tot=              2.3037

 Test job not archived.
 1\1\GINC-SE112\SP\RHF\Aug-CC-pVDZ\C4H5N1O2\OHZDE\09-Apr-2025\0\\#t hf
 aug-cc-pvdz iop(5/13=1,5/36=2,99/5=2) pseudo=read geom=check guess=(re
 ad,tcheck) scf=(maxcycle=1)\\title\\0,1\O,0,2.57998997,-0.34238424,-0.
 57260326\C,0,1.28751248,-0.28890565,-0.60644235\C,0,0.60437105,0.31457
 319,0.54228891\C,0,-0.54786789,1.22521307,0.17404887\N,0,-0.77634112,-
 0.04026803,0.77168135\C,0,-1.41595404,-1.08296066,0.1066201\O,0,-2.413
 48693,-0.94787155,-0.54179212\H,0,1.99995174,-0.74197465,-1.51969625\H
 ,0,1.21771349,0.53266876,1.4144397\H,0,-0.78691439,1.32757343,-0.87922

 Normal termination of Gaussian 16 at Wed Apr  9 17:42:40 2025.
