 Gaussian 16, Revision C.01,

 ----------------------------------------------------------------------
 #t hf aug-cc-pvdz symm=none int=(grid=ultrafine) guess=(read,tcheck) s
 table=(opt,rrhf)
 ----------------------------------------------------------------------
 -----
 title
 -----
 Symbolic Z-matrix:
 Charge =  0 Multiplicity = 1

 SCF Done:  E(RHF) =  -284.762070143     A.U. after   14 cycles
 Normal termination of Gaussian 16 at Wed Apr  9 03:07:20 2025.
 Gaussian 16:  ES64L-G16RevC.01  3-Jul-2019

 ----------------------------------------------------------------------
 #t hf aug-cc-pvdz iop(5/13=1,5/36=2,99/5=2) pseudo=read geom=check gue
 ss=(read,tcheck) scf=(maxcycle=1)
 ----------------------------------------------------------------------
 -----
 title
 -----
 Structure from the checkpoint file:  "Grambow2020_b97d3_006561_reverse_mol2.chk"
 Charge =  0 Multiplicity = 1

                         Standard orientation:
 ---------------------------------------------------------------------
 Center     Atomic      Atomic             Coordinates (Angstroms)
 Number     Number       Type             X           Y           Z
 ---------------------------------------------------------------------
      1          8           0        2.220600   -0.020534   -0.384361
      2          6           0        1.060326   -0.013200    0.440434
      3          6           0       -0.056614    1.050289    0.130493
      4          7           0       -1.005658   -0.090571   -0.025852
      5          6           0       -2.316677   -0.042849   -0.211294
      6          6           0       -0.021285   -1.008132    0.175161
      7          1           0        1.925771   -0.372707   -1.248241
      8          1           0        1.454540    0.062998    1.465335
      9          1           0        0.082281    1.600460   -0.806655
     10          1           0       -0.363068    1.718599    0.944883
     11          1           0       -2.779016    0.921693   -0.381812
     12          1           0       -2.881697   -0.969459   -0.222629
     13          1           0       -0.158511   -2.079961    0.296209
 ---------------------------------------------------------------------

 SCF Done:  E(RHF) =  -285.056390408     A.U. after    2 cycles

 The electronic state is 1-A.
 Alpha  occ. eigenvalues --  -20.54797 -15.61550 -11.30519 -11.29680 -11.25596
 Alpha  occ. eigenvalues --  -11.24293  -1.44449  -1.32567  -1.08000  -0.95623
 Alpha  occ. eigenvalues --   -0.88232  -0.76093  -0.72551  -0.69256  -0.68702
 Alpha  occ. eigenvalues --   -0.65212  -0.57694  -0.57234  -0.55040  -0.52354
 Alpha  occ. eigenvalues --   -0.50750  -0.43462  -0.26184
 Alpha virt. eigenvalues --    0.03497   0.04168   0.04375   0.04915   0.05925
 Alpha virt. eigenvalues --    0.06020   0.06484   0.07391   0.09377   0.12469
 Alpha virt. eigenvalues --    0.13401   0.13900   0.14105   0.15683   0.15862

 Mulliken charges:
               1
     1  O   -1.314536
     2  C    1.360627
     3  C   -0.234695
     4  N    0.991228
     5  C   -0.285672
     6  C   -0.593224
     7  H    0.318472
     8  H    0.039818
     9  H    0.036514
    10  H    0.010423
    11  H   -0.084236
    12  H   -0.047387
    13  H   -0.197332
 Sum of Mulliken charges =  -0.00000

 Dipole moment (field-independent basis, Debye):
    X=             -1.6045    Y=              0.6232    Z=             -0.1299  Tot=              1.7262

 Test job not archived.
 1\1\GINC-SE159\SP\RHF\Aug-CC-pVDZ\C4H7N1O1\OHZDE\09-Apr-2025\0\\#t hf
 aug-cc-pvdz iop(5/13=1,5/36=2,99/5=2) pseudo=read geom=check guess=(re
 ad,tcheck) scf=(maxcycle=1)\\title\\0,1\O,0,-2.36393269,-0.58438692,0.
 44746061\C,0,-1.32503433,0.05624949,-0.28524234\C,0,-0.22053913,0.8288
 2299,0.525835\N,0,0.78605997,-0.05343779,-0.13375817\C,0,2.10710011,0.
 02024079,-0.06403345\C,0,-0.17853555,-0.76283433,-0.77999945\H,0,-1.94
 277429,-1.35369242,0.88108785\H,0,-1.85492854,0.69588439,-1.00753803\H
 ,0,-0.25549169,0.67337171,1.60973505\H,0,-0.05240823,1.88444175,0.2784

 Normal termination of Gaussian 16 at Wed Apr  9 03:07:24 2025.
