 Gaussian 16, Revision C.01,

 ----------------------------------------------------------------------
 #t hf aug-cc-pvdz symm=none int=(grid=ultrafine) guess=(read,tcheck) s
 table=(opt,rrhf)
 ----------------------------------------------------------------------
 -----
 title
 -----
 Symbolic Z-matrix:
 Charge =  0 Multiplicity = 1

 SCF Done:  E(RHF) =  -266.710446044     A.U. after   16 cycles
 Normal termination of Gaussian 16 at Wed Apr  9 03:05:13 2025.
 Gaussian 16:  ES64L-G16RevC.01  3-Jul-2019

 ----------------------------------------------------------------------
 #t hf aug-cc-pvdz iop(5/13=1,5/36=2,99/5=2) pseudo=read geom=check gue
 ss=(read,tcheck) scf=(maxcycle=1)
 ----------------------------------------------------------------------
 -----
 title
 -----
 Structure from the checkpoint file:  "Grambow2020_b97d3_006473_reverse_mol2.chk"
 Charge =  0 Multiplicity = 1

                         Standard orientation:
 ---------------------------------------------------------------------
 Center     Atomic      Atomic             Coordinates (Angstroms)
 Number     Number       Type             X           Y           Z
 ---------------------------------------------------------------------
      1          8           0       -1.575995   -0.742097    0.195089
      2          6           0       -1.142985    0.561755   -0.229820
      3          6           0        0.247615    1.026002   -0.022044
      4          6           0        1.083408    0.041960    0.727518
      5          8           0        1.405194   -0.542955   -0.583381
      6          1           0       -1.048135   -1.374740   -0.328571
      7          1           0       -1.459947    0.762292   -1.270376
      8          1           0       -1.710898    1.291365    0.384485
      9          1           0        1.886474    0.159104   -1.074964
     10          1           0        0.599037   -0.762234    1.296585
     11          1           0        1.971647    0.426324    1.245255
 ---------------------------------------------------------------------

 SCF Done:  E(RHF) =  -266.981854987     A.U. after    2 cycles

 The electronic state is 1-A.
 Alpha  occ. eigenvalues --  -20.59617 -20.55560 -11.30722 -11.29814 -11.28066
 Alpha  occ. eigenvalues --   -1.48002  -1.44493  -1.04257  -0.94037  -0.78014
 Alpha  occ. eigenvalues --   -0.72435  -0.68218  -0.64898  -0.61527  -0.56971
 Alpha  occ. eigenvalues --   -0.54903  -0.52418  -0.48904  -0.45031  -0.37116
 Alpha virt. eigenvalues --    0.03666   0.04052   0.04600   0.04921   0.06571
 Alpha virt. eigenvalues --    0.07692   0.08182   0.10359   0.11399   0.13068
 Alpha virt. eigenvalues --    0.14401   0.15502   0.16393   0.16485   0.17004

 Mulliken charges:
               1
     1  O   -1.143692
     2  C    0.588253
     3  C   -0.544735
     4  C    0.854340
     5  O   -1.049546
     6  H    0.361455
     7  H    0.216561
     8  H    0.196760
     9  H    0.417036
    10  H    0.051320
    11  H    0.052247
 Sum of Mulliken charges =  -0.00000

 Dipole moment (field-independent basis, Debye):
    X=              1.2191    Y=             -0.0888    Z=             -0.0157  Tot=              1.2225

 Test job not archived.
 1\1\GINC-SE228\SP\RHF\Aug-CC-pVDZ\C3H6O2\OHZDE\09-Apr-2025\0\\#t hf au
 g-cc-pvdz iop(5/13=1,5/36=2,99/5=2) pseudo=read geom=check guess=(read
 ,tcheck) scf=(maxcycle=1)\\title\\0,1\O,0,-1.71528304,-0.48378835,-0.3
 4601176\C,0,-1.06626202,0.70027391,0.14880661\C,0,0.36079768,0.6982149
 3,0.54372534\C,0,0.98943096,-0.65231783,0.44567564\O,0,1.30773227,-0.3
 0082092,-0.94689855\H,0,-1.25331586,-0.70542346,-1.17700914\H,0,-1.279
 75348,1.56801683,-0.5030207\H,0,-1.55942058,0.94283251,1.11326865\H,0,
 1.91957064,0.46654949,-0.8924398\H,0,0.35421667,-1.54561677,0.38484332

 Normal termination of Gaussian 16 at Wed Apr  9 03:05:16 2025.
