 Gaussian 16, Revision C.01,

 ----------------------------------------------------------------------
 #t hf aug-cc-pvdz symm=none int=(grid=ultrafine) guess=(read,tcheck) s
 table=(opt,rrhf)
 ----------------------------------------------------------------------
 -----
 title
 -----
 Symbolic Z-matrix:
 Charge =  0 Multiplicity = 1

 SCF Done:  E(RHF) =  -357.364699671     A.U. after   16 cycles
 Normal termination of Gaussian 16 at Wed Apr  9 03:59:22 2025.
 Gaussian 16:  ES64L-G16RevC.01  3-Jul-2019

 ----------------------------------------------------------------------
 #t hf aug-cc-pvdz iop(5/13=1,5/36=2,99/5=2) pseudo=read geom=check gue
 ss=(read,tcheck) scf=(maxcycle=1)
 ----------------------------------------------------------------------
 -----
 title
 -----
 Structure from the checkpoint file:  "Grambow2020_wb97xd3_008754_forward_mol2.chk"
 Charge =  0 Multiplicity = 1

                         Standard orientation:
 ---------------------------------------------------------------------
 Center     Atomic      Atomic             Coordinates (Angstroms)
 Number     Number       Type             X           Y           Z
 ---------------------------------------------------------------------
      1          8           0        2.542915    0.408124   -0.001404
      2          6           0        1.703489   -0.450156    0.001341
      3          6           0        0.254549   -0.153232    0.000213
      4          7           0       -0.595194   -1.144992   -0.001040
      5          8           0       -1.829577   -0.580611   -0.000420
      6          6           0       -1.705261    0.754335    0.000560
      7          6           0       -0.404246    1.103570    0.000308
      8          1           0        1.954760   -1.525759    0.005936
      9          1           0       -2.628011    1.311206    0.000423
     10          1           0        0.041722    2.082292    0.000980
 ---------------------------------------------------------------------

 SCF Done:  E(RHF) =  -357.716270264     A.U. after    2 cycles

 The electronic state is 1-A.
 Alpha  occ. eigenvalues --  -20.66072 -20.57153 -15.59604 -11.36668 -11.34071
 Alpha  occ. eigenvalues --  -11.30597 -11.26723  -1.61664  -1.50445  -1.22058
 Alpha  occ. eigenvalues --   -1.10834  -0.94906  -0.87563  -0.81497  -0.76500
 Alpha  occ. eigenvalues --   -0.70011  -0.69409  -0.65690  -0.63160  -0.60367
 Alpha  occ. eigenvalues --   -0.56680  -0.54967  -0.45146  -0.45105  -0.41137
 Alpha virt. eigenvalues --    0.02977   0.04513   0.04607   0.05232   0.08440
 Alpha virt. eigenvalues --    0.08872   0.09020   0.10069   0.11343   0.11822
 Alpha virt. eigenvalues --    0.13394   0.13725   0.14351   0.15439   0.15530

 Mulliken charges:
               1
     1  O   -1.196967
     2  C    1.271058
     3  C   -1.012790
     4  N    1.481522
     5  O   -1.523057
     6  C    0.745263
     7  C    0.372935
     8  H    0.117666
     9  H   -0.070259
    10  H   -0.185371
 Sum of Mulliken charges =  -0.00000

 Dipole moment (field-independent basis, Debye):
    X=             -1.8992    Y=              1.8214    Z=              0.0093  Tot=              2.6315

 Test job not archived.
 1\1\GINC-SE396\SP\RHF\Aug-CC-pVDZ\C4H3N1O2\OHZDE\09-Apr-2025\0\\#t hf
 aug-cc-pvdz iop(5/13=1,5/36=2,99/5=2) pseudo=read geom=check guess=(re
 ad,tcheck) scf=(maxcycle=1)\\title\\0,1\O,0,-2.39703622,0.89461359,-0.
 56096634\C,0,-1.67946794,-0.02588537,-0.8421558\C,0,-0.32001701,-0.182
 07491,-0.28082582\N,0,0.3963517,-1.21524181,-0.63442822\O,0,1.57663751
 ,-1.09605382,0.02507565\C,0,1.5544617,0.01611562,0.77349096\C,0,0.3759
 362,0.65288761,0.63134117\H,0,-1.98442936,-0.82329001,-1.54302854\H,0,
 2.44588593,0.21386691,1.34605524\H,0,0.03167749,1.5650622,1.08544168\\

 Normal termination of Gaussian 16 at Wed Apr  9 03:59:26 2025.
