 Gaussian 16, Revision C.01,

 ----------------------------------------------------------------------
 #t hf aug-cc-pvdz symm=none int=(grid=ultrafine) guess=(read,tcheck) s
 table=(opt,rrhf)
 ----------------------------------------------------------------------
 -----
 title
 -----
 Symbolic Z-matrix:
 Charge =  0 Multiplicity = 1

 SCF Done:  E(RHF) =  -307.753884596     A.U. after   14 cycles

 1\1\GINC-SE162\Stability\RHF\Aug-CC-pVDZ\C6H10O1\OHZDE\09-Apr-2025\0\\
 #t hf aug-cc-pvdz symm=none int=(grid=ultrafine) guess=(read,tcheck) s
 table=(opt,rrhf)\\title\\0,1\C,0,1.71318097,-0.48826225,-0.48203748\C,
 0,0.62841926,-0.00972949,0.48047477\C,0,0.1250414,1.40410022,0.1505149
 3\C,0,-1.1383157,1.15858638,-0.62552363\C,0,-1.55473863,-0.09932276,-0
 .5423814\C,0,-0.60743341,-0.9018497,0.28091526\O,0,-0.50525141,-2.2162
 382,0.19174238\H,0,1.3967746,-0.37038457,-1.52095532\H,0,2.62569427,0.
 09099218,-0.33433648\H,0,1.92805772,-1.54296516,-0.31511336\H,0,0.9943

 Normal termination of Gaussian 16 at Wed Apr  9 18:37:42 2025.
 Gaussian 16:  ES64L-G16RevC.01  3-Jul-2019

 ----------------------------------------------------------------------
 #t hf aug-cc-pvdz iop(5/13=1,5/36=2,99/5=2) pseudo=read geom=check gue
 ss=(read,tcheck) scf=(maxcycle=1)
 ----------------------------------------------------------------------
 -----
 title
 -----
 Structure from the checkpoint file:  "Grambow2020_wb97xd3_007824_reverse_mol1.chk"
 Charge =  0 Multiplicity = 1

                         Standard orientation:
 ---------------------------------------------------------------------
 Center     Atomic      Atomic             Coordinates (Angstroms)
 Number     Number       Type             X           Y           Z
 ---------------------------------------------------------------------
      1          6           0        0.471206    1.786312   -0.563690
      2          6           0        0.008052    0.801544    0.507689
      3          6           0       -1.494754    0.493370    0.419492
      4          6           0       -1.546316   -0.809410   -0.327964
      5          6           0       -0.358567   -1.395624   -0.418855
      6          6           0        0.683285   -0.551177    0.229766
      7          8           0        1.969045   -0.635880   -0.062902
      8          1           0        0.150287    1.465698   -1.557458
      9          1           0        0.050434    2.774014   -0.370228
     10          1           0        1.558237    1.855368   -0.568978
     11          1           0        0.303962    1.175015    1.487820
     12          1           0       -2.055889    1.281506   -0.087827
     13          1           0       -1.947019    0.372614    1.409466
     14          1           0       -2.468721   -1.215016   -0.726378
     15          1           0       -0.119195   -2.340814   -0.885314
     16          1           0        0.663890   -1.144974    1.597165
     17          1           0        1.534217   -1.086465    1.126326
 ---------------------------------------------------------------------

 SCF Done:  E(RHF) =  -308.080274400     A.U. after    2 cycles

 The electronic state is 1-A.
 Alpha  occ. eigenvalues --  -20.48954 -11.36724 -11.26867 -11.25282 -11.25174
 Alpha  occ. eigenvalues --  -11.24704 -11.22779  -1.42843  -1.16620  -1.03576
 Alpha  occ. eigenvalues --   -0.96120  -0.91115  -0.78995  -0.76347  -0.73246
 Alpha  occ. eigenvalues --   -0.67346  -0.63645  -0.60522  -0.58105  -0.56504
 Alpha  occ. eigenvalues --   -0.54536  -0.52950  -0.50830  -0.49576  -0.41000
 Alpha  occ. eigenvalues --   -0.39363  -0.36428
 Alpha virt. eigenvalues --    0.02873   0.03198   0.03719   0.04432   0.05755
 Alpha virt. eigenvalues --    0.05895   0.06397   0.06962   0.07319   0.09223
 Alpha virt. eigenvalues --    0.10073   0.12437   0.12929   0.13446   0.14097

 Mulliken charges:
               1
     1  C   -0.240499
     2  C   -0.578291
     3  C   -0.293815
     4  C    0.298191
     5  C    0.370195
     6  C    0.943729
     7  O   -1.704468
     8  H    0.230468
     9  H    0.144741
    10  H    0.163604
    11  H    0.164977
    12  H    0.166319
    13  H    0.194369
    14  H   -0.092256
    15  H   -0.081499
    16  H    0.296373
    17  H    0.017862
 Sum of Mulliken charges =  -0.00000

 Dipole moment (field-independent basis, Debye):
    X=             -3.7485    Y=              0.4772    Z=              0.9908  Tot=              3.9065

 Test job not archived.
 1\1\GINC-SE162\SP\RHF\Aug-CC-pVDZ\C6H10O1\OHZDE\09-Apr-2025\0\\#t hf a
 ug-cc-pvdz iop(5/13=1,5/36=2,99/5=2) pseudo=read geom=check guess=(rea
 d,tcheck) scf=(maxcycle=1)\\title\\0,1\C,0,1.71318097,-0.48826225,-0.4
 8203748\C,0,0.62841926,-0.00972949,0.48047477\C,0,0.1250414,1.40410022
 ,0.15051493\C,0,-1.1383157,1.15858638,-0.62552363\C,0,-1.55473863,-0.0
 9932276,-0.5423814\C,0,-0.60743341,-0.9018497,0.28091526\O,0,-0.505251
 41,-2.2162382,0.19174238\H,0,1.3967746,-0.37038457,-1.52095532\H,0,2.6
 2569427,0.09099218,-0.33433648\H,0,1.92805772,-1.54296516,-0.31511336\

 Normal termination of Gaussian 16 at Wed Apr  9 18:37:49 2025.
