 Gaussian 16, Revision C.01,

 ----------------------------------------------------------------------
 #t hf aug-cc-pvdz symm=none int=(grid=ultrafine) guess=(read,tcheck) s
 table=(opt,rrhf)
 ----------------------------------------------------------------------
 -----
 title
 -----
 Symbolic Z-matrix:
 Charge =  0 Multiplicity = 1

 SCF Done:  E(RHF) =  -316.394801744     A.U. after   19 cycles
 Normal termination of Gaussian 16 at Wed Apr  9 18:16:58 2025.
 Gaussian 16:  ES64L-G16RevC.01  3-Jul-2019

 ----------------------------------------------------------------------
 #t hf aug-cc-pvdz iop(5/13=1,5/36=2,99/5=2) pseudo=read geom=check gue
 ss=(read,tcheck) scf=(maxcycle=1)
 ----------------------------------------------------------------------
 -----
 title
 -----
 Structure from the checkpoint file:  "Grambow2020_wb97xd3_007271_reverse_mol1.chk"
 Charge =  0 Multiplicity = 1

                         Standard orientation:
 ---------------------------------------------------------------------
 Center     Atomic      Atomic             Coordinates (Angstroms)
 Number     Number       Type             X           Y           Z
 ---------------------------------------------------------------------
      1          7           0       -2.310296    0.004873   -0.493634
      2          6           0       -1.260566   -0.178436   -0.012343
      3          6           0       -0.188840   -1.138700    0.535624
      4          7           0        0.903307   -1.183244   -0.001746
      5          6           0        1.680385   -0.138322   -0.326992
      6          6           0        1.035843    1.056570   -0.080859
      7          7           0       -0.161390    1.006629    0.495967
      8          1           0        2.628505   -0.272522   -0.819419
      9          1           0        1.451174    2.005252   -0.398878
     10          1           0       -0.701955    1.862792    0.521601
 ---------------------------------------------------------------------

 SCF Done:  E(RHF) =  -316.706606475     A.U. after    2 cycles

 The electronic state is 1-A.
 Alpha  occ. eigenvalues --  -15.59622 -15.58296 -15.47202 -11.36030 -11.34360
 Alpha  occ. eigenvalues --  -11.32216 -11.31990  -1.37565  -1.26895  -1.20376
 Alpha  occ. eigenvalues --   -1.08453  -0.93483  -0.89010  -0.80875  -0.73476
 Alpha  occ. eigenvalues --   -0.69553  -0.65789  -0.62481  -0.58237  -0.56929
 Alpha  occ. eigenvalues --   -0.54142  -0.48831  -0.39961  -0.37784
 Alpha virt. eigenvalues --   -0.01529   0.02269   0.03344   0.04787   0.06077
 Alpha virt. eigenvalues --    0.08005   0.09013   0.09308   0.10176   0.10370
 Alpha virt. eigenvalues --    0.11278   0.12028   0.12564   0.13824   0.14541

 Mulliken charges:
               1
     1  N    0.881345
     2  C   -1.185997
     3  C   -0.596083
     4  N    0.866364
     5  C   -0.044234
     6  C   -0.328013
     7  N    0.490008
     8  H   -0.105719
     9  H   -0.121425
    10  H    0.143754
 Sum of Mulliken charges =  -0.00000

 Dipole moment (field-independent basis, Debye):
    X=              6.0192    Y=              2.4230    Z=              0.2976  Tot=              6.4954

 Test job not archived.
 1\1\GINC-SE232\SP\RHF\Aug-CC-pVDZ\C4H3N3\OHZDE\09-Apr-2025\0\\#t hf au
 g-cc-pvdz iop(5/13=1,5/36=2,99/5=2) pseudo=read geom=check guess=(read
 ,tcheck) scf=(maxcycle=1)\\title\\0,1\N,0,2.58362982,0.31235009,0.6169
 8609\C,0,1.63651665,-0.1371458,0.09919847\C,0,0.83414287,-1.35298434,-
 0.39970588\N,0,-0.26451226,-1.57853953,0.07528501\C,0,-1.26455296,-0.6
 9804913,0.23700252\C,0,-0.86378919,0.57779635,-0.10268857\N,0,0.360048
 63,0.73022797,-0.60025736\H,0,-2.20061788,-0.98421685,0.68568411\H,0,-
 1.49060229,1.44156284,0.08344912\H,0,0.71192562,1.6757914,-0.6895645\\

 Normal termination of Gaussian 16 at Wed Apr  9 18:17:02 2025.
