 Gaussian 16, Revision C.01,

 ----------------------------------------------------------------------
 #t hf aug-cc-pvdz symm=none int=(grid=ultrafine) guess=(read,tcheck) s
 table=(opt,rrhf)
 ----------------------------------------------------------------------
 -----
 title
 -----
 Symbolic Z-matrix:
 Charge =  0 Multiplicity = 1

 SCF Done:  E(RHF) =  -305.724996340     A.U. after   15 cycles
 Normal termination of Gaussian 16 at Wed Apr  9 03:06:23 2025.
 Gaussian 16:  ES64L-G16RevC.01  3-Jul-2019

 ----------------------------------------------------------------------
 #t hf aug-cc-pvdz iop(5/13=1,5/36=2,99/5=2) pseudo=read geom=check gue
 ss=(read,tcheck) scf=(maxcycle=1)
 ----------------------------------------------------------------------
 -----
 title
 -----
 Structure from the checkpoint file:  "Grambow2020_b97d3_006518_reverse_mol2.chk"
 Charge =  0 Multiplicity = 1

                         Standard orientation:
 ---------------------------------------------------------------------
 Center     Atomic      Atomic             Coordinates (Angstroms)
 Number     Number       Type             X           Y           Z
 ---------------------------------------------------------------------
      1          8           0       -2.270249   -0.310725    0.159298
      2          6           0       -1.161499    0.515317    0.325910
      3          6           0        1.363522    1.127829   -0.056692
      4          6           0        1.822214   -0.265626    0.479014
      5          6           0        0.711477   -1.012703   -0.230786
      6          8           0       -0.113851    0.171806   -0.620051
      7          1           0       -2.656445   -0.115347   -0.715863
      8          1           0       -1.337877    1.580210    0.126170
      9          1           0       -0.803384    0.372824    1.350477
     10          1           0        1.770925    1.196584   -1.091099
     11          1           0        2.828081   -0.592367    0.174328
     12          1           0        1.755198   -0.338673    1.575785
     13          1           0        0.091358   -1.715679    0.343326
     14          1           0        1.010653   -1.465105   -1.181774
 ---------------------------------------------------------------------

 SCF Done:  E(RHF) =  -306.038978618     A.U. after    2 cycles

 The electronic state is 1-A.
 Alpha  occ. eigenvalues --  -20.59172 -20.57617 -11.35556 -11.31243 -11.25300
 Alpha  occ. eigenvalues --  -11.23778  -1.51523  -1.45202  -1.05900  -0.93365
 Alpha  occ. eigenvalues --   -0.89224  -0.77798  -0.72802  -0.69774  -0.67057
 Alpha  occ. eigenvalues --   -0.62182  -0.60056  -0.58870  -0.54055  -0.51665
 Alpha  occ. eigenvalues --   -0.49106  -0.46888  -0.46356  -0.32708
 Alpha virt. eigenvalues --    0.03359   0.03809   0.04305   0.04785   0.06067
 Alpha virt. eigenvalues --    0.06972   0.07217   0.07762   0.10446   0.12270
 Alpha virt. eigenvalues --    0.13174   0.13621   0.14594   0.15015   0.15760

 Mulliken charges:
               1
     1  O   -1.106599
     2  C    1.281985
     3  C   -0.058682
     4  C   -0.267891
     5  C    0.467089
     6  O   -1.365773
     7  H    0.298919
     8  H    0.125131
     9  H    0.167536
    10  H    0.123492
    11  H    0.100811
    12  H    0.100792
    13  H    0.154695
    14  H   -0.021507
 Sum of Mulliken charges =  -0.00000

 Dipole moment (field-independent basis, Debye):
    X=             -0.5142    Y=             -2.1359    Z=             -1.0776  Tot=              2.4470

 Test job not archived.
 1\1\GINC-SE123\SP\RHF\Aug-CC-pVDZ\C4H8O2\OHZDE\09-Apr-2025\0\\#t hf au
 g-cc-pvdz iop(5/13=1,5/36=2,99/5=2) pseudo=read geom=check guess=(read
 ,tcheck) scf=(maxcycle=1)\\title\\0,1\O,0,-2.01617118,1.47821415,0.111
 60894\C,0,-1.50392493,0.18347133,0.08559955\C,0,0.45012132,-1.55242799
 ,0.34180953\C,0,1.34371272,-0.75152691,-0.65776453\C,0,0.93551408,0.59
 482467,-0.09528237\O,0,-0.21001601,0.12590793,0.74354581\H,0,-2.204343
 62,1.70374863,1.04271155\H,0,-2.09430936,-0.56372868,0.63162186\H,0,-1
 .40317435,-0.10314761,-0.96605997\H,0,1.0341758,-1.60001749,1.28907772

 Normal termination of Gaussian 16 at Wed Apr  9 03:06:27 2025.
