 Gaussian 16, Revision C.01,

 ----------------------------------------------------------------------
 #t hf aug-cc-pvdz symm=none int=(grid=ultrafine) guess=(read,tcheck) s
 table=(opt,rrhf)
 ----------------------------------------------------------------------
 -----
 title
 -----
 Symbolic Z-matrix:
 Charge =  0 Multiplicity = 1

 SCF Done:  E(RHF) =  -289.024690020     A.U. after   14 cycles

 1\1\GINC-SE165\Stability\RHF\Aug-CC-pVDZ\C6H13N1\OHZDE\09-Apr-2025\0\\
 #t hf aug-cc-pvdz symm=none int=(grid=ultrafine) guess=(read,tcheck) s
 table=(opt,rrhf)\\title\\0,1\C,0,-1.31252703,1.82149807,0.84626457\C,0
 ,-0.56310807,0.51636237,0.76151517\N,0,-0.60298003,-0.17123103,-0.5052
 3393\C,0,-0.87759329,-1.58741675,-0.54285959\C,0,0.82867018,0.44843152
 ,0.31142759\C,0,1.70141326,-0.61302808,0.89409886\C,0,0.65462872,0.377
 47052,-1.60438543\H,0,-2.39282649,1.65765148,0.84648929\H,0,-1.0405826
 7,2.35336032,1.7602983\H,0,-1.05634411,2.45545209,-0.00257528\H,0,-0.7

 Normal termination of Gaussian 16 at Wed Apr  9 04:05:21 2025.
 Gaussian 16:  ES64L-G16RevC.01  3-Jul-2019

 ----------------------------------------------------------------------
 #t hf aug-cc-pvdz iop(5/13=1,5/36=2,99/5=2) pseudo=read geom=check gue
 ss=(read,tcheck) scf=(maxcycle=1)
 ----------------------------------------------------------------------
 -----
 title
 -----
 Structure from the checkpoint file:  "Grambow2020_wb97xd3_009128_reverse_mol1.chk"
 Charge =  0 Multiplicity = 1

                         Standard orientation:
 ---------------------------------------------------------------------
 Center     Atomic      Atomic             Coordinates (Angstroms)
 Number     Number       Type             X           Y           Z
 ---------------------------------------------------------------------
      1          6           0        2.328089    0.134546    0.040712
      2          6           0        0.903895    0.214447   -0.446605
      3          7           0        0.000079   -0.804157    0.027306
      4          6           0       -0.874389   -1.475100   -0.904119
      5          6           0       -0.132724    0.930393    0.299774
      6          6           0       -1.228051    1.583798   -0.475600
      7          6           0       -0.729138   -0.386023    1.571389
      8          1           0        2.857402   -0.702494   -0.420898
      9          1           0        2.860275    1.057610   -0.198079
     10          1           0        2.346187    0.004240    1.122724
     11          1           0        0.814625    0.313880   -1.530822
     12          1           0       -1.556347   -2.112778   -0.333821
     13          1           0       -1.474209   -0.815723   -1.539444
     14          1           0       -0.271011   -2.116156   -1.549228
     15          1           0       -0.891775    2.609044   -0.656347
     16          1           0       -1.468040    1.157194   -1.458995
     17          1           0       -2.151187    1.649364    0.107838
     18          1           0        0.059994   -0.364312    2.312075
     19          1           0       -1.211020   -1.380429    1.588728
     20          1           0       -1.521542    0.317290    1.851822
 ---------------------------------------------------------------------

 SCF Done:  E(RHF) =  -289.339817068     A.U. after    2 cycles

 The electronic state is 1-A.
 Alpha  occ. eigenvalues --  -15.52691 -11.29015 -11.26306 -11.25505 -11.22808
 Alpha  occ. eigenvalues --  -11.22252 -11.21565  -1.26043  -1.03949  -0.99417
 Alpha  occ. eigenvalues --   -0.95645  -0.92541  -0.80941  -0.73981  -0.67595
 Alpha  occ. eigenvalues --   -0.65125  -0.63168  -0.59856  -0.57268  -0.56509
 Alpha  occ. eigenvalues --   -0.55096  -0.53979  -0.53543  -0.52558  -0.48739
 Alpha  occ. eigenvalues --   -0.48342  -0.39246  -0.29212
 Alpha virt. eigenvalues --    0.03659   0.04062   0.04154   0.04486   0.05406
 Alpha virt. eigenvalues --    0.05662   0.05845   0.06308   0.06459   0.09346
 Alpha virt. eigenvalues --    0.09450   0.10061   0.10372   0.12126   0.12733

 Mulliken charges:
               1
     1  C   -0.385389
     2  C   -0.739477
     3  N    0.818109
     4  C   -0.307677
     5  C   -0.584714
     6  C   -0.253544
     7  C   -0.196756
     8  H    0.216733
     9  H    0.224581
    10  H    0.191236
    11  H   -0.059325
    12  H    0.052742
    13  H    0.179642
    14  H    0.126392
    15  H    0.195065
    16  H    0.076033
    17  H    0.144151
    18  H    0.058618
    19  H    0.037213
    20  H    0.206367
 Sum of Mulliken charges =  -0.00000

 Dipole moment (field-independent basis, Debye):
    X=             -0.7921    Y=             -0.4671    Z=             -1.0883  Tot=              1.4248

 Test job not archived.
 1\1\GINC-SE165\SP\RHF\Aug-CC-pVDZ\C6H13N1\OHZDE\09-Apr-2025\0\\#t hf a
 ug-cc-pvdz iop(5/13=1,5/36=2,99/5=2) pseudo=read geom=check guess=(rea
 d,tcheck) scf=(maxcycle=1)\\title\\0,1\C,0,-1.31252703,1.82149807,0.84
 626457\C,0,-0.56310807,0.51636237,0.76151517\N,0,-0.60298003,-0.171231
 03,-0.50523393\C,0,-0.87759329,-1.58741675,-0.54285959\C,0,0.82867018,
 0.44843152,0.31142759\C,0,1.70141326,-0.61302808,0.89409886\C,0,0.6546
 2872,0.37747052,-1.60438543\H,0,-2.39282649,1.65765148,0.84648929\H,0,
 -1.04058267,2.35336032,1.7602983\H,0,-1.05634411,2.45545209,-0.0025752

 Normal termination of Gaussian 16 at Wed Apr  9 04:05:30 2025.
