 Gaussian 16, Revision C.01,

 ----------------------------------------------------------------------
 #t hf aug-cc-pvdz symm=none int=(grid=ultrafine) guess=(read,tcheck) s
 table=(opt,rrhf)
 ----------------------------------------------------------------------
 -----
 title
 -----
 Symbolic Z-matrix:
 Charge =  0 Multiplicity = 1

 SCF Done:  E(RHF) =  -306.565940021     A.U. after   18 cycles
 Normal termination of Gaussian 16 at Wed Apr  9 18:18:22 2025.
 Gaussian 16:  ES64L-G16RevC.01  3-Jul-2019

 ----------------------------------------------------------------------
 #t hf aug-cc-pvdz iop(5/13=1,5/36=2,99/5=2) pseudo=read geom=check gue
 ss=(read,tcheck) scf=(maxcycle=1)
 ----------------------------------------------------------------------
 -----
 title
 -----
 Structure from the checkpoint file:  "Grambow2020_wb97xd3_007298_forward_mol1.chk"
 Charge =  0 Multiplicity = 1

                         Standard orientation:
 ---------------------------------------------------------------------
 Center     Atomic      Atomic             Coordinates (Angstroms)
 Number     Number       Type             X           Y           Z
 ---------------------------------------------------------------------
      1          6           0       -2.798202   -0.473780    0.316994
      2          6           0       -1.407613   -0.815312   -0.189641
      3          6           0       -0.472707    0.381420   -0.195459
      4          8           0       -0.828186    1.503766    0.109161
      5          6           0        0.863972    0.114114   -0.643465
      6          6           0        2.023969    0.015700   -0.109159
      7          6           0        3.261987   -0.445199    0.270336
      8          1           0       -2.762405   -0.092386    1.337542
      9          1           0       -3.436257   -1.358435    0.299875
     10          1           0       -3.257760    0.296907   -0.301352
     11          1           0       -1.444825   -1.209877   -1.209420
     12          1           0       -0.943605   -1.601656    0.415541
     13          1           0        4.022320    0.251670    0.597393
     14          1           0        2.149742    0.528863    0.931329
     15          1           0        3.469829   -1.506870    0.358165
 ---------------------------------------------------------------------

 SCF Done:  E(RHF) =  -306.883254493     A.U. after    2 cycles

 The electronic state is 1-A.
 Alpha  occ. eigenvalues --  -20.51299 -11.33751 -11.32689 -11.28603 -11.25959
 Alpha  occ. eigenvalues --  -11.24366 -11.22277  -1.45204  -1.13546  -1.06257
 Alpha  occ. eigenvalues --   -0.99873  -0.90022  -0.80706  -0.73947  -0.68805
 Alpha  occ. eigenvalues --   -0.66848  -0.63648  -0.62101  -0.58437  -0.54080
 Alpha  occ. eigenvalues --   -0.52292  -0.51962  -0.48697  -0.42265  -0.40805
 Alpha  occ. eigenvalues --   -0.32261
 Alpha virt. eigenvalues --    0.01502   0.03440   0.03544   0.04175   0.04755
 Alpha virt. eigenvalues --    0.05736   0.06003   0.07588   0.08194   0.09413
 Alpha virt. eigenvalues --    0.11006   0.11524   0.12335   0.13129   0.13919

 Mulliken charges:
               1
     1  C   -0.275467
     2  C   -0.663995
     3  C    1.118398
     4  O   -1.388295
     5  C   -0.309487
     6  C    0.229894
     7  C    0.095386
     8  H    0.172748
     9  H    0.133184
    10  H    0.172636
    11  H    0.247076
    12  H    0.218167
    13  H   -0.051733
    14  H    0.341109
    15  H   -0.039622
 Sum of Mulliken charges =  -0.00000

 Dipole moment (field-independent basis, Debye):
    X=              3.1182    Y=             -3.3811    Z=              1.6332  Tot=              4.8808

 Test job not archived.
 1\1\GINC-SE113\SP\RHF\Aug-CC-pVDZ\C6H8O1\OHZDE\09-Apr-2025\0\\#t hf au
 g-cc-pvdz iop(5/13=1,5/36=2,99/5=2) pseudo=read geom=check guess=(read
 ,tcheck) scf=(maxcycle=1)\\title\\0,1\C,0,-2.64628226,-0.33680059,0.61
 116298\C,0,-1.38127776,-0.21376987,-0.22051598\C,0,-0.35336821,0.71288
 711,0.40475064\O,0,-0.55791479,1.33887007,1.42706442\C,0,0.87379203,0.
 85085761,-0.32594354\C,0,2.08586992,0.45782927,-0.1949593\C,0,3.319511
 1,-0.10103973,-0.42932542\H,0,-2.42731491,-0.72790792,1.60481735\H,0,-
 3.35701142,-1.00598904,0.12426212\H,0,-3.1201033,0.63569118,0.74252912

 Normal termination of Gaussian 16 at Wed Apr  9 18:18:27 2025.
