 Gaussian 16, Revision C.01,

 ----------------------------------------------------------------------
 #t hf aug-cc-pvdz symm=none int=(grid=ultrafine) guess=(read,tcheck) s
 table=(opt,rrhf)
 ----------------------------------------------------------------------
 -----
 title
 -----
 Symbolic Z-matrix:
 Charge =  0 Multiplicity = 1

 SCF Done:  E(RHF) =  -307.684107770     A.U. after   15 cycles

 1\1\GINC-SE220\Stability\RHF\Aug-CC-pVDZ\C6H10O1\OHZDE\09-Apr-2025\0\\
 #t hf aug-cc-pvdz symm=none int=(grid=ultrafine) guess=(read,tcheck) s
 table=(opt,rrhf)\\title\\0,1\C,0,-2.11791153,-0.4861185,0.21992125\C,0
 ,-0.74846733,-0.04858577,-0.14177209\O,0,-0.54159729,1.23337141,-0.124
 87749\C,0,0.88666734,1.49804306,-0.29533035\C,0,1.54979767,0.15055212,
 -0.19237514\C,0,1.33946252,-0.57614913,1.09499025\C,0,0.45889999,-0.89
 870427,-0.10110379\H,0,-2.87699734,0.15032605,-0.22928947\H,0,-2.19385
 835,-0.40603387,1.30978934\H,0,-2.2627198,-1.52464888,-0.06291204\H,0,

 Normal termination of Gaussian 16 at Wed Apr  9 17:58:20 2025.
 Gaussian 16:  ES64L-G16RevC.01  3-Jul-2019

 ----------------------------------------------------------------------
 #t hf aug-cc-pvdz iop(5/13=1,5/36=2,99/5=2) pseudo=read geom=check gue
 ss=(read,tcheck) scf=(maxcycle=1)
 ----------------------------------------------------------------------
 -----
 title
 -----
 Structure from the checkpoint file:  "Grambow2020_wb97xd3_006904_forward_mol1.chk"
 Charge =  0 Multiplicity = 1

                         Standard orientation:
 ---------------------------------------------------------------------
 Center     Atomic      Atomic             Coordinates (Angstroms)
 Number     Number       Type             X           Y           Z
 ---------------------------------------------------------------------
      1          6           0        2.237481   -0.303670   -0.197335
      2          6           0        0.831141    0.020743    0.141191
      3          8           0        0.399862    1.171787   -0.277844
      4          6           0       -1.042850    1.261282   -0.055093
      5          6           0       -1.460932   -0.122451    0.365102
      6          6           0       -1.187194   -1.207894   -0.623092
      7          6           0       -0.207058   -0.962368    0.512304
      8          1           0        2.892471    0.554898   -0.067291
      9          1           0        2.245658   -0.593624   -1.253675
     10          1           0        2.577386   -1.146819    0.396865
     11          1           0        1.135069    0.030823    1.948523
     12          1           0       -1.191926    2.010101    0.723381
     13          1           0       -1.461548    1.618299   -0.996605
     14          1           0       -2.269233   -0.199082    1.081534
     15          1           0       -0.955389   -0.915081   -1.645057
     16          1           0       -1.763592   -2.121195   -0.549703
     17          1           0        0.568684   -0.726465    1.726322
 ---------------------------------------------------------------------

 SCF Done:  E(RHF) =  -308.010002024     A.U. after    2 cycles

 The electronic state is 1-A.
 Alpha  occ. eigenvalues --  -20.62371 -11.39040 -11.31180 -11.25944 -11.23659
 Alpha  occ. eigenvalues --  -11.23360 -11.19658  -1.56704  -1.15688  -1.08305
 Alpha  occ. eigenvalues --   -0.96917  -0.89963  -0.81690  -0.76278  -0.72423
 Alpha  occ. eigenvalues --   -0.69114  -0.65140  -0.62312  -0.60140  -0.58534
 Alpha  occ. eigenvalues --   -0.57498  -0.54601  -0.51791  -0.47740  -0.44649
 Alpha  occ. eigenvalues --   -0.39417  -0.29412
 Alpha virt. eigenvalues --    0.03361   0.03449   0.03978   0.04451   0.05669
 Alpha virt. eigenvalues --    0.06194   0.06395   0.06891   0.07897   0.10154
 Alpha virt. eigenvalues --    0.10768   0.11590   0.11892   0.12533   0.13633

 Mulliken charges:
               1
     1  C   -0.362615
     2  C    0.660584
     3  O   -1.480865
     4  C    0.476212
     5  C    0.146316
     6  C    0.224595
     7  C   -0.392565
     8  H    0.174846
     9  H    0.307780
    10  H    0.211466
    11  H    0.028246
    12  H    0.091084
    13  H    0.086132
    14  H   -0.166757
    15  H   -0.128101
    16  H   -0.151271
    17  H    0.274915
 Sum of Mulliken charges =  -0.00000

 Dipole moment (field-independent basis, Debye):
    X=              0.0282    Y=              1.6215    Z=             -2.2522  Tot=              2.7754

 Test job not archived.
 1\1\GINC-SE220\SP\RHF\Aug-CC-pVDZ\C6H10O1\OHZDE\09-Apr-2025\0\\#t hf a
 ug-cc-pvdz iop(5/13=1,5/36=2,99/5=2) pseudo=read geom=check guess=(rea
 d,tcheck) scf=(maxcycle=1)\\title\\0,1\C,0,-2.11791153,-0.4861185,0.21
 992125\C,0,-0.74846733,-0.04858577,-0.14177209\O,0,-0.54159729,1.23337
 141,-0.12487749\C,0,0.88666734,1.49804306,-0.29533035\C,0,1.54979767,0
 .15055212,-0.19237514\C,0,1.33946252,-0.57614913,1.09499025\C,0,0.4588
 9999,-0.89870427,-0.10110379\H,0,-2.87699734,0.15032605,-0.22928947\H,
 0,-2.19385835,-0.40603387,1.30978934\H,0,-2.2627198,-1.52464888,-0.062

 Normal termination of Gaussian 16 at Wed Apr  9 17:58:27 2025.
