 Gaussian 16, Revision C.01,

 ----------------------------------------------------------------------
 #t hf aug-cc-pvdz symm=none int=(grid=ultrafine) guess=(read,tcheck) s
 table=(opt,rrhf)
 ----------------------------------------------------------------------
 -----
 title
 -----
 Symbolic Z-matrix:
 Charge =  0 Multiplicity = 1

 SCF Done:  E(RHF) =  -358.367804723     A.U. after   17 cycles
 Normal termination of Gaussian 16 at Wed Apr  9 17:43:35 2025.
 Gaussian 16:  ES64L-G16RevC.01  3-Jul-2019

 ----------------------------------------------------------------------
 #t hf aug-cc-pvdz iop(5/13=1,5/36=2,99/5=2) pseudo=read geom=check gue
 ss=(read,tcheck) scf=(maxcycle=1)
 ----------------------------------------------------------------------
 -----
 title
 -----
 Structure from the checkpoint file:  "Grambow2020_wb97xd3_006795_reverse_mol1.chk"
 Charge =  0 Multiplicity = 1

                         Standard orientation:
 ---------------------------------------------------------------------
 Center     Atomic      Atomic             Coordinates (Angstroms)
 Number     Number       Type             X           Y           Z
 ---------------------------------------------------------------------
      1          8           0        1.695424   -0.725913   -0.534973
      2          6           0        1.208130   -0.158397    0.519710
      3          6           0        0.007708   -0.950319    0.192358
      4          6           0       -2.095390   -0.481790    0.251787
      5          7           0       -0.897452   -0.112381   -0.436445
      6          6           0       -0.461156    1.130975   -0.349786
      7          8           0        0.676795    1.284677    0.239054
      8          1           0        1.760592   -0.051926    1.453863
      9          1           0       -0.101585   -2.015909    0.213896
     10          1           0       -2.419186    0.210188    1.015872
     11          1           0       -2.822258   -1.048876   -0.313911
     12          1           0       -1.068906    1.980262   -0.631662
 ---------------------------------------------------------------------

 SCF Done:  E(RHF) =  -358.729342898     A.U. after    2 cycles

 The electronic state is 1-A.
 Alpha  occ. eigenvalues --  -20.63409 -20.52750 -15.59303 -11.41965 -11.39083
 Alpha  occ. eigenvalues --  -11.38057 -11.24257  -1.58545  -1.45543  -1.34404
 Alpha  occ. eigenvalues --   -1.04338  -0.97553  -0.90921  -0.86011  -0.77750
 Alpha  occ. eigenvalues --   -0.72237  -0.70270  -0.67928  -0.65316  -0.62150
 Alpha  occ. eigenvalues --   -0.61130  -0.56026  -0.51998  -0.44386  -0.41082
 Alpha  occ. eigenvalues --   -0.28674
 Alpha virt. eigenvalues --    0.03060   0.03876   0.04499   0.04843   0.05394
 Alpha virt. eigenvalues --    0.06409   0.08165   0.08984   0.10112   0.11071
 Alpha virt. eigenvalues --    0.12102   0.13197   0.13874   0.14459   0.15280

 Mulliken charges:
               1
     1  O   -1.284584
     2  C    1.963240
     3  C   -0.442719
     4  C   -0.117956
     5  N    0.924085
     6  C    0.417427
     7  O   -1.258842
     8  H    0.133733
     9  H   -0.179070
    10  H   -0.105268
    11  H   -0.093560
    12  H    0.043515
 Sum of Mulliken charges =  -0.00000

 Dipole moment (field-independent basis, Debye):
    X=             -1.0522    Y=              1.8049    Z=              1.1952  Tot=              2.4069

 Test job not archived.
 1\1\GINC-SE340\SP\RHF\Aug-CC-pVDZ\C4H5N1O2\OHZDE\09-Apr-2025\0\\#t hf
 aug-cc-pvdz iop(5/13=1,5/36=2,99/5=2) pseudo=read geom=check guess=(re
 ad,tcheck) scf=(maxcycle=1)\\title\\0,1\O,0,1.8879622,-1.01916508,0.28
 523046\C,0,1.16099067,-0.70471529,-0.73678736\C,0,0.77554735,0.4488439
 8,0.09750854\C,0,-1.11434514,1.43372968,0.42058664\N,0,-0.46537735,0.1
 8009074,0.64952809\C,0,-0.95519377,-0.91131073,0.09031463\O,0,-0.19295
 337,-1.48485593,-0.77877929\H,0,1.51833648,-0.75411591,-1.76589123\H,0
 ,1.39561169,1.25957873,0.42326838\H,0,-1.80403172,1.44980827,-0.411023

 Normal termination of Gaussian 16 at Wed Apr  9 17:43:39 2025.
