 Gaussian 16, Revision C.01,

 ----------------------------------------------------------------------
 #t hf aug-cc-pvdz symm=none int=(grid=ultrafine) guess=(read,tcheck) s
 table=(opt,rrhf)
 ----------------------------------------------------------------------
 -----
 title
 -----
 Symbolic Z-matrix:
 Charge =  0 Multiplicity = 1

 SCF Done:  E(RHF) =  -374.592908425     A.U. after   14 cycles
 Normal termination of Gaussian 16 at Wed Apr  9 19:08:39 2025.
 Gaussian 16:  ES64L-G16RevC.01  3-Jul-2019

 ----------------------------------------------------------------------
 #t hf aug-cc-pvdz iop(5/13=1,5/36=2,99/5=2) pseudo=read geom=check gue
 ss=(read,tcheck) scf=(maxcycle=1)
 ----------------------------------------------------------------------
 -----
 title
 -----
 Structure from the checkpoint file:  "Grambow2020_wb97xd3_008641_forward_mol2.chk"
 Charge =  0 Multiplicity = 1

                         Standard orientation:
 ---------------------------------------------------------------------
 Center     Atomic      Atomic             Coordinates (Angstroms)
 Number     Number       Type             X           Y           Z
 ---------------------------------------------------------------------
      1          6           0        1.940992   -0.691541    0.000705
      2          7           0        0.530506   -0.406762   -0.001120
      3          7           0       -0.410925   -1.402397   -0.000600
      4          6           0       -1.517300   -0.771407    0.000520
      5          8           0       -1.398373    0.570648    0.000334
      6          6           0       -0.035213    0.829473   -0.000240
      7          8           0        0.453833    1.919694   -0.000044
      8          1           0        2.213917   -1.256198    0.892280
      9          1           0        2.215402   -1.259343   -0.888382
     10          1           0        2.462144    0.263705   -0.000947
     11          1           0       -2.503091   -1.205942    0.000868
 ---------------------------------------------------------------------

 SCF Done:  E(RHF) =  -374.965601742     A.U. after    2 cycles

 The electronic state is 1-A.
 Alpha  occ. eigenvalues --  -20.64170 -20.53360 -15.58819 -15.56986 -11.42902
 Alpha  occ. eigenvalues --  -11.36853 -11.29212  -1.61139  -1.48432  -1.37111
 Alpha  occ. eigenvalues --   -1.18591  -1.02200  -0.93134  -0.87285  -0.76823
 Alpha  occ. eigenvalues --   -0.74651  -0.68945  -0.66491  -0.65088  -0.63533
 Alpha  occ. eigenvalues --   -0.58770  -0.57064  -0.55425  -0.53244  -0.46837
 Alpha  occ. eigenvalues --   -0.39350
 Alpha virt. eigenvalues --    0.03015   0.04471   0.05330   0.06090   0.07765
 Alpha virt. eigenvalues --    0.07777   0.08535   0.10859   0.10930   0.13585
 Alpha virt. eigenvalues --    0.13754   0.14415   0.15087   0.15390   0.17117

 Mulliken charges:
               1
     1  C   -0.127082
     2  N    0.171620
     3  N    0.128094
     4  C    0.476271
     5  O   -1.188043
     6  C    1.184314
     7  O   -1.075453
     8  H    0.185888
     9  H    0.185580
    10  H    0.045356
    11  H    0.013454
 Sum of Mulliken charges =  -0.00000

 Dipole moment (field-independent basis, Debye):
    X=             -0.6882    Y=             -2.5407    Z=              0.0033  Tot=              2.6322

 Test job not archived.
 1\1\GINC-SE212\SP\RHF\Aug-CC-pVDZ\C3H4N2O2\OHZDE\09-Apr-2025\0\\#t hf
 aug-cc-pvdz iop(5/13=1,5/36=2,99/5=2) pseudo=read geom=check guess=(re
 ad,tcheck) scf=(maxcycle=1)\\title\\0,1\C,0,-1.59933327,-0.29438417,-0
 .05391743\N,0,-0.17620625,-0.08340811,-0.02612104\N,0,0.70690211,-1.03
 161263,-0.47177534\C,0,1.84601093,-0.49051541,-0.29328492\O,0,1.802863
 42,0.74701796,0.23766167\C,0,0.4576202,1.03300996,0.42130693\O,0,0.031
 07957,2.05237818,0.87594895\H,0,-1.94038155,-0.45361874,-1.07693417\H,
 0,-1.8680756,-1.15552385,0.55795775\H,0,-2.0654156,0.60135108,0.351695

 Normal termination of Gaussian 16 at Wed Apr  9 19:08:43 2025.
