 Gaussian 16, Revision C.01,

 ----------------------------------------------------------------------
 #t hf aug-cc-pvdz symm=none int=(grid=ultrafine) guess=(read,tcheck) s
 table=(opt,rrhf)
 ----------------------------------------------------------------------
 -----
 title
 -----
 Symbolic Z-matrix:
 Charge =  0 Multiplicity = 1

 SCF Done:  E(RHF) =  -379.493661550     A.U. after   14 cycles
 Normal termination of Gaussian 16 at Wed Apr  9 19:04:50 2025.
 Gaussian 16:  ES64L-G16RevC.01  3-Jul-2019

 ----------------------------------------------------------------------
 #t hf aug-cc-pvdz iop(5/13=1,5/36=2,99/5=2) pseudo=read geom=check gue
 ss=(read,tcheck) scf=(maxcycle=1)
 ----------------------------------------------------------------------
 -----
 title
 -----
 Structure from the checkpoint file:  "Grambow2020_wb97xd3_008537_reverse_mol2.chk"
 Charge =  0 Multiplicity = 1

                         Standard orientation:
 ---------------------------------------------------------------------
 Center     Atomic      Atomic             Coordinates (Angstroms)
 Number     Number       Type             X           Y           Z
 ---------------------------------------------------------------------
      1          8           0       -0.216859    1.460684   -0.133306
      2          6           0        0.676087    0.464493   -0.123603
      3          6           0        2.054003    0.395246    0.462289
      4          8           0        2.126862   -0.973534   -0.025295
      5          6           0        0.829322   -0.793636   -0.536126
      6          6           0       -2.542689   -0.576984    0.622106
      7          8           0       -2.563542   -0.017364   -0.441868
      8          1           0       -1.063105    1.120267   -0.470530
      9          1           0        2.126712    0.431515    1.550251
     10          1           0        2.817554    1.019619   -0.002925
     11          1           0        0.314291   -1.570862   -1.079247
     12          1           0       -3.312050   -1.320221    0.890163
     13          1           0       -1.755432   -0.373319    1.368046
 ---------------------------------------------------------------------

 SCF Done:  E(RHF) =  -379.873404620     A.U. after    2 cycles

 The electronic state is 1-A.
 Alpha  occ. eigenvalues --  -20.59344 -20.57446 -20.54860 -11.37835 -11.29567
 Alpha  occ. eigenvalues --  -11.29497 -11.27895  -1.52476  -1.49627  -1.47621
 Alpha  occ. eigenvalues --   -1.02903  -0.93378  -0.90134  -0.78412  -0.73269
 Alpha  occ. eigenvalues --   -0.72499  -0.68636  -0.67100  -0.66524  -0.57873
 Alpha  occ. eigenvalues --   -0.56829  -0.55951  -0.52069  -0.50164  -0.48295
 Alpha  occ. eigenvalues --   -0.46108  -0.31725
 Alpha virt. eigenvalues --    0.02784   0.04113   0.04658   0.05240   0.05906
 Alpha virt. eigenvalues --    0.07028   0.07226   0.09880   0.10876   0.11634
 Alpha virt. eigenvalues --    0.12813   0.12903   0.14301   0.15180   0.15712

 Mulliken charges:
               1
     1  O   -1.550849
     2  C    0.970367
     3  C    0.354938
     4  O   -1.290965
     5  C    0.833501
     6  C    0.617962
     7  O   -0.877151
     8  H    0.547299
     9  H    0.116055
    10  H    0.125896
    11  H   -0.104879
    12  H    0.078123
    13  H    0.179703
 Sum of Mulliken charges =  -0.00000

 Dipole moment (field-independent basis, Debye):
    X=             -2.4083    Y=             -0.9016    Z=              2.0671  Tot=              3.2994

 Test job not archived.
 1\1\GINC-SE118\SP\RHF\Aug-CC-pVDZ\C4H6O3\OHZDE\09-Apr-2025\0\\#t hf au
 g-cc-pvdz iop(5/13=1,5/36=2,99/5=2) pseudo=read geom=check guess=(read
 ,tcheck) scf=(maxcycle=1)\\title\\0,1\O,0,1.07359634,-0.43075259,-1.04
 605835\C,0,-0.2304365,-0.18533081,-0.87544664\C,0,-1.43417316,-0.97943
 729,-1.28426033\O,0,-2.25093499,0.05869932,-0.67452492\C,0,-1.05387237
 ,0.71802105,-0.34398323\C,0,1.65995994,0.43306452,1.96097039\O,0,2.113
 33467,1.08177881,1.05583336\H,0,1.58476308,0.21689303,-0.5312779\H,0,-
 1.58007984,-1.93972746,-0.78745213\H,0,-1.63119262,-1.05727796,-2.3540

 Normal termination of Gaussian 16 at Wed Apr  9 19:04:54 2025.
