 Gaussian 16, Revision C.01,

 ----------------------------------------------------------------------
 #t hf aug-cc-pvdz symm=none int=(grid=ultrafine) guess=(read,tcheck) s
 table=(opt,rrhf)
 ----------------------------------------------------------------------
 -----
 title
 -----
 Symbolic Z-matrix:
 Charge =  0 Multiplicity = 1

 SCF Done:  E(RHF) =  -306.553368670     A.U. after   17 cycles
 Normal termination of Gaussian 16 at Wed Apr  9 18:18:23 2025.
 Gaussian 16:  ES64L-G16RevC.01  3-Jul-2019

 ----------------------------------------------------------------------
 #t hf aug-cc-pvdz iop(5/13=1,5/36=2,99/5=2) pseudo=read geom=check gue
 ss=(read,tcheck) scf=(maxcycle=1)
 ----------------------------------------------------------------------
 -----
 title
 -----
 Structure from the checkpoint file:  "Grambow2020_wb97xd3_007301_reverse_mol1.chk"
 Charge =  0 Multiplicity = 1

                         Standard orientation:
 ---------------------------------------------------------------------
 Center     Atomic      Atomic             Coordinates (Angstroms)
 Number     Number       Type             X           Y           Z
 ---------------------------------------------------------------------
      1          6           0       -0.285116    1.566430    0.082611
      2          6           0       -1.649154    0.922624    0.034828
      3          6           0       -1.140672   -0.524278   -0.059464
      4          8           0       -1.716504   -1.552910    0.110579
      5          6           0        0.309618   -0.231896   -0.267310
      6          6           0        1.479495   -0.845845   -0.034215
      7          6           0        2.717848   -0.053757    0.089994
      8          1           0        0.386483    0.627071   -1.017644
      9          1           0        0.133067    1.764052    1.062877
     10          1           0       -0.076197    2.378007   -0.610986
     11          1           0       -2.242096    1.201053   -0.837049
     12          1           0       -2.250142    1.067200    0.931830
     13          1           0        3.005510   -0.098542    1.147014
     14          1           0        3.542773   -0.524674   -0.447370
     15          1           0        2.640517    1.009441   -0.191966
 ---------------------------------------------------------------------

 SCF Done:  E(RHF) =  -306.869920470     A.U. after    2 cycles

 The electronic state is 1-A.
 Alpha  occ. eigenvalues --  -20.53692 -11.34774 -11.31865 -11.26914 -11.26445
 Alpha  occ. eigenvalues --  -11.24542 -11.24398  -1.47959  -1.16080  -1.05976
 Alpha  occ. eigenvalues --   -0.95692  -0.91018  -0.82503  -0.71977  -0.68317
 Alpha  occ. eigenvalues --   -0.66254  -0.63982  -0.59041  -0.58408  -0.57780
 Alpha  occ. eigenvalues --   -0.57433  -0.55524  -0.52031  -0.41232  -0.40076
 Alpha  occ. eigenvalues --   -0.32285
 Alpha virt. eigenvalues --    0.02016   0.03149   0.03363   0.04571   0.05565
 Alpha virt. eigenvalues --    0.05676   0.06518   0.07380   0.07735   0.09833
 Alpha virt. eigenvalues --    0.10475   0.11459   0.12180   0.13289   0.13595

 Mulliken charges:
               1
     1  C   -0.042797
     2  C   -0.387789
     3  C    1.122956
     4  O   -1.294283
     5  C    0.549514
     6  C   -0.959504
     7  C   -0.560718
     8  H    0.626400
     9  H    0.060995
    10  H   -0.003039
    11  H    0.207875
    12  H    0.150806
    13  H    0.271926
    14  H    0.203633
    15  H    0.054023
 Sum of Mulliken charges =  -0.00000

 Dipole moment (field-independent basis, Debye):
    X=              0.7181    Y=              6.2723    Z=             -0.3803  Tot=              6.3248

 Test job not archived.
 1\1\GINC-SE117\SP\RHF\Aug-CC-pVDZ\C6H8O1\OHZDE\09-Apr-2025\0\\#t hf au
 g-cc-pvdz iop(5/13=1,5/36=2,99/5=2) pseudo=read geom=check guess=(read
 ,tcheck) scf=(maxcycle=1)\\title\\0,1\C,0,-0.97912183,-0.49465606,-0.5
 0768524\C,0,-1.83388354,0.70421185,-0.17682584\C,0,-0.75989467,1.44924
 66,0.63091127\O,0,-0.71310467,2.58723646,0.97929539\C,0,0.25803766,0.3
 5774324,0.69771076\C,0,1.5903343,0.26234141,0.82326078\C,0,2.29253293,
 -0.94568682,0.35004342\H,0,-0.29299022,-0.61721766,0.92695822\H,0,-0.4
 4124454,-0.47252312,-1.44845709\H,0,-1.3812951,-1.48417128,-0.30153823

 Normal termination of Gaussian 16 at Wed Apr  9 18:18:28 2025.
