 Gaussian 16, Revision C.01,

 ----------------------------------------------------------------------
 #t hf aug-cc-pvdz symm=none int=(grid=ultrafine) guess=(read,tcheck) s
 table=(opt,rrhf)
 ----------------------------------------------------------------------
 -----
 title
 -----
 Symbolic Z-matrix:
 Charge =  0 Multiplicity = 1

 SCF Done:  E(RHF) =  -338.539293576     A.U. after   19 cycles
 Normal termination of Gaussian 16 at Wed Apr  9 19:05:53 2025.
 Gaussian 16:  ES64L-G16RevC.01  3-Jul-2019

 ----------------------------------------------------------------------
 #t hf aug-cc-pvdz iop(5/13=1,5/36=2,99/5=2) pseudo=read geom=check gue
 ss=(read,tcheck) scf=(maxcycle=1)
 ----------------------------------------------------------------------
 -----
 title
 -----
 Structure from the checkpoint file:  "Grambow2020_wb97xd3_008564_forward_mol1.chk"
 Charge =  0 Multiplicity = 1

                         Standard orientation:
 ---------------------------------------------------------------------
 Center     Atomic      Atomic             Coordinates (Angstroms)
 Number     Number       Type             X           Y           Z
 ---------------------------------------------------------------------
      1          7           0        2.403103    1.095793   -0.094042
      2          6           0        2.351790   -0.149452   -0.033501
      3          8           0        1.164955   -0.832010    0.067302
      4          6           0        0.021310   -0.148265    0.176737
      5          6           0       -1.211271   -0.859000   -0.161491
      6          6           0       -2.191519    0.268562    0.207297
      7          7           0       -3.195718    0.737768   -0.217379
      8          1           0        3.358575    1.427137   -0.156189
      9          1           0        3.168484   -0.868573   -0.041603
     10          1           0        0.108638    0.926138    0.117012
     11          1           0       -1.521859    0.610669    1.166587
     12          1           0       -1.197227   -1.337543   -1.152304
     13          1           0       -1.509814   -1.607745    0.573775
 ---------------------------------------------------------------------

 SCF Done:  E(RHF) =  -338.877288928     A.U. after    2 cycles

 The electronic state is 1-A.
 Alpha  occ. eigenvalues --  -20.67234 -15.54539 -15.46102 -11.40595 -11.40342
 Alpha  occ. eigenvalues --  -11.28906 -11.25689  -1.61219  -1.27595  -1.18852
 Alpha  occ. eigenvalues --   -1.10452  -0.96929  -0.86939  -0.79860  -0.78125
 Alpha  occ. eigenvalues --   -0.72929  -0.69572  -0.66340  -0.61668  -0.59090
 Alpha  occ. eigenvalues --   -0.56286  -0.54616  -0.53045  -0.51450  -0.44642
 Alpha  occ. eigenvalues --   -0.28838
 Alpha virt. eigenvalues --   -0.01490   0.01588   0.03543   0.04426   0.04639
 Alpha virt. eigenvalues --    0.06233   0.07596   0.08084   0.08754   0.10018
 Alpha virt. eigenvalues --    0.11423   0.12408   0.12657   0.13498   0.14262

 Mulliken charges:
               1
     1  N    0.610887
     2  C    0.036526
     3  O   -1.303415
     4  C    1.019270
     5  C   -0.562291
     6  C   -1.523833
     7  N    0.876516
     8  H    0.090810
     9  H   -0.001464
    10  H    0.066013
    11  H    0.208584
    12  H    0.094506
    13  H    0.387892
 Sum of Mulliken charges =  -0.00000

 Dipole moment (field-independent basis, Debye):
    X=              9.9894    Y=             -3.8884    Z=              0.5033  Tot=             10.7313

 Test job not archived.
 1\1\GINC-SE116\SP\RHF\Aug-CC-pVDZ\C4H6N2O1\OHZDE\09-Apr-2025\0\\#t hf
 aug-cc-pvdz iop(5/13=1,5/36=2,99/5=2) pseudo=read geom=check guess=(re
 ad,tcheck) scf=(maxcycle=1)\\title\\0,1\N,0,-2.29784218,0.55198311,-0.
 91526369\C,0,-2.18995119,0.13097758,0.25437191\O,0,-0.97946523,-0.2136
 2131,0.80264217\C,0,0.12129011,-0.16860908,0.04519886\C,0,1.40462953,-
 0.1035469,0.74348499\C,0,2.30568675,-0.17093033,-0.50224461\N,0,3.3092
 7196,0.32849441,-0.89251699\H,0,-3.26291125,0.74799973,-1.15358403\H,0
 ,-2.96896742,-0.0350537,0.99582782\H,0,-0.01428721,0.20362554,-0.95908

 Normal termination of Gaussian 16 at Wed Apr  9 19:05:57 2025.
