 Gaussian 16, Revision C.01,

 ----------------------------------------------------------------------
 #t hf aug-cc-pvdz symm=none int=(grid=ultrafine) guess=(read,tcheck) s
 table=(opt,rrhf)
 ----------------------------------------------------------------------
 -----
 title
 -----
 Symbolic Z-matrix:
 Charge =  0 Multiplicity = 1

 SCF Done:  E(RHF) =  -284.721853681     A.U. after   17 cycles
 Normal termination of Gaussian 16 at Wed Apr  9 16:23:57 2025.
 Gaussian 16:  ES64L-G16RevC.01  3-Jul-2019

 ----------------------------------------------------------------------
 #t hf aug-cc-pvdz iop(5/13=1,5/36=2,99/5=2) pseudo=read geom=check gue
 ss=(read,tcheck) scf=(maxcycle=1)
 ----------------------------------------------------------------------
 -----
 title
 -----
 Structure from the checkpoint file:  "Grambow2020_b97d3_007210_forward_mol1.chk"
 Charge =  0 Multiplicity = 1

                         Standard orientation:
 ---------------------------------------------------------------------
 Center     Atomic      Atomic             Coordinates (Angstroms)
 Number     Number       Type             X           Y           Z
 ---------------------------------------------------------------------
      1          6           0        2.562125   -0.418213    0.044718
      2          6           0        1.042587   -0.445181   -0.028693
      3          8           0        0.570535    0.929792   -0.171674
      4          6           0       -1.238822    1.134084    0.184580
      5          6           0       -1.847856   -0.119395    0.005355
      6          7           0       -2.350228   -1.190105   -0.022510
      7          1           0        2.905823    0.119550    0.937990
      8          1           0        2.939599   -1.449408    0.094435
      9          1           0        2.988534    0.064289   -0.843743
     10          1           0        0.600023   -0.898418    0.868482
     11          1           0        0.682488   -0.993926   -0.906710
     12          1           0       -1.451655    1.867120   -0.597794
     13          1           0        0.114297    1.275418    0.742550
 ---------------------------------------------------------------------

 SCF Done:  E(RHF) =  -285.010453396     A.U. after    2 cycles

 The electronic state is 1-A.
 Alpha  occ. eigenvalues --  -20.61669 -15.53036 -11.32666 -11.31772 -11.29556
 Alpha  occ. eigenvalues --  -11.25119  -1.48954  -1.22593  -1.05198  -0.99735
 Alpha  occ. eigenvalues --   -0.87505  -0.75137  -0.70658  -0.66033  -0.62021
 Alpha  occ. eigenvalues --   -0.60987  -0.59507  -0.55469  -0.53752  -0.52348
 Alpha  occ. eigenvalues --   -0.51390  -0.48128  -0.38552
 Alpha virt. eigenvalues --    0.03181   0.03859   0.03960   0.04215   0.05044
 Alpha virt. eigenvalues --    0.06373   0.07370   0.07779   0.09762   0.11764
 Alpha virt. eigenvalues --    0.12066   0.12461   0.13863   0.14535   0.15553

 Mulliken charges:
               1
     1  C   -0.656371
     2  C    0.596993
     3  O   -1.222210
     4  C    0.174488
     5  C   -1.174567
     6  N    0.652355
     7  H    0.157303
     8  H    0.208591
     9  H    0.190097
    10  H    0.177594
    11  H    0.068099
    12  H    0.075898
    13  H    0.751730
 Sum of Mulliken charges =  -0.00000

 Dipole moment (field-independent basis, Debye):
    X=              3.6584    Y=              2.0501    Z=             -0.0972  Tot=              4.1948

 Test job not archived.
 1\1\GINC-SE229\SP\RHF\Aug-CC-pVDZ\C4H7N1O1\OHZDE\09-Apr-2025\0\\#t hf
 aug-cc-pvdz iop(5/13=1,5/36=2,99/5=2) pseudo=read geom=check guess=(re
 ad,tcheck) scf=(maxcycle=1)\\title\\0,1\C,0,-1.95434532,-0.55317986,-0
 .0455193\C,0,-0.48982604,-0.34679617,-0.40287223\O,0,0.17811997,0.2542
 8521,0.74881212\C,0,1.83113797,0.99398877,0.34533307\C,0,2.29743768,0.
 37102451,-0.82459615\N,0,2.6444075,-0.05592695,-1.87192512\H,0,-2.4566
 688,0.40608468,0.13541072\H,0,-2.4618675,-1.05816625,-0.87962442\H,0,-
 2.05435403,-1.17861756,0.85048358\H,0,-0.37300361,0.30275717,-1.280734

 Normal termination of Gaussian 16 at Wed Apr  9 16:24:01 2025.
