 Gaussian 16, Revision C.01,

 ----------------------------------------------------------------------
 #t hf aug-cc-pvdz symm=none int=(grid=ultrafine) guess=(read,tcheck) s
 table=(opt,rrhf)
 ----------------------------------------------------------------------
 -----
 title
 -----
 Symbolic Z-matrix:
 Charge =  0 Multiplicity = 1

 SCF Done:  E(RHF) =  -302.768251979     A.U. after   15 cycles
 Normal termination of Gaussian 16 at Wed Apr  9 18:15:19 2025.
 Gaussian 16:  ES64L-G16RevC.01  3-Jul-2019

 ----------------------------------------------------------------------
 #t hf aug-cc-pvdz iop(5/13=1,5/36=2,99/5=2) pseudo=read geom=check gue
 ss=(read,tcheck) scf=(maxcycle=1)
 ----------------------------------------------------------------------
 -----
 title
 -----
 Structure from the checkpoint file:  "Grambow2020_wb97xd3_007243_reverse_mol1.chk"
 Charge =  0 Multiplicity = 1

                         Standard orientation:
 ---------------------------------------------------------------------
 Center     Atomic      Atomic             Coordinates (Angstroms)
 Number     Number       Type             X           Y           Z
 ---------------------------------------------------------------------
      1          6           0       -2.443441   -0.508420    0.171292
      2          7           0       -1.087601   -0.100988   -0.174672
      3          6           0       -0.596386    1.190474   -0.042969
      4          7           0        0.685585    1.196852    0.060148
      5          6           0        1.101643   -0.125165    0.010142
      6          6           0        2.559283   -0.436527    0.063950
      7          6           0        0.094799   -1.066324   -0.043225
      8          1           0       -2.581680   -1.534955   -0.160882
      9          1           0       -2.567776   -0.468738    1.251972
     10          1           0       -3.169401    0.145370   -0.311896
     11          1           0       -1.246256    2.054490   -0.061987
     12          1           0        3.090211    0.030708   -0.767486
     13          1           0        2.999417   -0.057238    0.988542
     14          1           0        2.712687   -1.513591    0.020544
     15          1           0       -0.718473   -0.651320   -1.112280
 ---------------------------------------------------------------------

 SCF Done:  E(RHF) =  -303.087006385     A.U. after    2 cycles

 The electronic state is 1-A.
 Alpha  occ. eigenvalues --  -15.60292 -15.51255 -11.31417 -11.30441 -11.24998
 Alpha  occ. eigenvalues --  -11.23207 -11.21790  -1.36511  -1.22152  -1.04893
 Alpha  occ. eigenvalues --   -1.01046  -0.94137  -0.82864  -0.81203  -0.73192
 Alpha  occ. eigenvalues --   -0.72230  -0.65057  -0.60794  -0.59514  -0.56590
 Alpha  occ. eigenvalues --   -0.54686  -0.53630  -0.49968  -0.47470  -0.37663
 Alpha  occ. eigenvalues --   -0.33198
 Alpha virt. eigenvalues --    0.02605   0.04039   0.04324   0.04910   0.05415
 Alpha virt. eigenvalues --    0.06066   0.06370   0.06897   0.09045   0.10736
 Alpha virt. eigenvalues --    0.11015   0.11744   0.12386   0.13436   0.14414

 Mulliken charges:
               1
     1  C   -0.338697
     2  N    0.504595
     3  C   -1.057029
     4  N    0.968623
     5  C   -0.557190
     6  C   -0.322404
     7  C   -0.853200
     8  H    0.069307
     9  H    0.198251
    10  H    0.108504
    11  H   -0.155180
    12  H    0.213759
    13  H    0.237077
    14  H    0.196354
    15  H    0.787229
 Sum of Mulliken charges =  -0.00000

 Dipole moment (field-independent basis, Debye):
    X=             -3.9845    Y=              1.0341    Z=             -0.6978  Tot=              4.1752

 Test job not archived.
 1\1\GINC-SE220\SP\RHF\Aug-CC-pVDZ\C5H8N2\OHZDE\09-Apr-2025\0\\#t hf au
 g-cc-pvdz iop(5/13=1,5/36=2,99/5=2) pseudo=read geom=check guess=(read
 ,tcheck) scf=(maxcycle=1)\\title\\0,1\C,0,-2.36467066,-0.01907204,-0.4
 4831087\N,0,-1.01137549,0.17553666,0.05638006\C,0,-0.54683086,-0.31122
 153,1.27037145\N,0,0.73296355,-0.43862369,1.2662583\C,0,1.17467495,-0.
 04091966,0.01323894\C,0,2.63688169,-0.03840832,-0.28087095\C,0,0.18678
 132,0.28617974,-0.89198694\H,0,-2.47812485,0.58156318,-1.34808147\H,0,
 -2.5071189,-1.06728522,-0.70494531\H,0,-3.09497876,0.28378508,0.301928

 Normal termination of Gaussian 16 at Wed Apr  9 18:15:24 2025.
