 Gaussian 16, Revision C.01,

 ----------------------------------------------------------------------
 #t hf aug-cc-pvdz symm=none int=(grid=ultrafine) guess=(read,tcheck) s
 table=(opt,rrhf)
 ----------------------------------------------------------------------
 -----
 title
 -----
 Symbolic Z-matrix:
 Charge =  0 Multiplicity = 1

 SCF Done:  E(RHF) =  -315.683550458     A.U. after   15 cycles
 Normal termination of Gaussian 16 at Wed Apr  9 03:09:40 2025.
 Gaussian 16:  ES64L-G16RevC.01  3-Jul-2019

 ----------------------------------------------------------------------
 #t hf aug-cc-pvdz iop(5/13=1,5/36=2,99/5=2) pseudo=read geom=check gue
 ss=(read,tcheck) scf=(maxcycle=1)
 ----------------------------------------------------------------------
 -----
 title
 -----
 Structure from the checkpoint file:  "Grambow2020_b97d3_006677_forward_mol2.chk"
 Charge =  0 Multiplicity = 1

                         Standard orientation:
 ---------------------------------------------------------------------
 Center     Atomic      Atomic             Coordinates (Angstroms)
 Number     Number       Type             X           Y           Z
 ---------------------------------------------------------------------
      1          8           0        2.028522    0.075452    0.000218
      2          6           0        0.674560    0.032620    0.001803
      3          7           0       -0.023349   -1.108626    0.000060
      4          7           0       -1.285916   -0.652661   -0.001220
      5          7           0       -1.459128    0.664466   -0.000119
      6          6           0       -0.200475    1.137340   -0.000879
      7          1           0        2.349810   -0.848107   -0.005414
      8          1           0       -2.070526   -1.292615    0.005500
      9          1           0        0.026778    2.195097    0.001581
 ---------------------------------------------------------------------

 SCF Done:  E(RHF) =  -315.997262219     A.U. after    2 cycles

 The electronic state is 1-A.
 Alpha  occ. eigenvalues --  -20.59973 -15.62214 -15.57338 -15.55466 -11.34217
 Alpha  occ. eigenvalues --  -11.27636  -1.51489  -1.43521  -1.21488  -1.12149
 Alpha  occ. eigenvalues --   -0.90720  -0.87705  -0.80169  -0.73456  -0.70140
 Alpha  occ. eigenvalues --   -0.65770  -0.61182  -0.58622  -0.55123  -0.53761
 Alpha  occ. eigenvalues --   -0.44724  -0.38240
 Alpha virt. eigenvalues --    0.03342   0.04554   0.05445   0.07941   0.08931
 Alpha virt. eigenvalues --    0.11002   0.11165   0.11588   0.12313   0.14473
 Alpha virt. eigenvalues --    0.15440   0.15711   0.17679   0.17822   0.19662

 Mulliken charges:
               1
     1  O   -1.305620
     2  C    0.525858
     3  N    0.301070
     4  N   -0.127981
     5  N    0.171592
     6  C    0.138926
     7  H    0.296908
     8  H    0.085126
     9  H   -0.085882
 Sum of Mulliken charges =   0.00000

 Dipole moment (field-independent basis, Debye):
    X=              0.6335    Y=             -0.5909    Z=              0.0048  Tot=              0.8663

 Test job not archived.
 1\1\GINC-SE368\SP\RHF\Aug-CC-pVDZ\C2H3N3O1\OHZDE\09-Apr-2025\0\\#t hf
 aug-cc-pvdz iop(5/13=1,5/36=2,99/5=2) pseudo=read geom=check guess=(re
 ad,tcheck) scf=(maxcycle=1)\\title\\0,1\O,0,-1.99722219,-0.26270043,-0
 .2041003\C,0,-0.66002545,-0.0944969,-0.06748625\N,0,0.17540227,-1.0886
 2428,0.25390835\N,0,1.3570792,-0.45205505,0.27386993\N,0,1.35514936,0.
 84720031,-0.00318556\C,0,0.05549023,1.10911524,-0.22702805\H,0,-2.1929
 8342,-1.20370885,-0.0241017\H,0,2.21321928,-0.95012673,0.48398632\H,0,
 -0.30610928,2.0953967,-0.48586275\\Version=ES64L-G16RevC.01\State=1-A\

 Normal termination of Gaussian 16 at Wed Apr  9 03:09:42 2025.
