 Gaussian 16, Revision C.01,

 ----------------------------------------------------------------------
 #t hf aug-cc-pvdz symm=none int=(grid=ultrafine) guess=(read,tcheck) s
 table=(opt,rrhf)
 ----------------------------------------------------------------------
 -----
 title
 -----
 Symbolic Z-matrix:
 Charge =  0 Multiplicity = 1

 SCF Done:  E(RHF) =  -317.622950210     A.U. after   15 cycles
 Normal termination of Gaussian 16 at Wed Apr  9 18:47:26 2025.
 Gaussian 16:  ES64L-G16RevC.01  3-Jul-2019

 ----------------------------------------------------------------------
 #t hf aug-cc-pvdz iop(5/13=1,5/36=2,99/5=2) pseudo=read geom=check gue
 ss=(read,tcheck) scf=(maxcycle=1)
 ----------------------------------------------------------------------
 -----
 title
 -----
 Structure from the checkpoint file:  "Grambow2020_wb97xd3_008061_forward_mol1.chk"
 Charge =  0 Multiplicity = 1

                         Standard orientation:
 ---------------------------------------------------------------------
 Center     Atomic      Atomic             Coordinates (Angstroms)
 Number     Number       Type             X           Y           Z
 ---------------------------------------------------------------------
      1          7           0        2.625690    0.012414   -0.578052
      2          6           0        1.622533    0.018169   -0.022105
      3          6           0        0.345012    0.016420    0.709921
      4          6           0       -0.585931    1.177594    0.306248
      5          7           0       -1.567438    0.553109   -0.610197
      6          6           0       -1.479642   -0.775853   -0.499507
      7          7           0       -0.497179   -1.129552    0.361274
      8          1           0        0.576397    0.025864    1.775725
      9          1           0       -1.107351    1.577709    1.176550
     10          1           0       -0.069644    1.992099   -0.197480
     11          1           0       -2.583409   -0.193412   -0.350211
     12          1           0       -0.155333   -2.072037    0.416894
 ---------------------------------------------------------------------

 SCF Done:  E(RHF) =  -317.942332414     A.U. after    2 cycles

 The electronic state is 1-A.
 Alpha  occ. eigenvalues --  -15.54823 -15.54544 -15.52633 -11.34362 -11.30629
 Alpha  occ. eigenvalues --  -11.30344 -11.28931  -1.34857  -1.24994  -1.20337
 Alpha  occ. eigenvalues --   -1.08367  -0.94059  -0.84414  -0.78629  -0.77198
 Alpha  occ. eigenvalues --   -0.67652  -0.64806  -0.61746  -0.60985  -0.59282
 Alpha  occ. eigenvalues --   -0.54333  -0.52046  -0.50646  -0.45743  -0.40038
 Alpha virt. eigenvalues --    0.02433   0.03993   0.04339   0.04933   0.05710
 Alpha virt. eigenvalues --    0.08161   0.08341   0.09187   0.09766   0.11096
 Alpha virt. eigenvalues --    0.12449   0.12632   0.13729   0.13846   0.14773

 Mulliken charges:
               1
     1  N    1.036859
     2  C   -1.798508
     3  C   -0.136409
     4  C   -0.147141
     5  N    0.441260
     6  C   -0.893280
     7  N    0.594261
     8  H    0.094424
     9  H    0.111618
    10  H    0.123976
    11  H    0.438634
    12  H    0.134306
 Sum of Mulliken charges =   0.00000

 Dipole moment (field-independent basis, Debye):
    X=             -2.2346    Y=              0.2000    Z=              4.1771  Tot=              4.7415

 Test job not archived.
 1\1\GINC-SE108\SP\RHF\Aug-CC-pVDZ\C4H5N3\OHZDE\09-Apr-2025\0\\#t hf au
 g-cc-pvdz iop(5/13=1,5/36=2,99/5=2) pseudo=read geom=check guess=(read
 ,tcheck) scf=(maxcycle=1)\\title\\0,1\N,0,2.48828654,-1.14662962,1.152
 6239\C,0,1.67978065,-0.68922301,0.47991963\C,0,0.65808285,-0.09556378,
 -0.39850483\C,0,-0.69424995,-0.83428244,-0.3400376\N,0,-1.53151229,0.0
 1207683,0.54080196\C,0,-0.94012036,1.2013024,0.68945571\N,0,0.24834943
 ,1.23895471,0.04339007\H,0,1.06848562,-0.06765631,-1.40863167\H,0,-1.1
 5008767,-0.88855711,-1.32931134\H,0,-0.62133114,-1.84045659,0.06740541

 Normal termination of Gaussian 16 at Wed Apr  9 18:47:31 2025.
