 Gaussian 16, Revision C.01,

 ----------------------------------------------------------------------
 #t hf aug-cc-pvdz symm=none int=(grid=ultrafine) guess=(read,tcheck) s
 table=(opt,rrhf)
 ----------------------------------------------------------------------
 -----
 title
 -----
 Symbolic Z-matrix:
 Charge =  0 Multiplicity = 1

 SCF Done:  E(RHF) =  -343.549432247     A.U. after   15 cycles
 Normal termination of Gaussian 16 at Wed Apr  9 03:58:18 2025.
 Gaussian 16:  ES64L-G16RevC.01  3-Jul-2019

 ----------------------------------------------------------------------
 #t hf aug-cc-pvdz iop(5/13=1,5/36=2,99/5=2) pseudo=read geom=check gue
 ss=(read,tcheck) scf=(maxcycle=1)
 ----------------------------------------------------------------------
 -----
 title
 -----
 Structure from the checkpoint file:  "Grambow2020_wb97xd3_008651_reverse_mol1.chk"
 Charge =  0 Multiplicity = 1

                         Standard orientation:
 ---------------------------------------------------------------------
 Center     Atomic      Atomic             Coordinates (Angstroms)
 Number     Number       Type             X           Y           Z
 ---------------------------------------------------------------------
      1          6           0        0.705146    1.727610   -0.214351
      2          6           0        1.252991    0.341211   -0.356741
      3          8           0        1.866413   -0.332226    0.688029
      4          6           0        0.474562   -0.741440    0.557123
      5          6           0        0.417202   -1.489067   -0.598234
      6          8           0       -2.381693    0.108100   -0.530092
      7          6           0       -2.165221    0.014940    0.651059
      8          1           0       -0.211279    1.827761   -0.798410
      9          1           0        0.484228    1.928833    0.831092
     10          1           0        1.436325    2.449946   -0.586464
     11          1           0        1.753318    0.152243   -1.307505
     12          1           0       -0.549442   -1.626122   -1.078716
     13          1           0        1.276628   -2.009573   -1.023907
     14          1           0       -2.316502   -0.928292    1.202597
     15          1           0       -1.859116    0.878695    1.264679
 ---------------------------------------------------------------------

 SCF Done:  E(RHF) =  -343.896947084     A.U. after    2 cycles

 The electronic state is 1-A.
 Alpha  occ. eigenvalues --  -20.56634 -20.54018 -11.35623 -11.33840 -11.30869
 Alpha  occ. eigenvalues --  -11.26708 -11.24660  -1.51121  -1.47201  -1.06673
 Alpha  occ. eigenvalues --   -1.02621  -0.85937  -0.83654  -0.80338  -0.69926
 Alpha  occ. eigenvalues --   -0.68123  -0.65571  -0.63678  -0.62149  -0.59360
 Alpha  occ. eigenvalues --   -0.57230  -0.53905  -0.52301  -0.47403  -0.43287
 Alpha  occ. eigenvalues --   -0.41488  -0.34954
 Alpha virt. eigenvalues --    0.03143   0.03759   0.04097   0.05293   0.05541
 Alpha virt. eigenvalues --    0.05901   0.07282   0.08307   0.08786   0.10211
 Alpha virt. eigenvalues --    0.10744   0.12228   0.13112   0.13603   0.14257

 Mulliken charges:
               1
     1  C   -0.575848
     2  C    0.777090
     3  O   -1.419891
     4  C    0.276296
     5  C    0.186585
     6  O   -0.868807
     7  C    0.599372
     8  H    0.289615
     9  H    0.272166
    10  H    0.136279
    11  H   -0.035161
    12  H    0.064545
    13  H    0.039407
    14  H    0.137393
    15  H    0.120960
 Sum of Mulliken charges =  -0.00000

 Dipole moment (field-independent basis, Debye):
    X=              0.7748    Y=             -0.2053    Z=             -1.4128  Tot=              1.6243

 Test job not archived.
 1\1\GINC-SE159\SP\RHF\Aug-CC-pVDZ\C5H8O2\OHZDE\09-Apr-2025\0\\#t hf au
 g-cc-pvdz iop(5/13=1,5/36=2,99/5=2) pseudo=read geom=check guess=(read
 ,tcheck) scf=(maxcycle=1)\\title\\0,1\C,0,1.59759422,-0.25878292,0.598
 69439\C,0,0.83679894,0.9616221,0.18118912\O,0,0.92014734,1.4953842,-1.
 0953295\C,0,-0.26418744,0.65775136,-0.96280548\C,0,-1.1229688,1.360026
 77,-0.14647734\O,0,-1.57961802,-1.72574487,0.6652421\C,0,-1.26259458,-
 1.8578517,-0.48918383\H,0,0.99229359,-0.86046449,1.27882841\H,0,1.8456
 6274,-0.85349322,-0.27710714\H,0,2.51214513,0.03991458,1.11757394\H,0,

 Normal termination of Gaussian 16 at Wed Apr  9 03:58:24 2025.
