 Gaussian 16, Revision C.01,

 ----------------------------------------------------------------------
 #t hf aug-cc-pvdz symm=none int=(grid=ultrafine) guess=(read,tcheck) s
 table=(opt,rrhf)
 ----------------------------------------------------------------------
 -----
 title
 -----
 Symbolic Z-matrix:
 Charge =  0 Multiplicity = 1

 SCF Done:  E(RHF) =  -271.949381589     A.U. after   13 cycles
 Normal termination of Gaussian 16 at Wed Apr  9 18:22:41 2025.
 Gaussian 16:  ES64L-G16RevC.01  3-Jul-2019

 ----------------------------------------------------------------------
 #t hf aug-cc-pvdz iop(5/13=1,5/36=2,99/5=2) pseudo=read geom=check gue
 ss=(read,tcheck) scf=(maxcycle=1)
 ----------------------------------------------------------------------
 -----
 title
 -----
 Structure from the checkpoint file:  "Grambow2020_wb97xd3_007427_reverse_mol2.chk"
 Charge =  0 Multiplicity = 1

                         Standard orientation:
 ---------------------------------------------------------------------
 Center     Atomic      Atomic             Coordinates (Angstroms)
 Number     Number       Type             X           Y           Z
 ---------------------------------------------------------------------
      1          6           0       -2.089297   -0.724856   -0.009797
      2          6           0       -0.642144   -0.687402   -0.459633
      3          6           0        0.373786   -0.727779    0.706106
      4          6           0        1.750128   -0.693367    0.012056
      5          6           0        1.375523    0.715549   -0.415438
      6          6           0       -0.119673    0.719576   -0.711230
      7          6           0        0.379055    0.845401    0.700178
      8          1           0       -2.766103   -0.463048   -0.826461
      9          1           0       -2.260488   -0.016808    0.805523
     10          1           0       -2.362889   -1.721097    0.345525
     11          1           0       -0.468040   -1.424775   -1.252017
     12          1           0       -2.120312    2.641700    0.520113
     13          1           0        0.191216   -1.368544    1.565733
     14          1           0        1.944314   -1.449111   -0.755083
     15          1           0        2.567304   -0.678220    0.734417
     16          1           0        2.018770    1.488680   -0.812331
     17          1           0       -2.591424    3.212279    0.612432
     18          1           0       -0.560839    1.492400   -1.327190
     19          1           0        0.244225    1.603804    1.455886
 ---------------------------------------------------------------------

 SCF Done:  E(RHF) =  -272.249828326     A.U. after    2 cycles

 The electronic state is 1-A.
 Alpha  occ. eigenvalues --  -11.23579 -11.23322 -11.23139 -11.23051 -11.23025
 Alpha  occ. eigenvalues --  -11.22671 -11.21842  -1.24085  -1.02457  -0.96799
 Alpha  occ. eigenvalues --   -0.89337  -0.84587  -0.74374  -0.71363  -0.70803
 Alpha  occ. eigenvalues --   -0.63013  -0.61542  -0.59316  -0.57862  -0.55455
 Alpha  occ. eigenvalues --   -0.52255  -0.51279  -0.48790  -0.44340  -0.43794
 Alpha  occ. eigenvalues --   -0.39707  -0.37434
 Alpha virt. eigenvalues --    0.03470   0.03488   0.03815   0.03981   0.05591
 Alpha virt. eigenvalues --    0.05802   0.05859   0.06021   0.07622   0.08718
 Alpha virt. eigenvalues --    0.09303   0.11678   0.12524   0.12846   0.12952

 Mulliken charges:
               1
     1  C   -0.325516
     2  C   -0.509706
     3  C    0.125349
     4  C    0.028466
     5  C    0.384493
     6  C    0.493721
     7  C    0.232572
     8  H    0.180875
     9  H    0.241953
    10  H    0.161120
    11  H   -0.055558
    12  H   -0.106183
    13  H   -0.181355
    14  H    0.007760
    15  H    0.072914
    16  H   -0.262804
    17  H    0.085648
    18  H   -0.263685
    19  H   -0.310062
 Sum of Mulliken charges =  -0.00000

 Dipole moment (field-independent basis, Debye):
    X=              0.0442    Y=              0.0720    Z=              0.1008  Tot=              0.1316

 Test job not archived.
 1\1\GINC-SE224\SP\RHF\Aug-CC-pVDZ\C7H12\OHZDE\09-Apr-2025\0\\#t hf aug
 -cc-pvdz iop(5/13=1,5/36=2,99/5=2) pseudo=read geom=check guess=(read,
 tcheck) scf=(maxcycle=1)\\title\\0,1\C,0,1.73657178,0.0276842,-1.04437
 44\C,0,0.54585799,0.75815453,-0.45563044\C,0,0.37470197,0.54481859,1.0
 668296\C,0,-0.86923138,1.3801948,1.43012731\C,0,-1.64753953,0.38337113
 ,0.58828127\C,0,-0.76368735,-0.00512571,-0.59112429\C,0,-0.5820297,-0.
 66247453,0.74735573\H,0,1.69175613,0.00980536,-2.13580616\H,0,1.768102
 4,-1.00772841,-0.6946449\H,0,2.6733525,0.5099999,-0.75555396\H,0,0.539

 Normal termination of Gaussian 16 at Wed Apr  9 18:22:48 2025.
