 Gaussian 16, Revision C.01,

 ----------------------------------------------------------------------
 #t hf aug-cc-pvdz symm=none int=(grid=ultrafine) guess=(read,tcheck) s
 table=(opt,rrhf)
 ----------------------------------------------------------------------
 -----
 title
 -----
 Symbolic Z-matrix:
 Charge =  0 Multiplicity = 1

 SCF Done:  E(RHF) =  -306.572890346     A.U. after   15 cycles
 Normal termination of Gaussian 16 at Wed Apr  9 19:00:55 2025.
 Gaussian 16:  ES64L-G16RevC.01  3-Jul-2019

 ----------------------------------------------------------------------
 #t hf aug-cc-pvdz iop(5/13=1,5/36=2,99/5=2) pseudo=read geom=check gue
 ss=(read,tcheck) scf=(maxcycle=1)
 ----------------------------------------------------------------------
 -----
 title
 -----
 Structure from the checkpoint file:  "Grambow2020_wb97xd3_008433_forward_mol1.chk"
 Charge =  0 Multiplicity = 1

                         Standard orientation:
 ---------------------------------------------------------------------
 Center     Atomic      Atomic             Coordinates (Angstroms)
 Number     Number       Type             X           Y           Z
 ---------------------------------------------------------------------
      1          6           0        1.022678   -0.729193   -0.812090
      2          6           0        1.162350    0.646982   -0.178927
      3          6           0       -0.241712    1.262939    0.048401
      4          8           0       -1.289573    0.536080   -0.511400
      5          6           0       -1.289924   -0.743337    0.111746
      6          6           0        0.160102   -1.062963    0.428039
      7          6           0        0.825853    0.133712    1.191241
      8          1           0        0.559735   -0.811181   -1.798263
      9          1           0        1.972848   -1.260133   -0.805518
     10          1           0        1.951321    1.362435   -0.396768
     11          1           0       -0.282645    2.321016   -0.192548
     12          1           0       -1.722799   -1.452423   -0.595442
     13          1           0       -1.901189   -0.717238    1.022394
     14          1           0        0.268232   -2.026313    0.925254
     15          1           0       -0.365003    1.246347    1.201629
 ---------------------------------------------------------------------

 SCF Done:  E(RHF) =  -306.891026142     A.U. after    2 cycles

 The electronic state is 1-A.
 Alpha  occ. eigenvalues --  -20.56196 -11.31921 -11.29755 -11.26641 -11.24838
 Alpha  occ. eigenvalues --  -11.24816 -11.24089  -1.49448  -1.18777  -1.03858
 Alpha  occ. eigenvalues --   -0.93743  -0.85752  -0.83395  -0.73889  -0.71891
 Alpha  occ. eigenvalues --   -0.66954  -0.63699  -0.59886  -0.57412  -0.55341
 Alpha  occ. eigenvalues --   -0.54089  -0.50598  -0.48559  -0.44370  -0.42821
 Alpha  occ. eigenvalues --   -0.34166
 Alpha virt. eigenvalues --    0.03427   0.03481   0.03906   0.04488   0.05728
 Alpha virt. eigenvalues --    0.06020   0.06974   0.07441   0.09379   0.11614
 Alpha virt. eigenvalues --    0.12391   0.12868   0.13251   0.13907   0.14107

 Mulliken charges:
               1
     1  C    0.188326
     2  C    0.218552
     3  C    0.620542
     4  O   -1.356121
     5  C    0.608089
     6  C   -0.276413
     7  C   -0.453611
     8  H    0.014038
     9  H    0.044437
    10  H   -0.154710
    11  H    0.001159
    12  H    0.048097
    13  H    0.149197
    14  H   -0.047787
    15  H    0.396204
 Sum of Mulliken charges =  -0.00000

 Dipole moment (field-independent basis, Debye):
    X=             -0.1805    Y=             -0.5371    Z=             -1.3425  Tot=              1.4572

 Test job not archived.
 1\1\GINC-SE108\SP\RHF\Aug-CC-pVDZ\C6H8O1\OHZDE\09-Apr-2025\0\\#t hf au
 g-cc-pvdz iop(5/13=1,5/36=2,99/5=2) pseudo=read geom=check guess=(read
 ,tcheck) scf=(maxcycle=1)\\title\\0,1\C,0,0.76090227,1.13262231,0.3092
 5505\C,0,1.28152555,-0.14231181,-0.33708461\C,0,0.37773842,-1.33702548
 ,0.06078397\O,0,-0.57957032,-1.0409249,1.0280464\C,0,-1.42974565,-0.03
 926179,0.48115467\C,0,-0.55875004,0.80723359,-0.42966253\C,0,0.2417231
 6,-0.10773702,-1.41951328\H,0,0.73741978,1.19930987,1.39947449\H,0,1.2
 561956,2.00972756,-0.10321731\H,0,2.32952062,-0.38667259,-0.4913407\H,

 Normal termination of Gaussian 16 at Wed Apr  9 19:01:01 2025.
