 Gaussian 16, Revision C.01,

 ----------------------------------------------------------------------
 #t hf aug-cc-pvdz symm=none int=(grid=ultrafine) guess=(read,tcheck) s
 table=(opt,rrhf)
 ----------------------------------------------------------------------
 -----
 title
 -----
 Symbolic Z-matrix:
 Charge =  0 Multiplicity = 1

 SCF Done:  E(RHF) =  -323.720749445     A.U. after   16 cycles
 Normal termination of Gaussian 16 at Wed Apr  9 18:15:52 2025.
 Gaussian 16:  ES64L-G16RevC.01  3-Jul-2019

 ----------------------------------------------------------------------
 #t hf aug-cc-pvdz iop(5/13=1,5/36=2,99/5=2) pseudo=read geom=check gue
 ss=(read,tcheck) scf=(maxcycle=1)
 ----------------------------------------------------------------------
 -----
 title
 -----
 Structure from the checkpoint file:  "Grambow2020_wb97xd3_007248_reverse_mol1.chk"
 Charge =  0 Multiplicity = 1

                         Standard orientation:
 ---------------------------------------------------------------------
 Center     Atomic      Atomic             Coordinates (Angstroms)
 Number     Number       Type             X           Y           Z
 ---------------------------------------------------------------------
      1          6           0        2.072859   -0.195789   -0.046324
      2          6           0        0.603838   -0.297828    0.124091
      3          6           0       -0.078065    1.683577   -0.499079
      4          6           0       -0.338883   -0.992913   -0.857387
      5          8           0       -1.563516   -0.519770   -0.305240
      6          6           0       -1.039713    0.234298    0.709178
      7          7           0        0.024832   -0.300641    1.354573
      8          1           0        2.453095    0.658245    0.510660
      9          1           0        2.366293   -0.126316   -1.093082
     10          1           0        2.504390   -1.098120    0.397206
     11          1           0        0.684548    1.656602   -1.277967
     12          1           0       -1.010053    2.020644   -0.953108
     13          1           0        0.243109    2.354359    0.298004
     14          1           0       -0.268272   -0.661278   -1.891897
     15          1           0       -0.247138   -2.079499   -0.782263
     16          1           0       -1.711884    0.949936    1.169479
 ---------------------------------------------------------------------

 SCF Done:  E(RHF) =  -324.061131147     A.U. after    2 cycles

 The electronic state is 1-A.
 Alpha  occ. eigenvalues --  -20.58521 -15.44554 -11.39597 -11.35737 -11.31229
 Alpha  occ. eigenvalues --  -11.25854 -11.21115  -1.53882  -1.26046  -1.06116
 Alpha  occ. eigenvalues --   -0.98285  -0.92618  -0.83819  -0.79476  -0.73002
 Alpha  occ. eigenvalues --   -0.69984  -0.64003  -0.62832  -0.61139  -0.57730
 Alpha  occ. eigenvalues --   -0.55450  -0.53752  -0.53152  -0.52374  -0.48823
 Alpha  occ. eigenvalues --   -0.42740  -0.31669
 Alpha virt. eigenvalues --    0.03193   0.03838   0.03967   0.04342   0.05564
 Alpha virt. eigenvalues --    0.06126   0.06628   0.07405   0.08263   0.09460
 Alpha virt. eigenvalues --    0.11260   0.12086   0.12677   0.13233   0.13727

 Mulliken charges:
               1
     1  C   -0.354839
     2  C   -1.882456
     3  C   -0.278036
     4  C    0.889877
     5  O   -1.367766
     6  C    0.921623
     7  N    0.817932
     8  H    0.294979
     9  H    0.220502
    10  H    0.239685
    11  H    0.050091
    12  H    0.039702
    13  H    0.133637
    14  H    0.182467
    15  H    0.121136
    16  H   -0.028531
 Sum of Mulliken charges =   0.00000

 Dipole moment (field-independent basis, Debye):
    X=              1.2521    Y=             -0.1352    Z=             -2.6600  Tot=              2.9431

 Test job not archived.
 1\1\GINC-SE045\SP\RHF\Aug-CC-pVDZ\C5H9N1O1\OHZDE\09-Apr-2025\0\\#t hf
 aug-cc-pvdz iop(5/13=1,5/36=2,99/5=2) pseudo=read geom=check guess=(re
 ad,tcheck) scf=(maxcycle=1)\\title\\0,1\C,0,1.13160001,1.15285959,0.85
 621751\C,0,-0.13154749,0.55497617,0.36178104\C,0,0.5751315,-0.81773208
 ,-1.18598375\C,0,-0.90450347,-0.5551045,1.07271445\O,0,-1.80407485,-0.
 86333598,0.01242213\C,0,-1.34016586,0.04078304,-0.90375981\N,0,-1.0000
 4954,1.25743957,-0.41384202\H,0,1.68836119,1.58396201,0.02654772\H,0,1
 .74913266,0.43456192,1.39411725\H,0,0.8511564,1.9709755,1.52642391\H,0

 Normal termination of Gaussian 16 at Wed Apr  9 18:15:57 2025.
