 Gaussian 16, Revision C.01,

 ----------------------------------------------------------------------
 #t hf aug-cc-pvdz symm=none int=(grid=ultrafine) guess=(read,tcheck) s
 table=(opt,rrhf)
 ----------------------------------------------------------------------
 -----
 title
 -----
 Symbolic Z-matrix:
 Charge =  0 Multiplicity = 1

 SCF Done:  E(RHF) =  -288.098189684     A.U. after   13 cycles

 1\1\GINC-SE393\Stability\RHF\Aug-CC-pVDZ\C6H11N1\OHZDE\09-Apr-2025\0\\
 #t hf aug-cc-pvdz symm=none int=(grid=ultrafine) guess=(read,tcheck) s
 table=(opt,rrhf)\\title\\0,1\C,0,1.84960347,-0.63294045,0.00719306\C,0
 ,0.57135156,0.07697062,0.44115911\C,0,0.55986227,1.52716973,-0.0307024
 9\C,0,-0.67880227,-0.70985234,-0.01324019\C,0,-1.99617944,-0.16094834,
 0.54110706\C,0,-0.74261088,-0.78619119,-1.47810779\N,0,-0.79309288,-0.
 82900158,-2.62386796\H,0,1.87260556,-1.66689722,0.35902569\H,0,2.72755
 808,-0.12412053,0.40829678\H,0,1.9399415,-0.64646557,-1.08187887\H,0,0

 Normal termination of Gaussian 16 at Wed Apr  9 03:46:50 2025.
 Gaussian 16:  ES64L-G16RevC.01  3-Jul-2019

 ----------------------------------------------------------------------
 #t hf aug-cc-pvdz iop(5/13=1,5/36=2,99/5=2) pseudo=read geom=check gue
 ss=(read,tcheck) scf=(maxcycle=1)
 ----------------------------------------------------------------------
 -----
 title
 -----
 Structure from the checkpoint file:  "Grambow2020_wb97xd3_007877_forward_mol2.chk"
 Charge =  0 Multiplicity = 1

                         Standard orientation:
 ---------------------------------------------------------------------
 Center     Atomic      Atomic             Coordinates (Angstroms)
 Number     Number       Type             X           Y           Z
 ---------------------------------------------------------------------
      1          6           0       -1.718896   -0.871523   -0.740250
      2          6           0       -0.987629    0.362194   -0.221193
      3          6           0       -1.214630    0.547463    1.275473
      4          6           0        0.510537    0.315269   -0.597692
      5          6           0        1.275112    1.601569   -0.273753
      6          6           0        1.170690   -0.834517    0.033122
      7          7           0        1.682586   -1.727137    0.541393
      8          1           0       -1.576054   -0.998717   -1.815796
      9          1           0       -2.790809   -0.790710   -0.553007
     10          1           0       -1.360571   -1.777065   -0.244248
     11          1           0       -1.385480    1.240497   -0.741967
     12          1           0       -2.283447    0.584725    1.491837
     13          1           0       -0.771844    1.472211    1.647790
     14          1           0       -0.788840   -0.285423    1.841122
     15          1           0        0.570176    0.142117   -1.677022
     16          1           0        2.291270    1.555947   -0.665053
     17          1           0        0.768673    2.454401   -0.728758
     18          1           0        1.337727    1.769248    0.801104
 ---------------------------------------------------------------------

 SCF Done:  E(RHF) =  -288.405937020     A.U. after    2 cycles

 The electronic state is 1-A.
 Alpha  occ. eigenvalues --  -15.50410 -11.28695 -11.27133 -11.25788 -11.25079
 Alpha  occ. eigenvalues --  -11.23310 -11.23267  -1.23209  -1.13363  -1.03449
 Alpha  occ. eigenvalues --   -0.94889  -0.90747  -0.81857  -0.70231  -0.65878
 Alpha  occ. eigenvalues --   -0.63750  -0.61501  -0.59813  -0.57073  -0.56373
 Alpha  occ. eigenvalues --   -0.55093  -0.54252  -0.51763  -0.50290  -0.49474
 Alpha  occ. eigenvalues --   -0.47802  -0.47035
 Alpha virt. eigenvalues --    0.02848   0.03339   0.03513   0.04342   0.05495
 Alpha virt. eigenvalues --    0.05604   0.06808   0.07461   0.08141   0.08949
 Alpha virt. eigenvalues --    0.09563   0.10385   0.12575   0.12968   0.13864

 Mulliken charges:
               1
     1  C   -0.043917
     2  C   -1.275296
     3  C    0.100403
     4  C   -0.214605
     5  C    0.066008
     6  C   -1.836506
     7  N    1.127389
     8  H    0.164397
     9  H    0.150556
    10  H    0.271800
    11  H    0.159314
    12  H    0.152486
    13  H    0.137333
    14  H    0.297496
    15  H    0.179100
    16  H    0.141929
    17  H    0.162819
    18  H    0.259295
 Sum of Mulliken charges =   0.00000

 Dipole moment (field-independent basis, Debye):
    X=             -2.4070    Y=              3.7798    Z=             -1.8807  Tot=              4.8598

 Test job not archived.
 1\1\GINC-SE393\SP\RHF\Aug-CC-pVDZ\C6H11N1\OHZDE\09-Apr-2025\0\\#t hf a
 ug-cc-pvdz iop(5/13=1,5/36=2,99/5=2) pseudo=read geom=check guess=(rea
 d,tcheck) scf=(maxcycle=1)\\title\\0,1\C,0,1.84960347,-0.63294045,0.00
 719306\C,0,0.57135156,0.07697062,0.44115911\C,0,0.55986227,1.52716973,
 -0.03070249\C,0,-0.67880227,-0.70985234,-0.01324019\C,0,-1.99617944,-0
 .16094834,0.54110706\C,0,-0.74261088,-0.78619119,-1.47810779\N,0,-0.79
 309288,-0.82900158,-2.62386796\H,0,1.87260556,-1.66689722,0.35902569\H
 ,0,2.72755808,-0.12412053,0.40829678\H,0,1.9399415,-0.64646557,-1.0818

 Normal termination of Gaussian 16 at Wed Apr  9 03:46:56 2025.
