 Gaussian 16, Revision C.01,

 ----------------------------------------------------------------------
 #t hf aug-cc-pvdz symm=none int=(grid=ultrafine) guess=(read,tcheck) s
 table=(opt,rrhf)
 ----------------------------------------------------------------------
 -----
 title
 -----
 Symbolic Z-matrix:
 Charge =  0 Multiplicity = 1

 SCF Done:  E(RHF) =  -286.770051202     A.U. after   14 cycles
 Normal termination of Gaussian 16 at Wed Apr  9 18:43:39 2025.
 Gaussian 16:  ES64L-G16RevC.01  3-Jul-2019

 ----------------------------------------------------------------------
 #t hf aug-cc-pvdz iop(5/13=1,5/36=2,99/5=2) pseudo=read geom=check gue
 ss=(read,tcheck) scf=(maxcycle=1)
 ----------------------------------------------------------------------
 -----
 title
 -----
 Structure from the checkpoint file:  "Grambow2020_wb97xd3_007998_reverse_mol2.chk"
 Charge =  0 Multiplicity = 1

                         Standard orientation:
 ---------------------------------------------------------------------
 Center     Atomic      Atomic             Coordinates (Angstroms)
 Number     Number       Type             X           Y           Z
 ---------------------------------------------------------------------
      1          6           0        2.895747   -1.240954    0.000786
      2          6           0        2.140900   -0.172504    0.003171
      3          6           0        1.412451    0.865282    0.004284
      4          6           0        0.641082    1.921678    0.003644
      5          6           0       -1.859715   -0.755165   -0.732405
      6          6           0       -1.912016   -0.748629    0.741843
      7          7           0       -2.352882    0.418992   -0.016699
      8          1           0        2.463437   -2.235200    0.007094
      9          1           0        3.977106   -1.163139   -0.007735
     10          1           0       -0.908412   -0.615113   -1.231811
     11          1           0        1.067472    2.918759   -0.003706
     12          1           0       -0.442136    1.818142    0.009237
     13          1           0       -2.573768   -1.372011   -1.266368
     14          1           0       -0.998274   -0.605554    1.306493
     15          1           0       -2.662967   -1.360982    1.228047
     16          1           0       -3.362984    0.463908   -0.052289
 ---------------------------------------------------------------------

 SCF Done:  E(RHF) =  -287.078195073     A.U. after    2 cycles

 The electronic state is 1-A.
 Alpha  occ. eigenvalues --  -15.50093 -11.26188 -11.26104 -11.25942 -11.25688
 Alpha  occ. eigenvalues --  -11.25577 -11.25199  -1.26695  -1.08813  -1.01233
 Alpha  occ. eigenvalues --   -0.91147  -0.89698  -0.84641  -0.72620  -0.69192
 Alpha  occ. eigenvalues --   -0.66749  -0.65454  -0.62567  -0.60361  -0.53665
 Alpha  occ. eigenvalues --   -0.51982  -0.50445  -0.47950  -0.42845  -0.37418
 Alpha  occ. eigenvalues --   -0.33726
 Alpha virt. eigenvalues --    0.03431   0.03840   0.04195   0.04705   0.05244
 Alpha virt. eigenvalues --    0.06041   0.06104   0.07438   0.08173   0.08677
 Alpha virt. eigenvalues --    0.10735   0.11130   0.11959   0.13731   0.13803

 Mulliken charges:
               1
     1  C   -0.376503
     2  C    0.319573
     3  C    0.321035
     4  C   -0.142973
     5  C   -0.017266
     6  C   -0.031438
     7  N    0.420147
     8  H   -0.054242
     9  H   -0.043448
    10  H   -0.112059
    11  H   -0.063794
    12  H    0.053153
    13  H   -0.098025
    14  H   -0.111965
    15  H   -0.095047
    16  H    0.032850
 Sum of Mulliken charges =  -0.00000

 Dipole moment (field-independent basis, Debye):
    X=             -1.2506    Y=             -1.5525    Z=             -0.0244  Tot=              1.9937

 Test job not archived.
 1\1\GINC-SE045\SP\RHF\Aug-CC-pVDZ\C6H9N1\OHZDE\09-Apr-2025\0\\#t hf au
 g-cc-pvdz iop(5/13=1,5/36=2,99/5=2) pseudo=read geom=check guess=(read
 ,tcheck) scf=(maxcycle=1)\\title\\0,1\C,0,2.79177109,0.83969455,1.4603
 2201\C,0,2.15036307,-0.0373241,0.73174819\C,0,1.53169772,-0.89000307,0
 .02617685\C,0,0.87253771,-1.75761074,-0.69752719\C,0,-1.94881642,0.248
 46031,0.70848831\C,0,-1.67407622,1.01330322,-0.52265644\N,0,-2.1696635
 8,-0.3582645,-0.60193325\H,0,2.28796977,1.70913961,1.86739302\H,0,3.84
 723884,0.7223289,1.67867346\H,0,-1.12260017,-0.17213117,1.26926311\H,0

 Normal termination of Gaussian 16 at Wed Apr  9 18:43:44 2025.
