 Gaussian 16, Revision C.01,

 ----------------------------------------------------------------------
 #t hf aug-cc-pvdz symm=none int=(grid=ultrafine) guess=(read,tcheck) s
 table=(opt,rrhf)
 ----------------------------------------------------------------------
 -----
 title
 -----
 Symbolic Z-matrix:
 Charge =  0 Multiplicity = 1

 SCF Done:  E(RHF) =  -231.694583669     A.U. after   15 cycles
 Normal termination of Gaussian 16 at Wed Apr  9 15:51:55 2025.
 Gaussian 16:  ES64L-G16RevC.01  3-Jul-2019

 ----------------------------------------------------------------------
 #t hf aug-cc-pvdz iop(5/13=1,5/36=2,99/5=2) pseudo=read geom=check gue
 ss=(read,tcheck) scf=(maxcycle=1)
 ----------------------------------------------------------------------
 -----
 title
 -----
 Structure from the checkpoint file:  "Grambow2020_b97d3_006873_reverse_mol2.chk"
 Charge =  0 Multiplicity = 1

                         Standard orientation:
 ---------------------------------------------------------------------
 Center     Atomic      Atomic             Coordinates (Angstroms)
 Number     Number       Type             X           Y           Z
 ---------------------------------------------------------------------
      1          6           0        1.134750   -0.440265   -0.792621
      2          6           0        0.177803    0.754468   -0.714142
      3          6           0       -1.199689    0.367073    0.003090
      4          6           0       -1.632017   -0.973504   -0.022375
      5          6           0        1.130748   -0.479429    0.773307
      6          6           0        0.174225    0.717518    0.749759
      7          1           0        2.109253   -0.148989   -1.205171
      8          1           0        0.749857   -1.330869   -1.297475
      9          1           0        0.085539    1.592937   -1.403991
     10          1           0       -1.833935    1.266492    0.023178
     11          1           0        0.744106   -1.394387    1.231158
     12          1           0       -2.747460   -0.970242   -0.017170
     13          1           0        2.102773   -0.208506    1.205304
     14          1           0        0.074953    1.518393    1.482055
 ---------------------------------------------------------------------

 SCF Done:  E(RHF) =  -231.940006600     A.U. after    2 cycles

 The electronic state is 1-A.
 Alpha  occ. eigenvalues --  -11.27046 -11.26956 -11.24633 -11.24539 -11.23887
 Alpha  occ. eigenvalues --  -11.23867  -1.20205  -1.01139  -0.91663  -0.89750
 Alpha  occ. eigenvalues --   -0.74101  -0.72745  -0.71009  -0.63496  -0.58335
 Alpha  occ. eigenvalues --   -0.56290  -0.53085  -0.48990  -0.48141  -0.41998
 Alpha  occ. eigenvalues --   -0.40913  -0.34604
 Alpha virt. eigenvalues --    0.03093   0.03479   0.03723   0.04794   0.06148
 Alpha virt. eigenvalues --    0.06304   0.06332   0.06671   0.08463   0.10565
 Alpha virt. eigenvalues --    0.12464   0.12787   0.13494   0.14031   0.14525

 Mulliken charges:
               1
     1  C   -0.057686
     2  C    0.332280
     3  C    0.319682
     4  C   -0.665501
     5  C   -0.053336
     6  C    0.323655
     7  H    0.090159
     8  H    0.085703
     9  H   -0.206093
    10  H   -0.163340
    11  H    0.085461
    12  H    0.024894
    13  H    0.090566
    14  H   -0.206445
 Sum of Mulliken charges =  -0.00000

 Dipole moment (field-independent basis, Debye):
    X=              0.7435    Y=              2.4654    Z=              0.0637  Tot=              2.5759

 Test job not archived.
 1\1\GINC-SE220\SP\RHF\Aug-CC-pVDZ\C6H8\OHZDE\09-Apr-2025\0\\#t hf aug-
 cc-pvdz iop(5/13=1,5/36=2,99/5=2) pseudo=read geom=check guess=(read,t
 check) scf=(maxcycle=1)\\title\\0,1\C,0,-1.25699834,-0.39750636,0.5866
 8205\C,0,-0.53970442,0.90419927,0.21205597\C,0,1.05072465,0.72435782,0
 .19887867\C,0,1.63307143,-0.28155745,0.99493737\C,0,-0.62240942,-1.052
 33601,-0.68696426\C,0,0.05344143,0.29169171,-0.97848825\H,0,-2.3468671
 3,-0.29316411,0.5092561\H,0,-0.97654617,-0.84073959,1.54641468\H,0,-0.
 85764595,1.92935359,0.40022409\H,0,1.49722115,1.69237036,-0.0753824\H,

 Normal termination of Gaussian 16 at Wed Apr  9 15:51:59 2025.
