 Gaussian 16, Revision C.01,

 ----------------------------------------------------------------------
 #t hf aug-cc-pvdz symm=none int=(grid=ultrafine) guess=(read,tcheck) s
 table=(opt,rrhf)
 ----------------------------------------------------------------------
 -----
 title
 -----
 Symbolic Z-matrix:
 Charge =  0 Multiplicity = 1

 SCF Done:  E(RHF) =  -307.805830154     A.U. after   15 cycles

 1\1\GINC-SE219\Stability\RHF\Aug-CC-pVDZ\C6H10O1\OHZDE\09-Apr-2025\0\\
 #t hf aug-cc-pvdz symm=none int=(grid=ultrafine) guess=(read,tcheck) s
 table=(opt,rrhf)\\title\\0,1\C,0,-2.90825458,-0.68319518,0.55379199\C,
 0,0.02060551,0.28844652,-1.57741277\O,0,0.15908662,1.46791415,-1.05040
 642\C,0,1.32057659,1.6328142,-0.1569253\C,0,1.88855329,0.25402808,-0.0
 2830857\C,0,0.94011563,-0.76315269,0.49103189\C,0,1.07766691,-0.575947
 86,-1.00552543\H,0,-3.98516433,-0.80384558,0.44441822\H,0,-2.70787058,
 0.11552505,1.26757814\H,0,-2.47835707,-1.61529565,0.91969518\H,0,-2.46

 Normal termination of Gaussian 16 at Wed Apr  9 17:57:14 2025.
 Gaussian 16:  ES64L-G16RevC.01  3-Jul-2019

 ----------------------------------------------------------------------
 #t hf aug-cc-pvdz iop(5/13=1,5/36=2,99/5=2) pseudo=read geom=check gue
 ss=(read,tcheck) scf=(maxcycle=1)
 ----------------------------------------------------------------------
 -----
 title
 -----
 Structure from the checkpoint file:  "Grambow2020_wb97xd3_006892_reverse_mol2.chk"
 Charge =  0 Multiplicity = 1

                         Standard orientation:
 ---------------------------------------------------------------------
 Center     Atomic      Atomic             Coordinates (Angstroms)
 Number     Number       Type             X           Y           Z
 ---------------------------------------------------------------------
      1          6           0       -3.361563   -0.047763   -0.230950
      2          6           0        0.082102   -0.620186    1.139395
      3          8           0        0.466680   -1.388400    0.164714
      4          6           0        1.424484   -0.785214   -0.780452
      5          6           0        1.509347    0.648324   -0.358601
      6          6           0        0.213976    1.373524   -0.356450
      7          6           0        0.692490    0.710271    0.918214
      8          1           0       -4.380751   -0.369570   -0.021307
      9          1           0       -3.071707   -0.398280   -1.221263
     10          1           0       -3.316055    1.040625   -0.201810
     11          1           0       -2.685663   -0.462439    0.516411
     12          1           0        2.364291   -1.327901   -0.677924
     13          1           0        1.013084   -0.946852   -1.776497
     14          1           0        2.444305    1.181194   -0.454562
     15          1           0       -0.631375    0.927749   -0.869008
     16          1           0        0.231886    2.454692   -0.364735
     17          1           0        0.933534    1.334241    1.766042
 ---------------------------------------------------------------------

 SCF Done:  E(RHF) =  -308.129517633     A.U. after    2 cycles

 The electronic state is 1-A.
 Alpha  occ. eigenvalues --  -20.60068 -11.30827 -11.29114 -11.26171 -11.26106
 Alpha  occ. eigenvalues --  -11.24695 -11.21039  -1.53004  -1.18207  -1.01211
 Alpha  occ. eigenvalues --   -0.93810  -0.89354  -0.82317  -0.78146  -0.72436
 Alpha  occ. eigenvalues --   -0.66979  -0.63615  -0.59762  -0.57674  -0.54415
 Alpha  occ. eigenvalues --   -0.54306  -0.54199  -0.53481  -0.51631  -0.45342
 Alpha  occ. eigenvalues --   -0.44041  -0.35080
 Alpha virt. eigenvalues --    0.02814   0.03391   0.03666   0.04496   0.05277
 Alpha virt. eigenvalues --    0.05738   0.06953   0.07694   0.08419   0.09260
 Alpha virt. eigenvalues --    0.10253   0.11576   0.12092   0.13286   0.13856

 Mulliken charges:
               1
     1  C   -0.261680
     2  C    0.196916
     3  O   -1.093314
     4  C    0.365401
     5  C    0.159291
     6  C    0.331230
     7  C    0.448312
     8  H    0.003742
     9  H    0.083430
    10  H    0.091813
    11  H    0.093762
    12  H    0.086853
    13  H    0.119666
    14  H   -0.179959
    15  H   -0.121799
    16  H   -0.155980
    17  H   -0.167685
 Sum of Mulliken charges =  -0.00000

 Dipole moment (field-independent basis, Debye):
    X=              2.4662    Y=              2.2387    Z=             -2.3805  Tot=              4.0940

 Test job not archived.
 1\1\GINC-SE219\SP\RHF\Aug-CC-pVDZ\C6H10O1\OHZDE\09-Apr-2025\0\\#t hf a
 ug-cc-pvdz iop(5/13=1,5/36=2,99/5=2) pseudo=read geom=check guess=(rea
 d,tcheck) scf=(maxcycle=1)\\title\\0,1\C,0,-2.90825458,-0.68319518,0.5
 5379199\C,0,0.02060551,0.28844652,-1.57741277\O,0,0.15908662,1.4679141
 5,-1.05040642\C,0,1.32057659,1.6328142,-0.1569253\C,0,1.88855329,0.254
 02808,-0.02830857\C,0,0.94011563,-0.76315269,0.49103189\C,0,1.07766691
 ,-0.57594786,-1.00552543\H,0,-3.98516433,-0.80384558,0.44441822\H,0,-2
 .70787058,0.11552505,1.26757814\H,0,-2.47835707,-1.61529565,0.91969518

 Normal termination of Gaussian 16 at Wed Apr  9 17:57:20 2025.
