 Gaussian 16, Revision C.01,

 ----------------------------------------------------------------------
 #t hf aug-cc-pvdz symm=none int=(grid=ultrafine) guess=(read,tcheck) s
 table=(opt,rrhf)
 ----------------------------------------------------------------------
 -----
 title
 -----
 Symbolic Z-matrix:
 Charge =  0 Multiplicity = 1

 SCF Done:  E(RHF) =  -287.885728291     A.U. after   16 cycles

 1\1\GINC-SE030\Stability\RHF\Aug-CC-pVDZ\C6H11N1\OHZDE\09-Apr-2025\0\\
 #t hf aug-cc-pvdz symm=none int=(grid=ultrafine) guess=(read,tcheck) s
 table=(opt,rrhf)\\title\\0,1\C,0,-2.43570109,-0.13367594,-0.91141894\C
 ,0,-1.3512169,-0.3901297,0.12763737\C,0,0.00372028,0.10711481,-0.31520
 034\C,0,1.16011904,-0.01587862,0.75731886\C,0,2.46491529,-0.6473881,0.
 32551321\C,0,0.93193799,1.37186472,0.53258468\N,0,0.82620355,2.5776042
 1,0.39070378\H,0,-3.40254538,-0.51314828,-0.5762341\H,0,-2.54332808,0.
 93505751,-1.11012388\H,0,-2.19486681,-0.6235922,-1.85780064\H,0,-1.629

 Normal termination of Gaussian 16 at Wed Apr  9 17:46:16 2025.
 Gaussian 16:  ES64L-G16RevC.01  3-Jul-2019

 ----------------------------------------------------------------------
 #t hf aug-cc-pvdz iop(5/13=1,5/36=2,99/5=2) pseudo=read geom=check gue
 ss=(read,tcheck) scf=(maxcycle=1)
 ----------------------------------------------------------------------
 -----
 title
 -----
 Structure from the checkpoint file:  "Grambow2020_wb97xd3_006816_reverse_mol1.chk"
 Charge =  0 Multiplicity = 1

                         Standard orientation:
 ---------------------------------------------------------------------
 Center     Atomic      Atomic             Coordinates (Angstroms)
 Number     Number       Type             X           Y           Z
 ---------------------------------------------------------------------
      1          6           0       -2.805329   -0.103558   -0.268218
      2          6           0       -1.530998   -0.470241    0.482207
      3          6           0       -0.285017   -0.198191   -0.325712
      4          6           0        1.084274   -0.442098    0.428101
      5          6           0        2.137527   -1.277486   -0.265109
      6          6           0        0.989007    0.952683    0.156230
      7          7           0        1.008635    2.153299   -0.051750
      8          1           0       -3.692656   -0.321187    0.328795
      9          1           0       -2.820219    0.959424   -0.519428
     10          1           0       -2.885305   -0.665359   -1.201835
     11          1           0       -1.488801    0.098696    1.418030
     12          1           0       -1.573868   -1.528573    0.774768
     13          1           0       -0.252443   -0.635055   -1.322707
     14          1           0       -0.014613    1.435248   -0.509817
     15          1           0        0.930458   -0.703257    1.474817
     16          1           0        1.827905   -2.323919   -0.271971
     17          1           0        2.273339   -0.952794   -1.297545
     18          1           0        3.098975   -1.202970    0.244148
 ---------------------------------------------------------------------

 SCF Done:  E(RHF) =  -288.197468254     A.U. after    2 cycles

 The electronic state is 1-A.
 Alpha  occ. eigenvalues --  -15.50879 -11.34149 -11.27935 -11.25146 -11.23815
 Alpha  occ. eigenvalues --  -11.23529 -11.22607  -1.27431  -1.13244  -1.04485
 Alpha  occ. eigenvalues --   -0.96342  -0.87547  -0.80385  -0.72496  -0.67862
 Alpha  occ. eigenvalues --   -0.63775  -0.61789  -0.60579  -0.60164  -0.57117
 Alpha  occ. eigenvalues --   -0.55829  -0.53620  -0.50737  -0.49304  -0.48612
 Alpha  occ. eigenvalues --   -0.45527  -0.31727
 Alpha virt. eigenvalues --    0.03052   0.03440   0.03611   0.04291   0.05250
 Alpha virt. eigenvalues --    0.05620   0.06471   0.07321   0.08293   0.09048
 Alpha virt. eigenvalues --    0.09390   0.10637   0.11820   0.12840   0.13314

 Mulliken charges:
               1
     1  C   -0.355286
     2  C   -0.290194
     3  C   -0.446358
     4  C    0.074911
     5  C   -0.215105
     6  C   -1.663546
     7  N    0.789814
     8  H    0.120783
     9  H    0.152426
    10  H    0.167820
    11  H    0.115103
    12  H    0.142265
    13  H   -0.144280
    14  H    0.910942
    15  H    0.018488
    16  H    0.217347
    17  H    0.211765
    18  H    0.193104
 Sum of Mulliken charges =  -0.00000

 Dipole moment (field-independent basis, Debye):
    X=             -0.5243    Y=             -4.0025    Z=              0.2949  Tot=              4.0474

 Test job not archived.
 1\1\GINC-SE030\SP\RHF\Aug-CC-pVDZ\C6H11N1\OHZDE\09-Apr-2025\0\\#t hf a
 ug-cc-pvdz iop(5/13=1,5/36=2,99/5=2) pseudo=read geom=check guess=(rea
 d,tcheck) scf=(maxcycle=1)\\title\\0,1\C,0,-2.43570109,-0.13367594,-0.
 91141894\C,0,-1.3512169,-0.3901297,0.12763737\C,0,0.00372028,0.1071148
 1,-0.31520034\C,0,1.16011904,-0.01587862,0.75731886\C,0,2.46491529,-0.
 6473881,0.32551321\C,0,0.93193799,1.37186472,0.53258468\N,0,0.82620355
 ,2.57760421,0.39070378\H,0,-3.40254538,-0.51314828,-0.5762341\H,0,-2.5
 4332808,0.93505751,-1.11012388\H,0,-2.19486681,-0.6235922,-1.85780064\

 Normal termination of Gaussian 16 at Wed Apr  9 17:46:24 2025.
