 Gaussian 16, Revision C.01,

 ----------------------------------------------------------------------
 #t hf aug-cc-pvdz symm=none int=(grid=ultrafine) guess=(read,tcheck) s
 table=(opt,rrhf)
 ----------------------------------------------------------------------
 -----
 title
 -----
 Symbolic Z-matrix:
 Charge =  0 Multiplicity = 1

 SCF Done:  E(RHF) =  -343.536971310     A.U. after   15 cycles
 Normal termination of Gaussian 16 at Wed Apr  9 18:32:31 2025.
 Gaussian 16:  ES64L-G16RevC.01  3-Jul-2019

 ----------------------------------------------------------------------
 #t hf aug-cc-pvdz iop(5/13=1,5/36=2,99/5=2) pseudo=read geom=check gue
 ss=(read,tcheck) scf=(maxcycle=1)
 ----------------------------------------------------------------------
 -----
 title
 -----
 Structure from the checkpoint file:  "Grambow2020_wb97xd3_007683_forward_mol1.chk"
 Charge =  0 Multiplicity = 1

                         Standard orientation:
 ---------------------------------------------------------------------
 Center     Atomic      Atomic             Coordinates (Angstroms)
 Number     Number       Type             X           Y           Z
 ---------------------------------------------------------------------
      1          6           0       -1.669654   -0.993254   -0.361595
      2          6           0       -0.663782   -0.492042    0.652289
      3          6           0        0.781163   -0.911177    0.452614
      4          8           0        1.241605   -0.695735   -0.849160
      5          6           0        1.443792    0.360533    0.081134
      6          6           0       -0.271307    0.986429    0.536118
      7          8           0       -0.649928    1.769027   -0.451138
      8          1           0       -1.815991   -2.069819   -0.258546
      9          1           0       -1.330905   -0.779085   -1.373683
     10          1           0       -2.631062   -0.499200   -0.219098
     11          1           0       -0.980227   -0.700572    1.676391
     12          1           0        1.276890   -1.688211    1.022381
     13          1           0        2.461724    0.621409    0.353725
     14          1           0       -0.015103    1.440589    1.506213
     15          1           0        0.579978    1.385620   -0.468367
 ---------------------------------------------------------------------

 SCF Done:  E(RHF) =  -343.890327181     A.U. after    2 cycles

 The electronic state is 1-A.
 Alpha  occ. eigenvalues --  -20.58484 -20.50610 -11.37962 -11.32124 -11.29918
 Alpha  occ. eigenvalues --  -11.26556 -11.23131  -1.53403  -1.44704  -1.11627
 Alpha  occ. eigenvalues --   -0.98525  -0.89204  -0.87899  -0.77007  -0.75987
 Alpha  occ. eigenvalues --   -0.70609  -0.65684  -0.63042  -0.60773  -0.57751
 Alpha  occ. eigenvalues --   -0.54997  -0.53832  -0.51877  -0.48903  -0.44860
 Alpha  occ. eigenvalues --   -0.40672  -0.36437
 Alpha virt. eigenvalues --    0.02473   0.03463   0.03585   0.04695   0.05959
 Alpha virt. eigenvalues --    0.06552   0.07035   0.08196   0.09686   0.11298
 Alpha virt. eigenvalues --    0.12305   0.12961   0.13080   0.13589   0.14361

 Mulliken charges:
               1
     1  C   -0.216193
     2  C   -0.547500
     3  C    1.160214
     4  O   -1.352279
     5  C   -0.064682
     6  C    1.286344
     7  O   -1.596300
     8  H    0.177897
     9  H    0.237020
    10  H    0.173236
    11  H    0.042233
    12  H   -0.042913
    13  H   -0.069176
    14  H    0.190878
    15  H    0.621222
 Sum of Mulliken charges =   0.00000

 Dipole moment (field-independent basis, Debye):
    X=              1.0109    Y=             -1.8174    Z=              3.5226  Tot=              4.0906

 Test job not archived.
 1\1\GINC-SE162\SP\RHF\Aug-CC-pVDZ\C5H8O2\OHZDE\09-Apr-2025\0\\#t hf au
 g-cc-pvdz iop(5/13=1,5/36=2,99/5=2) pseudo=read geom=check guess=(read
 ,tcheck) scf=(maxcycle=1)\\title\\0,1\C,0,1.72641111,-0.54205642,0.096
 26178\C,0,0.47755712,0.13599237,0.61738344\C,0,-0.14675376,1.20036595,
 -0.26621989\O,0,-0.32542652,0.78282428,-1.58787546\C,0,-1.41385371,0.5
 6655565,-0.69872931\C,0,-0.81144934,-0.69392738,0.56167314\O,0,-0.9010
 1152,-1.86887934,-0.02309485\H,0,2.56780312,0.15296606,0.09091207\H,0,
 1.56714983,-0.91016705,-0.9157014\H,0,1.98662126,-1.39394461,0.7249728

 Normal termination of Gaussian 16 at Wed Apr  9 18:32:36 2025.
