 Gaussian 16, Revision C.01,

 ----------------------------------------------------------------------
 #t hf aug-cc-pvdz symm=none int=(grid=ultrafine) guess=(read,tcheck) s
 table=(opt,rrhf)
 ----------------------------------------------------------------------
 -----
 title
 -----
 Symbolic Z-matrix:
 Charge =  0 Multiplicity = 1

 SCF Done:  E(RHF) =  -308.880673843     A.U. after   16 cycles

 1\1\GINC-SE117\Stability\RHF\Aug-CC-pVDZ\C6H12O1\OHZDE\09-Apr-2025\0\\
 #t hf aug-cc-pvdz symm=none int=(grid=ultrafine) guess=(read,tcheck) s
 table=(opt,rrhf)\\title\\0,1\C,0,2.6872441,0.4493778,0.79886792\C,0,1.
 53337744,0.13035068,-0.12402231\O,0,0.56504876,-0.62811892,0.57552573\
 C,0,-0.42800205,-1.32714321,-0.39635954\C,0,-1.15349356,-0.05653715,1.
 01445793\C,0,-1.71047143,-0.47708087,-0.24028192\C,0,-1.97417617,0.561
 71284,-1.31112214\H,0,3.13153184,-0.46879206,1.1851864\H,0,2.35638554,
 1.05290884,1.64647606\H,0,3.45646221,1.00853653,0.26311046\H,0,1.82892

 Normal termination of Gaussian 16 at Wed Apr  9 19:21:35 2025.
 Gaussian 16:  ES64L-G16RevC.01  3-Jul-2019

 ----------------------------------------------------------------------
 #t hf aug-cc-pvdz iop(5/13=1,5/36=2,99/5=2) pseudo=read geom=check gue
 ss=(read,tcheck) scf=(maxcycle=1)
 ----------------------------------------------------------------------
 -----
 title
 -----
 Structure from the checkpoint file:  "Grambow2020_wb97xd3_009424_forward_mol1.chk"
 Charge =  0 Multiplicity = 1

                         Standard orientation:
 ---------------------------------------------------------------------
 Center     Atomic      Atomic             Coordinates (Angstroms)
 Number     Number       Type             X           Y           Z
 ---------------------------------------------------------------------
      1          6           0        2.844545    0.292340    0.260544
      2          6           0        1.461288    0.549891   -0.291886
      3          8           0        0.672526   -0.616627   -0.152623
      4          6           0       -0.596934   -0.561367   -1.049709
      5          6           0       -0.813350   -0.797550    0.957419
      6          6           0       -1.723179   -0.283211   -0.027020
      7          6           0       -2.198072    1.150645    0.090726
      8          1           0        3.312180   -0.545618   -0.257929
      9          1           0        2.803896    0.056473    1.325847
     10          1           0        3.473562    1.175005    0.131580
     11          1           0        1.463586    0.787203   -1.362302
     12          1           0        0.987295    1.395918    0.222502
     13          1           0       -0.628866   -1.582470   -1.440241
     14          1           0       -0.389203   -0.174138    1.740024
     15          1           0       -0.769210   -1.863322    1.133246
     16          1           0       -2.535259   -0.977267   -0.244535
     17          1           0       -2.634922    1.470979   -0.855599
     18          1           0       -2.945253    1.265487    0.881332
     19          1           0       -1.363797    1.820286    0.306611
 ---------------------------------------------------------------------

 SCF Done:  E(RHF) =  -309.213081213     A.U. after    2 cycles

 The electronic state is 1-A.
 Alpha  occ. eigenvalues --  -20.55488 -11.35017 -11.27323 -11.24171 -11.22321
 Alpha  occ. eigenvalues --  -11.22225 -11.22103  -1.45017  -1.12111  -1.01330
 Alpha  occ. eigenvalues --   -0.95247  -0.87790  -0.83679  -0.75510  -0.70136
 Alpha  occ. eigenvalues --   -0.65044  -0.63218  -0.60752  -0.59368  -0.58408
 Alpha  occ. eigenvalues --   -0.55027  -0.53275  -0.52936  -0.51336  -0.48525
 Alpha  occ. eigenvalues --   -0.46498  -0.40939  -0.26557
 Alpha virt. eigenvalues --    0.02685   0.03555   0.03777   0.04480   0.05813
 Alpha virt. eigenvalues --    0.05829   0.06006   0.06698   0.07021   0.08583
 Alpha virt. eigenvalues --    0.08878   0.09686   0.10511   0.12630   0.13671

 Mulliken charges:
               1
     1  C   -0.480978
     2  C    0.509795
     3  O   -1.313027
     4  C    0.332266
     5  C    0.491245
     6  C   -0.351256
     7  C   -0.323026
     8  H    0.167728
     9  H    0.152726
    10  H    0.155776
    11  H    0.108284
    12  H    0.067187
    13  H   -0.143185
    14  H   -0.010698
    15  H   -0.022506
    16  H    0.063217
    17  H    0.212230
    18  H    0.200239
    19  H    0.183986
 Sum of Mulliken charges =   0.00000

 Dipole moment (field-independent basis, Debye):
    X=             -0.4040    Y=             -0.4196    Z=              3.6550  Tot=              3.7012

 Test job not archived.
 1\1\GINC-SE117\SP\RHF\Aug-CC-pVDZ\C6H12O1\OHZDE\09-Apr-2025\0\\#t hf a
 ug-cc-pvdz iop(5/13=1,5/36=2,99/5=2) pseudo=read geom=check guess=(rea
 d,tcheck) scf=(maxcycle=1)\\title\\0,1\C,0,2.6872441,0.4493778,0.79886
 792\C,0,1.53337744,0.13035068,-0.12402231\O,0,0.56504876,-0.62811892,0
 .57552573\C,0,-0.42800205,-1.32714321,-0.39635954\C,0,-1.15349356,-0.0
 5653715,1.01445793\C,0,-1.71047143,-0.47708087,-0.24028192\C,0,-1.9741
 7617,0.56171284,-1.31112214\H,0,3.13153184,-0.46879206,1.1851864\H,0,2
 .35638554,1.05290884,1.64647606\H,0,3.45646221,1.00853653,0.26311046\H

 Normal termination of Gaussian 16 at Wed Apr  9 19:21:43 2025.
