 Gaussian 16, Revision C.01,

 ----------------------------------------------------------------------
 #t hf aug-cc-pvdz symm=none int=(grid=ultrafine) guess=(read,tcheck) s
 table=(opt,rrhf)
 ----------------------------------------------------------------------
 -----
 title
 -----
 Symbolic Z-matrix:
 Charge =  0 Multiplicity = 1

 SCF Done:  E(RHF) =  -322.540277403     A.U. after   17 cycles
 Normal termination of Gaussian 16 at Wed Apr  9 03:26:52 2025.
 Gaussian 16:  ES64L-G16RevC.01  3-Jul-2019

 ----------------------------------------------------------------------
 #t hf aug-cc-pvdz iop(5/13=1,5/36=2,99/5=2) pseudo=read geom=check gue
 ss=(read,tcheck) scf=(maxcycle=1)
 ----------------------------------------------------------------------
 -----
 title
 -----
 Structure from the checkpoint file:  "Grambow2020_wb97xd3_006629_reverse_mol1.chk"
 Charge =  0 Multiplicity = 1

                         Standard orientation:
 ---------------------------------------------------------------------
 Center     Atomic      Atomic             Coordinates (Angstroms)
 Number     Number       Type             X           Y           Z
 ---------------------------------------------------------------------
      1          8           0       -2.609513   -0.154528   -0.213388
      2          6           0       -1.425774   -0.135729   -0.426693
      3          6           0       -0.439276   -0.150696    0.694138
      4          6           0        1.008595   -0.728734    0.517246
      5          6           0        1.662466   -0.990839   -0.712677
      6          6           0        0.923698    1.459424   -0.342568
      7          7           0        0.696043    0.697504    0.732702
      8          1           0       -1.012211   -0.150029   -1.446604
      9          1           0       -0.869862   -0.386334    1.660695
     10          1           0        1.225256   -1.342167    1.392044
     11          1           0        1.881055   -2.022716   -0.962108
     12          1           0        2.324012   -0.262377   -1.144639
     13          1           0        0.128447    2.090652   -0.717345
     14          1           0        1.948854    1.706113   -0.580520
 ---------------------------------------------------------------------

 SCF Done:  E(RHF) =  -322.872000035     A.U. after    2 cycles

 The electronic state is 1-A.
 Alpha  occ. eigenvalues --  -20.55992 -15.58028 -11.35065 -11.33421 -11.31758
 Alpha  occ. eigenvalues --  -11.30871 -11.22112  -1.49199  -1.35916  -1.07165
 Alpha  occ. eigenvalues --   -0.99871  -0.93941  -0.81448  -0.79172  -0.73949
 Alpha  occ. eigenvalues --   -0.71303  -0.70693  -0.65317  -0.60357  -0.58139
 Alpha  occ. eigenvalues --   -0.56837  -0.55581  -0.52388  -0.44689  -0.43703
 Alpha  occ. eigenvalues --   -0.26625
 Alpha virt. eigenvalues --    0.01549   0.03274   0.03966   0.04494   0.04814
 Alpha virt. eigenvalues --    0.05511   0.06442   0.07063   0.08761   0.09725
 Alpha virt. eigenvalues --    0.10468   0.12355   0.13643   0.14054   0.14350

 Mulliken charges:
               1
     1  O   -1.157537
     2  C    1.050502
     3  C   -0.375286
     4  C    0.373803
     5  C   -0.174465
     6  C   -0.255311
     7  N    0.872433
     8  H    0.147594
     9  H   -0.151227
    10  H   -0.162139
    11  H   -0.096558
    12  H   -0.071479
    13  H   -0.024909
    14  H    0.024578
 Sum of Mulliken charges =  -0.00000

 Dipole moment (field-independent basis, Debye):
    X=              2.0451    Y=              0.9241    Z=              0.2797  Tot=              2.2615

 Test job not archived.
 1\1\GINC-SE159\SP\RHF\Aug-CC-pVDZ\C5H7N1O1\OHZDE\09-Apr-2025\0\\#t hf
 aug-cc-pvdz iop(5/13=1,5/36=2,99/5=2) pseudo=read geom=check guess=(re
 ad,tcheck) scf=(maxcycle=1)\\title\\0,1\O,0,1.6033904,2.41052507,0.804
 19044\C,0,1.06746848,1.33947719,0.69134999\C,0,0.28477438,0.99321461,-
 0.53223359\C,0,0.1024953,-0.49074002,-1.00805009\C,0,0.34109009,-1.654
 57759,-0.23506057\C,0,-1.42461932,-0.02445379,0.71967243\N,0,-0.982817
 67,0.36026941,-0.48255686\H,0,1.16056469,0.55247701,1.45516948\H,0,0.4
 2137578,1.68420118,-1.35627286\H,0,0.25978854,-0.51027805,-2.08665549\

 Normal termination of Gaussian 16 at Wed Apr  9 03:26:57 2025.
