 Gaussian 16, Revision C.01,

 ----------------------------------------------------------------------
 #t hf aug-cc-pvdz symm=none int=(grid=ultrafine) guess=(read,tcheck) s
 table=(opt,rrhf)
 ----------------------------------------------------------------------
 -----
 title
 -----
 Symbolic Z-matrix:
 Charge =  0 Multiplicity = 1

 SCF Done:  E(RHF) =  -360.852574333     A.U. after   14 cycles
 Normal termination of Gaussian 16 at Wed Apr  9 17:28:16 2025.
 Gaussian 16:  ES64L-G16RevC.01  3-Jul-2019

 ----------------------------------------------------------------------
 #t hf aug-cc-pvdz iop(5/13=1,5/36=2,99/5=2) pseudo=read geom=check gue
 ss=(read,tcheck) scf=(maxcycle=1)
 ----------------------------------------------------------------------
 -----
 title
 -----
 Structure from the checkpoint file:  "Grambow2020_wb97xd3_006602_forward_mol1.chk"
 Charge =  0 Multiplicity = 1

                         Standard orientation:
 ---------------------------------------------------------------------
 Center     Atomic      Atomic             Coordinates (Angstroms)
 Number     Number       Type             X           Y           Z
 ---------------------------------------------------------------------
      1          6           0       -2.748389   -0.347272    0.071338
      2          6           0       -1.364485    0.083007   -0.364657
      3          8           0       -1.139856    1.379302    0.156002
      4          6           0       -0.293948   -0.887332    0.131438
      5          7           0        1.029344   -0.459393   -0.251685
      6          6           0        2.000004   -0.046361    0.499611
      7          8           0        3.004312    0.236039   -0.237879
      8          1           0       -2.986911   -1.340587   -0.312948
      9          1           0       -3.494227    0.355848   -0.298473
     10          1           0       -2.812802   -0.368132    1.161232
     11          1           0       -1.316991    0.111271   -1.462382
     12          1           0       -0.288840    1.686187   -0.166112
     13          1           0       -0.362412   -0.957702    1.222341
     14          1           0       -0.484221   -1.880915   -0.283794
     15          1           0        2.062570   -0.181871   -1.053138
     16          1           0        2.003689    0.056667    1.583704
 ---------------------------------------------------------------------

 SCF Done:  E(RHF) =  -361.225452277     A.U. after    2 cycles

 The electronic state is 1-A.
 Alpha  occ. eigenvalues --  -20.55084 -20.54301 -15.51275 -11.36974 -11.29415
 Alpha  occ. eigenvalues --  -11.28043 -11.23157  -1.49658  -1.45800  -1.23156
 Alpha  occ. eigenvalues --   -1.06239  -0.97022  -0.84737  -0.82901  -0.74362
 Alpha  occ. eigenvalues --   -0.71996  -0.67401  -0.65228  -0.60447  -0.59170
 Alpha  occ. eigenvalues --   -0.57094  -0.54869  -0.54311  -0.52807  -0.50465
 Alpha  occ. eigenvalues --   -0.46198  -0.45116  -0.40623
 Alpha virt. eigenvalues --    0.03567   0.03754   0.04208   0.04519   0.05712
 Alpha virt. eigenvalues --    0.06307   0.07055   0.07273   0.08283   0.09959
 Alpha virt. eigenvalues --    0.11927   0.12728   0.13435   0.13865   0.14284

 Mulliken charges:
               1
     1  C   -0.282523
     2  C    0.827177
     3  O   -1.333904
     4  C   -0.847173
     5  N    0.502485
     6  C    0.552559
     7  O   -1.172385
     8  H    0.197403
     9  H    0.137970
    10  H    0.201208
    11  H    0.144108
    12  H    0.324808
    13  H    0.071661
    14  H    0.084192
    15  H    0.511886
    16  H    0.080529
 Sum of Mulliken charges =  -0.00000

 Dipole moment (field-independent basis, Debye):
    X=             -1.2892    Y=             -1.4678    Z=              0.6770  Tot=              2.0676

 Test job not archived.
 1\1\GINC-SE041\SP\RHF\Aug-CC-pVDZ\C4H9N1O2\OHZDE\09-Apr-2025\0\\#t hf
 aug-cc-pvdz iop(5/13=1,5/36=2,99/5=2) pseudo=read geom=check guess=(re
 ad,tcheck) scf=(maxcycle=1)\\title\\0,1\C,0,-2.20433646,-0.74578832,-0
 .10888769\C,0,-0.85576865,-0.22836151,-0.56061322\O,0,-0.9917945,1.160
 03874,-0.79675871\C,0,0.22455626,-0.4910538,0.4870556\N,0,1.50327851,0
 .03403596,0.07454227\C,0,2.18356633,1.01161975,0.58322608\O,0,3.265463
 69,1.15419849,-0.08118826\H,0,-2.16701177,-1.82055945,0.07743717\H,0,-
 2.9561693,-0.55238504,-0.87358031\H,0,-2.515738,-0.24148504,0.80826038

 Normal termination of Gaussian 16 at Wed Apr  9 17:28:21 2025.
