 Gaussian 16, Revision C.01,

 ----------------------------------------------------------------------
 #t hf aug-cc-pvdz symm=none int=(grid=ultrafine) guess=(read,tcheck) s
 table=(opt,rrhf)
 ----------------------------------------------------------------------
 -----
 title
 -----
 Symbolic Z-matrix:
 Charge =  0 Multiplicity = 1

 SCF Done:  E(RHF) =  -353.260158228     A.U. after   18 cycles
 Normal termination of Gaussian 16 at Wed Apr  9 18:36:12 2025.
 Gaussian 16:  ES64L-G16RevC.01  3-Jul-2019

 ----------------------------------------------------------------------
 #t hf aug-cc-pvdz iop(5/13=1,5/36=2,99/5=2) pseudo=read geom=check gue
 ss=(read,tcheck) scf=(maxcycle=1)
 ----------------------------------------------------------------------
 -----
 title
 -----
 Structure from the checkpoint file:  "Grambow2020_wb97xd3_007761_forward_mol1.chk"
 Charge =  0 Multiplicity = 1

                         Standard orientation:
 ---------------------------------------------------------------------
 Center     Atomic      Atomic             Coordinates (Angstroms)
 Number     Number       Type             X           Y           Z
 ---------------------------------------------------------------------
      1          8           0       -1.573338    1.089911   -0.042145
      2          6           0       -2.052609   -1.058050   -0.234061
      3          7           0       -0.798803   -0.898324    0.137317
      4          6           0        2.684444   -0.650992   -0.197315
      5          7           0        1.767055    0.117246   -0.003010
      6          6           0        0.755181    0.875645    0.040419
      7          7           0       -0.542628    0.328118    0.066923
      8          1           0       -2.727460   -1.419721    0.557094
      9          1           0        3.207531   -1.080399    0.658974
     10          1           0        0.805171    1.951945    0.058221
 ---------------------------------------------------------------------

 SCF Done:  E(RHF) =  -353.604824259     A.U. after    2 cycles

 The electronic state is 1-A.
 Alpha  occ. eigenvalues --  -20.54865 -15.71339 -15.62172 -15.60592 -11.36029
 Alpha  occ. eigenvalues --  -11.34580 -11.31922  -1.57611  -1.36348  -1.34112
 Alpha  occ. eigenvalues --   -1.17642  -1.06167  -0.93951  -0.77772  -0.76873
 Alpha  occ. eigenvalues --   -0.76653  -0.73858  -0.70781  -0.62553  -0.60871
 Alpha  occ. eigenvalues --   -0.56933  -0.49335  -0.46230  -0.39718  -0.33502
 Alpha virt. eigenvalues --    0.00313   0.02954   0.04211   0.04938   0.05676
 Alpha virt. eigenvalues --    0.06186   0.07769   0.09133   0.09861   0.10608
 Alpha virt. eigenvalues --    0.10837   0.11893   0.14366   0.14792   0.15189

 Mulliken charges:
               1
     1  O   -1.501257
     2  C   -0.097358
     3  N    0.187741
     4  C   -0.352442
     5  N    0.835274
     6  C   -0.379712
     7  N    1.087929
     8  H    0.123057
     9  H    0.122476
    10  H   -0.025708
 Sum of Mulliken charges =  -0.00000

 Dipole moment (field-independent basis, Debye):
    X=              1.8835    Y=             -0.7037    Z=              2.6664  Tot=              3.3395

 Test job not archived.
 1\1\GINC-SE226\SP\RHF\Aug-CC-pVDZ\C3H3N3O1\OHZDE\09-Apr-2025\0\\#t hf
 aug-cc-pvdz iop(5/13=1,5/36=2,99/5=2) pseudo=read geom=check guess=(re
 ad,tcheck) scf=(maxcycle=1)\\title\\0,1\O,0,0.43548389,-2.00446177,0.1
 2492008\C,0,2.30193126,-0.82271582,0.11400479\N,0,1.25740106,-0.030894
 33,0.24605341\C,0,-1.29099288,2.17721596,-0.72146916\N,0,-1.21935238,1
 .01119755,-0.39771858\C,0,-1.05109582,-0.22791783,-0.20477379\N,0,0.23
 234923,-0.7351404,0.07857995\H,0,2.90017093,-0.9565394,1.02852975\H,0,
 -1.4908435,2.9292204,0.04390015\H,0,-1.84136679,-0.95957537,-0.2420166

 Normal termination of Gaussian 16 at Wed Apr  9 18:36:15 2025.
