 Gaussian 16, Revision C.01,

 ----------------------------------------------------------------------
 #t hf aug-cc-pvdz symm=none int=(grid=ultrafine) guess=(read,tcheck) s
 table=(opt,rrhf)
 ----------------------------------------------------------------------
 -----
 title
 -----
 Symbolic Z-matrix:
 Charge =  0 Multiplicity = 1

 SCF Done:  E(RHF) =  -338.639443386     A.U. after   14 cycles
 Normal termination of Gaussian 16 at Wed Apr  9 19:09:50 2025.
 Gaussian 16:  ES64L-G16RevC.01  3-Jul-2019

 ----------------------------------------------------------------------
 #t hf aug-cc-pvdz iop(5/13=1,5/36=2,99/5=2) pseudo=read geom=check gue
 ss=(read,tcheck) scf=(maxcycle=1)
 ----------------------------------------------------------------------
 -----
 title
 -----
 Structure from the checkpoint file:  "Grambow2020_wb97xd3_008805_reverse_mol1.chk"
 Charge =  0 Multiplicity = 1

                         Standard orientation:
 ---------------------------------------------------------------------
 Center     Atomic      Atomic             Coordinates (Angstroms)
 Number     Number       Type             X           Y           Z
 ---------------------------------------------------------------------
      1          7           0        1.964774   -1.300173    0.214024
      2          6           0        1.742424   -0.334635   -0.622992
      3          6           0       -1.260726   -0.495515    0.230664
      4          8           0       -2.525313   -0.775117   -0.132462
      5          7           0       -1.058142    0.789223   -0.022157
      6          6           0        0.163726    1.470181    0.158455
      7          6           0        1.369863    0.940840   -0.039875
      8          1           0        1.762485   -1.244328    1.208350
      9          1           0        2.237115   -2.207431   -0.129649
     10          1           0       -2.677912   -1.698410    0.070391
     11          1           0       -1.834219    1.341850   -0.375851
     12          1           0        0.055116    2.503861    0.459668
     13          1           0        2.221766    1.596825    0.126202
 ---------------------------------------------------------------------

 SCF Done:  E(RHF) =  -338.979879294     A.U. after    2 cycles

 The electronic state is 1-A.
 Alpha  occ. eigenvalues --  -20.58532 -15.54528 -15.53638 -11.30342 -11.27163
 Alpha  occ. eigenvalues --  -11.25912 -11.24047  -1.50983  -1.26154  -1.24803
 Alpha  occ. eigenvalues --   -1.05325  -0.93189  -0.86328  -0.79124  -0.76824
 Alpha  occ. eigenvalues --   -0.73806  -0.67772  -0.65830  -0.63586  -0.59405
 Alpha  occ. eigenvalues --   -0.57275  -0.51908  -0.50354  -0.40550  -0.37715
 Alpha  occ. eigenvalues --   -0.31252
 Alpha virt. eigenvalues --    0.03428   0.03963   0.04415   0.05021   0.06087
 Alpha virt. eigenvalues --    0.06518   0.09844   0.10429   0.10475   0.11616
 Alpha virt. eigenvalues --    0.12165   0.12734   0.13801   0.14724   0.15442

 Mulliken charges:
               1
     1  N    0.768055
     2  C   -1.137542
     3  C    0.183437
     4  O   -1.108642
     5  N    0.630213
     6  C   -0.313825
     7  C    0.531744
     8  H    0.044412
     9  H    0.125739
    10  H    0.450160
    11  H    0.103810
    12  H   -0.177141
    13  H   -0.100419
 Sum of Mulliken charges =  -0.00000

 Dipole moment (field-independent basis, Debye):
    X=             -0.4624    Y=             -0.4039    Z=              2.0023  Tot=              2.0944

 Test job not archived.
 1\1\GINC-SE159\SP\RHF\Aug-CC-pVDZ\C4H6N2O1\OHZDE\09-Apr-2025\0\\#t hf
 aug-cc-pvdz iop(5/13=1,5/36=2,99/5=2) pseudo=read geom=check guess=(re
 ad,tcheck) scf=(maxcycle=1)\\title\\0,1\N,0,-1.79130266,1.35600195,0.1
 2267591\C,0,-0.74099226,1.34372575,0.88359384\C,0,-0.14044898,-1.50445
 319,-0.25691027\O,0,-0.03579218,-2.82222806,-0.00845034\N,0,1.05556134
 ,-0.97313904,-0.05008866\C,0,1.36135048,0.40068554,-0.14165616\C,0,0.5
 3955739,1.39083139,0.20268463\H,0,-1.75814486,1.25971555,-0.88843944\H
 ,0,-2.7095789,1.33535516,0.53708943\H,0,-0.89501579,-3.20903135,-0.178

 Normal termination of Gaussian 16 at Wed Apr  9 19:09:54 2025.
