 Gaussian 16, Revision C.01,

 ----------------------------------------------------------------------
 #t hf aug-cc-pvdz symm=none int=(grid=ultrafine) guess=(read,tcheck) s
 table=(opt,rrhf)
 ----------------------------------------------------------------------
 -----
 title
 -----
 Symbolic Z-matrix:
 Charge =  0 Multiplicity = 1

 SCF Done:  E(RHF) =  -310.218686479     A.U. after   13 cycles

 1\1\GINC-SE123\Stability\RHF\Aug-CC-pVDZ\C6H14O1\OHZDE\09-Apr-2025\0\\
 #t hf aug-cc-pvdz symm=none int=(grid=ultrafine) guess=(read,tcheck) s
 table=(opt,rrhf)\\title\\0,1\C,0,2.23207282,-1.09131733,-0.74557959\O,
 0,1.04678544,-0.68023349,-0.12147913\C,0,1.11020114,0.6465416,0.343915
 83\C,0,-0.18346021,1.00970716,1.01504779\C,0,-0.81253043,2.13653286,0.
 70889015\C,0,-1.83111277,-1.04223027,-1.86175205\C,0,-0.68200999,0.046
 64569,2.04926675\H,0,3.08698389,-1.04370849,-0.05752394\H,0,2.45959604
 ,-0.47238675,-1.62366768\H,0,2.09271507,-2.12269477,-1.06671505\H,0,1.

 Normal termination of Gaussian 16 at Wed Apr  9 03:59:12 2025.
 Gaussian 16:  ES64L-G16RevC.01  3-Jul-2019

 ----------------------------------------------------------------------
 #t hf aug-cc-pvdz iop(5/13=1,5/36=2,99/5=2) pseudo=read geom=check gue
 ss=(read,tcheck) scf=(maxcycle=1)
 ----------------------------------------------------------------------
 -----
 title
 -----
 Structure from the checkpoint file:  "Grambow2020_wb97xd3_008661_reverse_mol2.chk"
 Charge =  0 Multiplicity = 1

                         Standard orientation:
 ---------------------------------------------------------------------
 Center     Atomic      Atomic             Coordinates (Angstroms)
 Number     Number       Type             X           Y           Z
 ---------------------------------------------------------------------
      1          6           0       -2.284799   -1.162503   -0.041409
      2          8           0       -1.063708   -0.539911    0.249646
      3          6           0        0.007728   -1.073258   -0.490970
      4          6           0        1.281683   -0.372665   -0.114042
      5          6           0        2.096755    0.099900   -1.047603
      6          6           0       -0.938568    2.830525   -0.008014
      7          6           0        1.571052   -0.276120    1.353130
      8          1           0       -2.253597   -2.236607    0.186379
      9          1           0       -2.556286   -1.040592   -1.098440
     10          1           0       -3.048295   -0.691364    0.576159
     11          1           0       -0.178311   -0.970170   -1.568488
     12          1           0        0.104819   -2.150258   -0.273202
     13          1           0        0.011883    2.397393   -0.316224
     14          1           0        3.040552    0.567172   -0.791001
     15          1           0        1.852332    0.033071   -2.101723
     16          1           0       -1.203459    2.442527    0.973892
     17          1           0       -1.707983    2.544867   -0.723879
     18          1           0       -0.857224    3.916301    0.030133
     19          1           0        0.793977    0.304563    1.853291
     20          1           0        2.536651    0.194893    1.534976
     21          1           0        1.571495   -1.267786    1.814413
 ---------------------------------------------------------------------

 SCF Done:  E(RHF) =  -310.556653216     A.U. after    2 cycles

 The electronic state is 1-A.
 Alpha  occ. eigenvalues --  -20.54496 -11.28594 -11.28191 -11.24313 -11.22434
 Alpha  occ. eigenvalues --  -11.22350 -11.20365  -1.47003  -1.09423  -0.96414
 Alpha  occ. eigenvalues --   -0.93892  -0.93094  -0.88404  -0.73962  -0.67643
 Alpha  occ. eigenvalues --   -0.66126  -0.65827  -0.60524  -0.58979  -0.56561
 Alpha  occ. eigenvalues --   -0.54307  -0.53696  -0.53461  -0.53364  -0.52585
 Alpha  occ. eigenvalues --   -0.50096  -0.47572  -0.42017  -0.36308
 Alpha virt. eigenvalues --    0.03562   0.03725   0.03917   0.04173   0.05642
 Alpha virt. eigenvalues --    0.05865   0.06075   0.06646   0.07111   0.08713
 Alpha virt. eigenvalues --    0.08825   0.09261   0.09878   0.10538   0.13078

 Mulliken charges:
               1
     1  C    0.159382
     2  O   -1.174705
     3  C    0.262385
     4  C    0.223019
     5  C    0.177230
     6  C   -0.294336
     7  C   -0.467512
     8  H    0.160581
     9  H    0.204035
    10  H   -0.003698
    11  H    0.023293
    12  H    0.160181
    13  H    0.122694
    14  H   -0.179776
    15  H   -0.159145
    16  H    0.089112
    17  H    0.085393
    18  H    0.026630
    19  H    0.256797
    20  H    0.090034
    21  H    0.238406
 Sum of Mulliken charges =  -0.00000

 Dipole moment (field-independent basis, Debye):
    X=             -0.3890    Y=             -1.2096    Z=             -0.4066  Tot=              1.3341

 Test job not archived.
 1\1\GINC-SE123\SP\RHF\Aug-CC-pVDZ\C6H14O1\OHZDE\09-Apr-2025\0\\#t hf a
 ug-cc-pvdz iop(5/13=1,5/36=2,99/5=2) pseudo=read geom=check guess=(rea
 d,tcheck) scf=(maxcycle=1)\\title\\0,1\C,0,2.23207282,-1.09131733,-0.7
 4557959\O,0,1.04678544,-0.68023349,-0.12147913\C,0,1.11020114,0.646541
 6,0.34391583\C,0,-0.18346021,1.00970716,1.01504779\C,0,-0.81253043,2.1
 3653286,0.70889015\C,0,-1.83111277,-1.04223027,-1.86175205\C,0,-0.6820
 0999,0.04664569,2.04926675\H,0,3.08698389,-1.04370849,-0.05752394\H,0,
 2.45959604,-0.47238675,-1.62366768\H,0,2.09271507,-2.12269477,-1.06671

 Normal termination of Gaussian 16 at Wed Apr  9 03:59:20 2025.
