 Gaussian 16, Revision C.01,

 ----------------------------------------------------------------------
 #t hf aug-cc-pvdz symm=none int=(grid=ultrafine) guess=(read,tcheck) s
 table=(opt,rrhf)
 ----------------------------------------------------------------------
 -----
 title
 -----
 Symbolic Z-matrix:
 Charge =  0 Multiplicity = 1

 SCF Done:  E(RHF) =  -345.934152033     A.U. after   14 cycles

 1\1\GINC-SE362\Stability\RHF\Aug-CC-pVDZ\C5H12O2\OHZDE\09-Apr-2025\0\\
 #t hf aug-cc-pvdz symm=none int=(grid=ultrafine) guess=(read,tcheck) s
 table=(opt,rrhf)\\title\\0,1\C,0,-1.69872177,-0.66756172,1.24078796\O,
 0,-0.38617385,-0.14922258,1.14835164\C,0,-0.14234066,0.58820123,-0.045
 27671\C,0,-0.42548587,2.06577988,0.13432022\C,0,1.3185996,0.32168918,-
 0.36615083\C,0,0.82590547,-1.933378,-1.46662971\O,0,1.57950049,-1.0854
 5294,-0.23997466\H,0,-2.4414886,0.13589766,1.28392317\H,0,-1.75098913,
 -1.24025404,2.1655236\H,0,-1.91326767,-1.32179969,0.39004832\H,0,-0.73

 Normal termination of Gaussian 16 at Wed Apr  9 18:43:53 2025.
 Gaussian 16:  ES64L-G16RevC.01  3-Jul-2019

 ----------------------------------------------------------------------
 #t hf aug-cc-pvdz iop(5/13=1,5/36=2,99/5=2) pseudo=read geom=check gue
 ss=(read,tcheck) scf=(maxcycle=1)
 ----------------------------------------------------------------------
 -----
 title
 -----
 Structure from the checkpoint file:  "Grambow2020_wb97xd3_008011_reverse_mol2.chk"
 Charge =  0 Multiplicity = 1

                         Standard orientation:
 ---------------------------------------------------------------------
 Center     Atomic      Atomic             Coordinates (Angstroms)
 Number     Number       Type             X           Y           Z
 ---------------------------------------------------------------------
      1          6           0       -1.360830    1.780362    0.095850
      2          8           0       -0.813476    0.664773   -0.579327
      3          6           0       -0.563907   -0.453232    0.266709
      4          6           0       -1.745070   -1.400924    0.315698
      5          6           0        0.671419   -1.110650   -0.324990
      6          6           0        2.275545    0.525987    0.809615
      7          8           0        1.652630   -0.100288   -0.608596
      8          1           0       -2.348706    1.550140    0.508416
      9          1           0       -1.467234    2.577039   -0.638880
     10          1           0       -0.693542    2.107386    0.899341
     11          1           0       -0.295747   -0.086381    1.261517
     12          1           0       -2.011662   -1.737563   -0.688021
     13          1           0       -2.615460   -0.912850    0.755562
     14          1           0       -1.511256   -2.274206    0.928512
     15          1           0        0.442981   -1.608613   -1.270632
     16          1           0        1.126652   -1.814759    0.367857
     17          1           0        2.907967    1.290013    0.327680
     18          1           0        2.983292   -0.297079    1.003665
     19          1           0        1.106537    0.641741   -0.928923
 ---------------------------------------------------------------------

 SCF Done:  E(RHF) =  -346.299780537     A.U. after    2 cycles

 The electronic state is 1-A.
 Alpha  occ. eigenvalues --  -20.61721 -20.56228 -11.30640 -11.29629 -11.28835
 Alpha  occ. eigenvalues --  -11.24026 -11.21285  -1.52755  -1.47581  -1.07506
 Alpha  occ. eigenvalues --   -0.95926  -0.93824  -0.86522  -0.82730  -0.73984
 Alpha  occ. eigenvalues --   -0.69895  -0.67090  -0.64925  -0.62070  -0.61257
 Alpha  occ. eigenvalues --   -0.58199  -0.57077  -0.53854  -0.53030  -0.50662
 Alpha  occ. eigenvalues --   -0.49417  -0.48215  -0.43735  -0.30343
 Alpha virt. eigenvalues --    0.03375   0.03582   0.03776   0.04695   0.05999
 Alpha virt. eigenvalues --    0.06141   0.06624   0.07074   0.07685   0.09227
 Alpha virt. eigenvalues --    0.09313   0.10133   0.12286   0.13344   0.13712

 Mulliken charges:
               1
     1  C    0.178673
     2  O   -1.515582
     3  C    0.280694
     4  C   -0.455396
     5  C    0.936691
     6  C   -0.231254
     7  O   -1.286631
     8  H    0.180220
     9  H   -0.024591
    10  H    0.190678
    11  H    0.320070
    12  H    0.236358
    13  H    0.127747
    14  H    0.228582
    15  H    0.068344
    16  H    0.184555
    17  H   -0.003671
    18  H    0.017387
    19  H    0.567126
 Sum of Mulliken charges =  -0.00000

 Dipole moment (field-independent basis, Debye):
    X=             -2.6802    Y=             -1.2226    Z=             -1.4026  Tot=              3.2628

 Test job not archived.
 1\1\GINC-SE362\SP\RHF\Aug-CC-pVDZ\C5H12O2\OHZDE\09-Apr-2025\0\\#t hf a
 ug-cc-pvdz iop(5/13=1,5/36=2,99/5=2) pseudo=read geom=check guess=(rea
 d,tcheck) scf=(maxcycle=1)\\title\\0,1\C,0,-1.69872177,-0.66756172,1.2
 4078796\O,0,-0.38617385,-0.14922258,1.14835164\C,0,-0.14234066,0.58820
 123,-0.04527671\C,0,-0.42548587,2.06577988,0.13432022\C,0,1.3185996,0.
 32168918,-0.36615083\C,0,0.82590547,-1.933378,-1.46662971\O,0,1.579500
 49,-1.08545294,-0.23997466\H,0,-2.4414886,0.13589766,1.28392317\H,0,-1
 .75098913,-1.24025404,2.1655236\H,0,-1.91326767,-1.32179969,0.39004832

 Normal termination of Gaussian 16 at Wed Apr  9 18:44:00 2025.
