 Gaussian 16, Revision C.01,

 ----------------------------------------------------------------------
 #t hf aug-cc-pvdz symm=none int=(grid=ultrafine) guess=(read,tcheck) s
 table=(opt,rrhf)
 ----------------------------------------------------------------------
 -----
 title
 -----
 Symbolic Z-matrix:
 Charge =  0 Multiplicity = 1

 SCF Done:  E(RHF) =  -338.585401989     A.U. after   16 cycles
 Normal termination of Gaussian 16 at Wed Apr  9 18:40:25 2025.
 Gaussian 16:  ES64L-G16RevC.01  3-Jul-2019

 ----------------------------------------------------------------------
 #t hf aug-cc-pvdz iop(5/13=1,5/36=2,99/5=2) pseudo=read geom=check gue
 ss=(read,tcheck) scf=(maxcycle=1)
 ----------------------------------------------------------------------
 -----
 title
 -----
 Structure from the checkpoint file:  "Grambow2020_wb97xd3_007964_forward_mol1.chk"
 Charge =  0 Multiplicity = 1

                         Standard orientation:
 ---------------------------------------------------------------------
 Center     Atomic      Atomic             Coordinates (Angstroms)
 Number     Number       Type             X           Y           Z
 ---------------------------------------------------------------------
      1          7           0       -1.470450   -1.490276   -0.048996
      2          6           0       -0.898229   -0.385561   -0.040469
      3          8           0       -1.380282    0.887811    0.137033
      4          6           0       -0.079392    1.511932    0.011520
      5          6           0        0.543141    0.109053   -0.189116
      6          6           0        1.625091   -0.480286    0.759536
      7          7           0        1.537226   -0.304269   -0.981439
      8          1           0       -2.474504   -1.410235    0.090936
      9          1           0       -0.030000    2.154181   -0.867331
     10          1           0        0.183858    2.059959    0.916336
     11          1           0        1.243272   -1.380105    1.230959
     12          1           0        2.016896    0.307425    1.395510
     13          1           0        2.491635   -0.802725    0.101543
 ---------------------------------------------------------------------

 SCF Done:  E(RHF) =  -338.925152381     A.U. after    2 cycles

 The electronic state is 1-A.
 Alpha  occ. eigenvalues --  -20.58955 -15.54120 -15.48920 -11.34965 -11.31591
 Alpha  occ. eigenvalues --  -11.31495 -11.30350  -1.53083  -1.27082  -1.21787
 Alpha  occ. eigenvalues --   -0.99512  -0.95242  -0.91218  -0.76149  -0.72472
 Alpha  occ. eigenvalues --   -0.70792  -0.68983  -0.65711  -0.60330  -0.57089
 Alpha  occ. eigenvalues --   -0.54892  -0.54118  -0.51933  -0.48934  -0.43287
 Alpha  occ. eigenvalues --   -0.41734
 Alpha virt. eigenvalues --    0.03123   0.04188   0.04300   0.04686   0.05950
 Alpha virt. eigenvalues --    0.06686   0.08961   0.09323   0.09900   0.11827
 Alpha virt. eigenvalues --    0.12620   0.13278   0.13759   0.14391   0.14928

 Mulliken charges:
               1
     1  N    0.743956
     2  C    0.031843
     3  O   -1.419550
     4  C    0.742174
     5  C   -2.130886
     6  C   -0.119944
     7  N    0.836225
     8  H    0.158059
     9  H    0.137976
    10  H    0.075322
    11  H    0.248790
    12  H    0.181184
    13  H    0.514851
 Sum of Mulliken charges =  -0.00000

 Dipole moment (field-independent basis, Debye):
    X=              1.2869    Y=              2.5270    Z=              2.7144  Tot=              3.9255

 Test job not archived.
 1\1\GINC-SE340\SP\RHF\Aug-CC-pVDZ\C4H6N2O1\OHZDE\09-Apr-2025\0\\#t hf
 aug-cc-pvdz iop(5/13=1,5/36=2,99/5=2) pseudo=read geom=check guess=(re
 ad,tcheck) scf=(maxcycle=1)\\title\\0,1\N,0,1.70454747,-1.14776194,-1.
 24665108\C,0,1.1589151,-0.28893505,-0.5306856\O,0,1.5455674,0.98014128
 ,-0.17670251\C,0,0.36310794,1.23255813,0.62058596\C,0,-0.14707908,-0.1
 8401596,0.26156355\C,0,-1.48542869,-0.43660938,-0.48869908\N,0,-0.8086
 7822,-1.08875496,0.98995335\H,0,2.59996013,-0.83661337,-1.61480026\H,0
 ,0.61415068,1.36538628,1.67255445\H,0,-0.1959628,2.08626087,0.23723718

 Normal termination of Gaussian 16 at Wed Apr  9 18:40:28 2025.
