 Gaussian 16, Revision C.01,

 ----------------------------------------------------------------------
 #t hf aug-cc-pvdz symm=none int=(grid=ultrafine) guess=(read,tcheck) s
 table=(opt,rrhf)
 ----------------------------------------------------------------------
 -----
 title
 -----
 Symbolic Z-matrix:
 Charge =  0 Multiplicity = 1

 SCF Done:  E(RHF) =  -304.599932592     A.U. after   16 cycles
 Normal termination of Gaussian 16 at Wed Apr  9 03:14:34 2025.
 Gaussian 16:  ES64L-G16RevC.01  3-Jul-2019

 ----------------------------------------------------------------------
 #t hf aug-cc-pvdz iop(5/13=1,5/36=2,99/5=2) pseudo=read geom=check gue
 ss=(read,tcheck) scf=(maxcycle=1)
 ----------------------------------------------------------------------
 -----
 title
 -----
 Structure from the checkpoint file:  "Grambow2020_b97d3_006919_reverse_mol2.chk"
 Charge =  0 Multiplicity = 1

                         Standard orientation:
 ---------------------------------------------------------------------
 Center     Atomic      Atomic             Coordinates (Angstroms)
 Number     Number       Type             X           Y           Z
 ---------------------------------------------------------------------
      1          8           0       -1.186884   -1.229029   -0.149698
      2          6           0       -0.373358   -0.085402   -0.024813
      3          6           0       -1.170524    1.213227    0.073820
      4          6           0        0.726158    0.045363   -1.141810
      5          8           0        1.693968    0.111230   -0.208094
      6          6           0        0.833770   -0.175061    0.955661
      7          1           0       -2.025428   -1.058460    0.319090
      8          1           0       -1.818336    1.311460   -0.806994
      9          1           0       -1.794716    1.212775    0.982414
     10          1           0       -0.514536    2.092883    0.116575
     11          1           0        0.960169    0.578702    1.746085
     12          1           0        1.039900   -1.183728    1.328013
 ---------------------------------------------------------------------

 SCF Done:  E(RHF) =  -304.906589275     A.U. after    2 cycles

 The electronic state is 1-A.
 Alpha  occ. eigenvalues --  -20.60949 -20.57635 -11.31697 -11.31649 -11.31582
 Alpha  occ. eigenvalues --  -11.25954  -1.53438  -1.47258  -1.06329  -0.96312
 Alpha  occ. eigenvalues --   -0.91296  -0.74785  -0.70465  -0.68191  -0.66549
 Alpha  occ. eigenvalues --   -0.64550  -0.59230  -0.56357  -0.53322  -0.51429
 Alpha  occ. eigenvalues --   -0.50578  -0.46420  -0.36620
 Alpha virt. eigenvalues --    0.02647   0.03805   0.03993   0.05228   0.06416
 Alpha virt. eigenvalues --    0.07077   0.08923   0.09600   0.10269   0.12770
 Alpha virt. eigenvalues --    0.12875   0.14325   0.14772   0.15365   0.15515

 Mulliken charges:
               1
     1  O   -1.510317
     2  C    0.580925
     3  C   -0.239337
     4  C    0.458090
     5  O   -1.052814
     6  C    0.689184
     7  H    0.326627
     8  H    0.215793
     9  H    0.198758
    10  H    0.135837
    11  H    0.100561
    12  H    0.096692
 Sum of Mulliken charges =  -0.00000

 Dipole moment (field-independent basis, Debye):
    X=             -2.3193    Y=              1.0955    Z=              3.9930  Tot=              4.7459

 Test job not archived.
 1\1\GINC-SE109\SP\RHF\Aug-CC-pVDZ\C4H6O2\OHZDE\09-Apr-2025\0\\#t hf au
 g-cc-pvdz iop(5/13=1,5/36=2,99/5=2) pseudo=read geom=check guess=(read
 ,tcheck) scf=(maxcycle=1)\\title\\0,1\O,0,0.19521935,-1.31154158,-1.15
 569645\C,0,0.03441886,-0.12366288,-0.41516394\C,0,-1.26946019,-0.08016
 452,0.37833944\C,0,0.18612654,1.1895686,-1.26729413\O,0,1.15630292,1.6
 3318861,-0.44584461\C,0,1.27755525,0.40418873,0.36105272\H,0,-0.255011
 66,-2.0322088,-0.67617274\H,0,-2.11772406,-0.20984992,-0.30633058\H,0,
 -1.2877186,-0.88468719,1.13171082\H,0,-1.39614607,0.87581721,0.9036883

 Normal termination of Gaussian 16 at Wed Apr  9 03:14:41 2025.
