 Gaussian 16, Revision C.01,

 ----------------------------------------------------------------------
 #t hf aug-cc-pvdz symm=none int=(grid=ultrafine) guess=(read,tcheck) s
 table=(opt,rrhf)
 ----------------------------------------------------------------------
 -----
 title
 -----
 Symbolic Z-matrix:
 Charge =  0 Multiplicity = 1

 SCF Done:  E(RHF) =  -323.783365960     A.U. after   15 cycles
 Normal termination of Gaussian 16 at Wed Apr  9 03:53:48 2025.
 Gaussian 16:  ES64L-G16RevC.01  3-Jul-2019

 ----------------------------------------------------------------------
 #t hf aug-cc-pvdz iop(5/13=1,5/36=2,99/5=2) pseudo=read geom=check gue
 ss=(read,tcheck) scf=(maxcycle=1)
 ----------------------------------------------------------------------
 -----
 title
 -----
 Structure from the checkpoint file:  "Grambow2020_wb97xd3_008322_forward_mol1.chk"
 Charge =  0 Multiplicity = 1

                         Standard orientation:
 ---------------------------------------------------------------------
 Center     Atomic      Atomic             Coordinates (Angstroms)
 Number     Number       Type             X           Y           Z
 ---------------------------------------------------------------------
      1          7           0        2.154101   -0.065914   -0.553922
      2          6           0        1.107142    0.008261    0.165570
      3          6           0        0.355344    1.322846    0.279223
      4          6           0       -1.079816    1.203092   -0.288278
      5          6           0       -1.693164   -0.137788    0.085625
      6          6           0       -1.132608   -1.273398   -0.510488
      7          8           0        0.511958   -1.005637    0.792083
      8          1           0        2.512283   -1.019778   -0.518671
      9          1           0        0.296043    1.584037    1.339542
     10          1           0        0.908963    2.103177   -0.237809
     11          1           0       -1.041255    1.303496   -1.376574
     12          1           0       -1.695959    2.019680    0.087818
     13          1           0       -0.880780   -0.529439    0.950112
     14          1           0       -2.698223   -0.208476    0.487232
     15          1           0       -0.403007   -1.225041   -1.311762
     16          1           0       -1.513829   -2.259231   -0.269013
 ---------------------------------------------------------------------

 SCF Done:  E(RHF) =  -324.120498581     A.U. after    2 cycles

 The electronic state is 1-A.
 Alpha  occ. eigenvalues --  -20.50066 -15.43991 -11.37343 -11.30377 -11.26343
 Alpha  occ. eigenvalues --  -11.25733 -11.23297  -1.41665  -1.16084  -1.14072
 Alpha  occ. eigenvalues --   -1.03346  -0.90844  -0.83620  -0.75023  -0.71990
 Alpha  occ. eigenvalues --   -0.67567  -0.65185  -0.64436  -0.60644  -0.58183
 Alpha  occ. eigenvalues --   -0.55762  -0.50834  -0.49929  -0.48587  -0.43742
 Alpha  occ. eigenvalues --   -0.39374  -0.36187
 Alpha virt. eigenvalues --    0.01915   0.02960   0.03531   0.04698   0.05294
 Alpha virt. eigenvalues --    0.06046   0.06667   0.07252   0.07424   0.09038
 Alpha virt. eigenvalues --    0.11671   0.12370   0.12886   0.13259   0.13878

 Mulliken charges:
               1
     1  N    0.710600
     2  C   -0.164532
     3  C   -0.405201
     4  C   -0.305306
     5  C    0.021055
     6  C   -0.073906
     7  O   -1.610886
     8  H    0.219676
     9  H    0.210564
    10  H    0.130400
    11  H    0.174881
    12  H    0.140771
    13  H    1.085051
    14  H   -0.091773
    15  H    0.046089
    16  H   -0.087486
 Sum of Mulliken charges =  -0.00000

 Dipole moment (field-independent basis, Debye):
    X=             -6.1454    Y=             -1.0162    Z=             -0.5197  Tot=              6.2505

 Test job not archived.
 1\1\GINC-SE094\SP\RHF\Aug-CC-pVDZ\C5H9N1O1\OHZDE\09-Apr-2025\0\\#t hf
 aug-cc-pvdz iop(5/13=1,5/36=2,99/5=2) pseudo=read geom=check guess=(re
 ad,tcheck) scf=(maxcycle=1)\\title\\0,1\N,0,2.35839704,0.70367036,0.31
 388979\C,0,1.32950786,0.29678636,-0.31470071\C,0,0.82805628,-1.1223645
 1,-0.11268667\C,0,-0.594235,-1.13677025,0.49801875\C,0,-1.44854115,-0.
 03406011,-0.10873509\C,0,-1.0936183,1.28227958,0.20822357\O,0,0.548050
 77,1.03456541,-1.1019475\H,0,2.53594183,1.67570917,0.06286825\H,0,0.79
 795392,-1.60932943,-1.09144714\H,0,1.52405852,-1.66611491,0.52186066\H

 Normal termination of Gaussian 16 at Wed Apr  9 03:53:53 2025.
