 Gaussian 16, Revision C.01,

 ----------------------------------------------------------------------
 #t hf aug-cc-pvdz symm=none int=(grid=ultrafine) guess=(read,tcheck) s
 table=(opt,rrhf)
 ----------------------------------------------------------------------
 -----
 title
 -----
 Symbolic Z-matrix:
 Charge =  0 Multiplicity = 1

 SCF Done:  E(RHF) =  -309.041226734     A.U. after   15 cycles

 1\1\GINC-SE396\Stability\RHF\Aug-CC-pVDZ\C6H12O1\OHZDE\09-Apr-2025\0\\
 #t hf aug-cc-pvdz symm=none int=(grid=ultrafine) guess=(read,tcheck) s
 table=(opt,rrhf)\\title\\0,1\C,0,2.49754183,-0.47289874,-0.52248258\C,
 0,1.31761741,0.1239956,0.20275604\O,0,1.15122506,-0.03967365,1.3851624
 3\C,0,0.3735503,0.97216476,-0.63151499\C,0,-1.01598862,1.12044957,-0.0
 3647742\C,0,-1.8895285,-0.09590583,-0.12772849\C,0,-1.58783581,-1.2520
 7002,-0.6969597\H,0,2.99511983,0.28098733,-1.13662278\H,0,2.14551144,-
 1.25551832,-1.19988575\H,0,3.19924373,-0.9013532,0.18945839\H,0,-0.914

 Normal termination of Gaussian 16 at Wed Apr  9 03:58:59 2025.
 Gaussian 16:  ES64L-G16RevC.01  3-Jul-2019

 ----------------------------------------------------------------------
 #t hf aug-cc-pvdz iop(5/13=1,5/36=2,99/5=2) pseudo=read geom=check gue
 ss=(read,tcheck) scf=(maxcycle=1)
 ----------------------------------------------------------------------
 -----
 title
 -----
 Structure from the checkpoint file:  "Grambow2020_wb97xd3_008677_reverse_mol2.chk"
 Charge =  0 Multiplicity = 1

                         Standard orientation:
 ---------------------------------------------------------------------
 Center     Atomic      Atomic             Coordinates (Angstroms)
 Number     Number       Type             X           Y           Z
 ---------------------------------------------------------------------
      1          6           0       -2.379160   -0.650891   -0.395577
      2          6           0       -1.208296    0.196427    0.035242
      3          8           0       -1.042781    1.312121   -0.389484
      4          6           0       -0.272559   -0.419859    1.060546
      5          6           0        1.113647    0.200345    1.086163
      6          6           0        2.002063   -0.158897   -0.068211
      7          6           0        1.715758   -0.976127   -1.069172
      8          1           0       -2.884347   -1.081363    0.471935
      9          1           0       -2.016053   -1.485787   -1.000883
     10          1           0       -3.077336   -0.057721   -0.981682
     11          1           0        1.023960    2.747977   -1.083512
     12          1           0       -0.763283   -0.270226    2.029466
     13          1           0       -0.230126   -1.503149    0.917277
     14          1           0        1.012946    1.289168    1.116418
     15          1           0        1.621360   -0.080864    2.014276
     16          1           0        2.977314    0.321340   -0.057149
     17          1           0        1.657751    3.127666   -1.191222
     18          1           0        0.760876   -1.483689   -1.153267
     19          1           0        2.430469   -1.166305   -1.859739
 ---------------------------------------------------------------------

 SCF Done:  E(RHF) =  -309.372798714     A.U. after    2 cycles

 The electronic state is 1-A.
 Alpha  occ. eigenvalues --  -20.53294 -11.33819 -11.24792 -11.24550 -11.24244
 Alpha  occ. eigenvalues --  -11.24012 -11.22833  -1.47305  -1.10315  -1.03972
 Alpha  occ. eigenvalues --   -0.99231  -0.90072  -0.76875  -0.73158  -0.67498
 Alpha  occ. eigenvalues --   -0.67258  -0.64168  -0.61467  -0.59650  -0.58154
 Alpha  occ. eigenvalues --   -0.56509  -0.56474  -0.53846  -0.51293  -0.49912
 Alpha  occ. eigenvalues --   -0.48249  -0.40846  -0.37063
 Alpha virt. eigenvalues --    0.03092   0.03407   0.03799   0.04712   0.05601
 Alpha virt. eigenvalues --    0.05760   0.06403   0.07413   0.08488   0.08685
 Alpha virt. eigenvalues --    0.09227   0.09972   0.12570   0.13072   0.13522

 Mulliken charges:
               1
     1  C   -0.521340
     2  C    1.217592
     3  O   -1.413019
     4  C   -0.325250
     5  C   -0.376965
     6  C    0.621789
     7  C   -0.149913
     8  H    0.250255
     9  H    0.254990
    10  H    0.130181
    11  H    0.017752
    12  H    0.207405
    13  H    0.172546
    14  H    0.217542
    15  H    0.175882
    16  H   -0.231726
    17  H   -0.002897
    18  H   -0.110810
    19  H   -0.134016
 Sum of Mulliken charges =  -0.00000

 Dipole moment (field-independent basis, Debye):
    X=             -0.5021    Y=             -2.5226    Z=              1.4656  Tot=              2.9604

 Test job not archived.
 1\1\GINC-SE396\SP\RHF\Aug-CC-pVDZ\C6H12O1\OHZDE\09-Apr-2025\0\\#t hf a
 ug-cc-pvdz iop(5/13=1,5/36=2,99/5=2) pseudo=read geom=check guess=(rea
 d,tcheck) scf=(maxcycle=1)\\title\\0,1\C,0,2.49754183,-0.47289874,-0.5
 2248258\C,0,1.31761741,0.1239956,0.20275604\O,0,1.15122506,-0.03967365
 ,1.38516243\C,0,0.3735503,0.97216476,-0.63151499\C,0,-1.01598862,1.120
 44957,-0.03647742\C,0,-1.8895285,-0.09590583,-0.12772849\C,0,-1.587835
 81,-1.25207002,-0.6969597\H,0,2.99511983,0.28098733,-1.13662278\H,0,2.
 14551144,-1.25551832,-1.19988575\H,0,3.19924373,-0.9013532,0.18945839\

 Normal termination of Gaussian 16 at Wed Apr  9 03:59:06 2025.
