 Gaussian 16, Revision C.01,

 ----------------------------------------------------------------------
 #t hf aug-cc-pvdz symm=none int=(grid=ultrafine) guess=(read,tcheck) s
 table=(opt,rrhf)
 ----------------------------------------------------------------------
 -----
 title
 -----
 Symbolic Z-matrix:
 Charge =  0 Multiplicity = 1

 SCF Done:  E(RHF) =  -266.607012805     A.U. after   15 cycles
 Normal termination of Gaussian 16 at Wed Apr  9 15:42:36 2025.
 Gaussian 16:  ES64L-G16RevC.01  3-Jul-2019

 ----------------------------------------------------------------------
 #t hf aug-cc-pvdz iop(5/13=1,5/36=2,99/5=2) pseudo=read geom=check gue
 ss=(read,tcheck) scf=(maxcycle=1)
 ----------------------------------------------------------------------
 -----
 title
 -----
 Structure from the checkpoint file:  "Grambow2020_b97d3_006692_reverse_mol1.chk"
 Charge =  0 Multiplicity = 1

                         Standard orientation:
 ---------------------------------------------------------------------
 Center     Atomic      Atomic             Coordinates (Angstroms)
 Number     Number       Type             X           Y           Z
 ---------------------------------------------------------------------
      1          6           0       -0.943400   -0.685132    0.104839
      2          6           0       -0.842057    0.735919   -0.097347
      3          8           0        0.394085    1.199064   -0.002083
      4          6           0        1.234206   -0.074848    0.180823
      5          8           0        0.500814   -1.098266   -0.336438
      6          1           0       -2.072869   -0.874095   -0.266941
      7          1           0       -1.016025   -1.100011    1.113287
      8          1           0       -1.557886    1.394071   -0.570747
      9          1           0       -2.774186   -0.071511    0.418104
     10          1           0        2.154076    0.098719   -0.387410
     11          1           0        1.415204   -0.109197    1.271983
 ---------------------------------------------------------------------

 SCF Done:  E(RHF) =  -266.877006223     A.U. after    2 cycles

 The electronic state is 1-A.
 Alpha  occ. eigenvalues --  -20.63564 -20.57282 -11.39845 -11.38363 -11.32778
 Alpha  occ. eigenvalues --   -1.57191  -1.46095  -1.07346  -0.93673  -0.85446
 Alpha  occ. eigenvalues --   -0.76688  -0.73905  -0.67046  -0.63460  -0.61895
 Alpha  occ. eigenvalues --   -0.57111  -0.56109  -0.51531  -0.45196  -0.29819
 Alpha virt. eigenvalues --    0.02788   0.03703   0.04092   0.04910   0.06182
 Alpha virt. eigenvalues --    0.07027   0.08556   0.09069   0.11696   0.12523
 Alpha virt. eigenvalues --    0.13617   0.14290   0.15627   0.15739   0.16124

 Mulliken charges:
               1
     1  C    0.060501
     2  C    1.077554
     3  O   -1.266187
     4  C    0.818870
     5  O   -1.243239
     6  H    0.370628
     7  H    0.191979
     8  H    0.018323
     9  H   -0.277226
    10  H    0.062164
    11  H    0.186633
 Sum of Mulliken charges =  -0.00000

 Dipole moment (field-independent basis, Debye):
    X=              2.6993    Y=              0.9846    Z=              0.1175  Tot=              2.8756

 Test job not archived.
 1\1\GINC-SE232\SP\RHF\Aug-CC-pVDZ\C3H6O2\OHZDE\09-Apr-2025\0\\#t hf au
 g-cc-pvdz iop(5/13=1,5/36=2,99/5=2) pseudo=read geom=check guess=(read
 ,tcheck) scf=(maxcycle=1)\\title\\0,1\C,0,0.47074017,0.70662287,0.2854
 4201\C,0,0.69828397,-0.51359,-0.44245932\O,0,-0.40388633,-1.21056112,-
 0.66845827\C,0,-1.51452064,-0.30040822,-0.12053248\O,0,-1.01589779,0.9
 6610867,-0.13137185\H,0,1.53891736,1.24342618,0.1423797\H,0,0.41846609
 ,0.70198328,1.37705238\H,0,1.55757051,-0.78099453,-1.04229632\H,0,2.38
 276599,0.39251767,0.55365631\H,0,-2.3545782,-0.41645103,-0.81336155\H,

 Normal termination of Gaussian 16 at Wed Apr  9 15:42:39 2025.
