 Gaussian 16, Revision C.01,

 ----------------------------------------------------------------------
 #t hf aug-cc-pvdz symm=none int=(grid=ultrafine) guess=(read,tcheck) s
 table=(opt,rrhf)
 ----------------------------------------------------------------------
 -----
 title
 -----
 Symbolic Z-matrix:
 Charge =  0 Multiplicity = 1

 SCF Done:  E(RHF) =  -309.057313148     A.U. after   12 cycles

 1\1\GINC-SE174\Stability\RHF\Aug-CC-pVDZ\C6H12O1\OHZDE\09-Apr-2025\0\\
 #t hf aug-cc-pvdz symm=none int=(grid=ultrafine) guess=(read,tcheck) s
 table=(opt,rrhf)\\title\\0,1\C,0,-1.86558554,-1.03476955,-0.5094614\C,
 0,-0.78327356,-0.02854809,-0.128207\C,0,-1.34830389,1.13550163,0.68106
 843\C,0,0.30264758,-0.71783953,0.65892484\O,0,1.21579608,-1.54599091,-
 0.04732201\C,0,1.72596267,-0.38456931,0.59856315\C,0,2.31776625,0.6879
 7595,-0.26859263\H,0,-2.64216173,-0.56439323,-1.11592515\H,0,-1.441913
 44,-1.86394489,-1.07818255\H,0,-2.34369673,-1.44756321,0.38362033\H,0,

 Normal termination of Gaussian 16 at Wed Apr  9 18:32:48 2025.
 Gaussian 16:  ES64L-G16RevC.01  3-Jul-2019

 ----------------------------------------------------------------------
 #t hf aug-cc-pvdz iop(5/13=1,5/36=2,99/5=2) pseudo=read geom=check gue
 ss=(read,tcheck) scf=(maxcycle=1)
 ----------------------------------------------------------------------
 -----
 title
 -----
 Structure from the checkpoint file:  "Grambow2020_wb97xd3_007691_forward_mol2.chk"
 Charge =  0 Multiplicity = 1

                         Standard orientation:
 ---------------------------------------------------------------------
 Center     Atomic      Atomic             Coordinates (Angstroms)
 Number     Number       Type             X           Y           Z
 ---------------------------------------------------------------------
      1          6           0       -2.073687   -0.877113   -0.439992
      2          6           0       -0.970373    0.162782   -0.265200
      3          6           0       -1.500966    1.458721    0.341605
      4          6           0        0.127267   -0.396181    0.604669
      5          8           0        1.012374   -1.348989    0.032654
      6          6           0        1.552341   -0.101146    0.454153
      7          6           0        2.134162    0.794605   -0.600199
      8          1           0       -2.860019   -0.507171   -1.101011
      9          1           0       -1.674355   -1.799224   -0.865101
     10          1           0       -2.533543   -1.120556    0.522220
     11          1           0       -0.549904    0.379569   -1.250409
     12          1           0       -1.898721    1.284240    1.345413
     13          1           0       -2.308454    1.872608   -0.265324
     14          1           0       -0.715290    2.213211    0.419379
     15          1           0       -0.211965   -0.669395    1.606541
     16          1           0        2.160909   -0.183768    1.354325
     17          1           0        1.501405    0.843997   -1.484856
     18          1           0        3.113960    0.423302   -0.906170
     19          1           0        2.264511    1.805079   -0.206443
 ---------------------------------------------------------------------

 SCF Done:  E(RHF) =  -309.389821379     A.U. after    2 cycles

 The electronic state is 1-A.
 Alpha  occ. eigenvalues --  -20.54713 -11.28788 -11.28267 -11.23693 -11.23283
 Alpha  occ. eigenvalues --  -11.22835 -11.22179  -1.49064  -1.08850  -1.01669
 Alpha  occ. eigenvalues --   -0.93615  -0.91152  -0.83788  -0.76794  -0.70332
 Alpha  occ. eigenvalues --   -0.65145  -0.61887  -0.58943  -0.58479  -0.56681
 Alpha  occ. eigenvalues --   -0.55691  -0.54562  -0.51663  -0.50107  -0.48818
 Alpha  occ. eigenvalues --   -0.47669  -0.43097  -0.41836
 Alpha virt. eigenvalues --    0.03418   0.03607   0.03732   0.04378   0.05627
 Alpha virt. eigenvalues --    0.05946   0.06121   0.07204   0.07406   0.08834
 Alpha virt. eigenvalues --    0.09322   0.09876   0.12579   0.13206   0.14364

 Mulliken charges:
               1
     1  C   -0.042632
     2  C   -1.534195
     3  C   -0.114025
     4  C    1.493457
     5  O   -1.399164
     6  C    0.316604
     7  C   -0.564933
     8  H    0.144173
     9  H    0.176930
    10  H    0.243994
    11  H    0.259619
    12  H    0.240526
    13  H    0.144683
    14  H    0.131310
    15  H   -0.093006
    16  H   -0.041719
    17  H    0.166911
    18  H    0.205370
    19  H    0.266098
 Sum of Mulliken charges =  -0.00000

 Dipole moment (field-independent basis, Debye):
    X=             -0.3150    Y=              1.9156    Z=              0.4554  Tot=              1.9940

 Test job not archived.
 1\1\GINC-SE174\SP\RHF\Aug-CC-pVDZ\C6H12O1\OHZDE\09-Apr-2025\0\\#t hf a
 ug-cc-pvdz iop(5/13=1,5/36=2,99/5=2) pseudo=read geom=check guess=(rea
 d,tcheck) scf=(maxcycle=1)\\title\\0,1\C,0,-1.86558554,-1.03476955,-0.
 5094614\C,0,-0.78327356,-0.02854809,-0.128207\C,0,-1.34830389,1.135501
 63,0.68106843\C,0,0.30264758,-0.71783953,0.65892484\O,0,1.21579608,-1.
 54599091,-0.04732201\C,0,1.72596267,-0.38456931,0.59856315\C,0,2.31776
 625,0.68797595,-0.26859263\H,0,-2.64216173,-0.56439323,-1.11592515\H,0
 ,-1.44191344,-1.86394489,-1.07818255\H,0,-2.34369673,-1.44756321,0.383

 Normal termination of Gaussian 16 at Wed Apr  9 18:32:55 2025.
