 Gaussian 16, Revision C.01,

 ----------------------------------------------------------------------
 #t hf aug-cc-pvdz symm=none int=(grid=ultrafine) guess=(read,tcheck) s
 table=(opt,rrhf)
 ----------------------------------------------------------------------
 -----
 title
 -----
 Symbolic Z-matrix:
 Charge =  0 Multiplicity = 1

 SCF Done:  E(RHF) =  -302.919325565     A.U. after   14 cycles
 Normal termination of Gaussian 16 at Wed Apr  9 18:15:16 2025.
 Gaussian 16:  ES64L-G16RevC.01  3-Jul-2019

 ----------------------------------------------------------------------
 #t hf aug-cc-pvdz iop(5/13=1,5/36=2,99/5=2) pseudo=read geom=check gue
 ss=(read,tcheck) scf=(maxcycle=1)
 ----------------------------------------------------------------------
 -----
 title
 -----
 Structure from the checkpoint file:  "Grambow2020_wb97xd3_007234_reverse_mol2.chk"
 Charge =  0 Multiplicity = 1

                         Standard orientation:
 ---------------------------------------------------------------------
 Center     Atomic      Atomic             Coordinates (Angstroms)
 Number     Number       Type             X           Y           Z
 ---------------------------------------------------------------------
      1          6           0       -2.211953   -0.626494    0.450115
      2          7           0       -0.758296    1.276032   -0.106327
      3          6           0       -1.104386   -0.096209   -0.446026
      4          7           0        0.096004   -0.908214   -0.368212
      5          6           0        1.035965   -0.116013   -0.027659
      6          6           0        2.458496   -0.506314    0.170231
      7          6           0        0.489307    1.252353    0.136377
      8          1           0       -3.097884    0.000483    0.356336
      9          1           0       -2.460268   -1.649270    0.169888
     10          1           0       -1.885720   -0.616863    1.491284
     11          1           0       -1.443520   -0.098866   -1.488802
     12          1           0        2.595088   -1.561140   -0.057556
     13          1           0        3.109850    0.089113   -0.473536
     14          1           0        2.765491   -0.319939    1.202068
     15          1           0        1.048429    2.137815    0.423862
 ---------------------------------------------------------------------

 SCF Done:  E(RHF) =  -303.237511090     A.U. after    2 cycles

 The electronic state is 1-A.
 Alpha  occ. eigenvalues --  -15.51022 -15.49998 -11.29063 -11.28646 -11.28597
 Alpha  occ. eigenvalues --  -11.24924 -11.22930  -1.32153  -1.17954  -1.05870
 Alpha  occ. eigenvalues --   -0.99769  -0.89709  -0.81483  -0.78675  -0.71001
 Alpha  occ. eigenvalues --   -0.65697  -0.61976  -0.60341  -0.58585  -0.56558
 Alpha  occ. eigenvalues --   -0.54885  -0.52704  -0.47916  -0.47648  -0.46205
 Alpha  occ. eigenvalues --   -0.43500
 Alpha virt. eigenvalues --    0.03285   0.04214   0.04514   0.04676   0.05354
 Alpha virt. eigenvalues --    0.05919   0.06239   0.06438   0.06946   0.10732
 Alpha virt. eigenvalues --    0.11129   0.12049   0.12740   0.13492   0.14396

 Mulliken charges:
               1
     1  C    0.065535
     2  N    0.798514
     3  C   -1.499561
     4  N    0.983847
     5  C   -0.510621
     6  C   -0.499182
     7  C   -0.361726
     8  H    0.197645
     9  H    0.192652
    10  H    0.177861
    11  H   -0.009368
    12  H    0.108875
    13  H    0.250821
    14  H    0.257502
    15  H   -0.152795
 Sum of Mulliken charges =  -0.00000

 Dipole moment (field-independent basis, Debye):
    X=              2.3100    Y=              0.4445    Z=              0.6436  Tot=              2.4388

 Test job not archived.
 1\1\GINC-SE135\SP\RHF\Aug-CC-pVDZ\C5H8N2\OHZDE\09-Apr-2025\0\\#t hf au
 g-cc-pvdz iop(5/13=1,5/36=2,99/5=2) pseudo=read geom=check guess=(read
 ,tcheck) scf=(maxcycle=1)\\title\\0,1\C,0,-2.24355691,0.18351237,0.634
 13091\N,0,-0.85753553,-0.42538627,-1.30249983\C,0,-1.0827693,-0.651162
 71,0.11754056\N,0,0.14986695,-0.37189218,0.8309535\C,0,0.9996253,-0.02
 647517,-0.05543342\C,0,2.41478739,0.34898171,0.21185041\C,0,0.35714053
 ,-0.06113171,-1.39116473\H,0,-3.15117463,-0.06148258,0.08369859\H,0,-2
 .39904924,-0.01058698,1.69451152\H,0,-2.02872407,1.24471589,0.49904798

 Normal termination of Gaussian 16 at Wed Apr  9 18:15:21 2025.
