 Gaussian 16, Revision C.01,

 ----------------------------------------------------------------------
 #t hf aug-cc-pvdz symm=none int=(grid=ultrafine) guess=(read,tcheck) s
 table=(opt,rrhf)
 ----------------------------------------------------------------------
 -----
 title
 -----
 Symbolic Z-matrix:
 Charge =  0 Multiplicity = 1

 SCF Done:  E(RHF) =  -322.522172317     A.U. after   16 cycles
 Normal termination of Gaussian 16 at Wed Apr  9 03:33:22 2025.
 Gaussian 16:  ES64L-G16RevC.01  3-Jul-2019

 ----------------------------------------------------------------------
 #t hf aug-cc-pvdz iop(5/13=1,5/36=2,99/5=2) pseudo=read geom=check gue
 ss=(read,tcheck) scf=(maxcycle=1)
 ----------------------------------------------------------------------
 -----
 title
 -----
 Structure from the checkpoint file:  "Grambow2020_wb97xd3_007016_forward_mol1.chk"
 Charge =  0 Multiplicity = 1

                         Standard orientation:
 ---------------------------------------------------------------------
 Center     Atomic      Atomic             Coordinates (Angstroms)
 Number     Number       Type             X           Y           Z
 ---------------------------------------------------------------------
      1          6           0       -2.156948    0.282967    0.043461
      2          6           0       -0.865325   -0.345227    0.516198
      3          6           0       -0.168836   -1.216709   -0.505939
      4          6           0        1.147982   -0.852150   -0.518375
      5          7           0        1.492643   -0.197707    0.808945
      6          6           0        0.398147    0.520419    0.363066
      7          8           0        0.617377    1.410007   -0.552407
      8          1           0       -2.933790   -0.476642   -0.053971
      9          1           0       -2.023696    0.768959   -0.923723
     10          1           0       -2.503119    1.035300    0.754222
     11          1           0       -0.937775   -0.751638    1.524771
     12          1           0       -0.655453   -1.609289   -1.390862
     13          1           0        1.201416    0.455634   -1.198660
     14          1           0        2.334777    0.345765    0.654391
 ---------------------------------------------------------------------

 SCF Done:  E(RHF) =  -322.856406991     A.U. after    2 cycles

 The electronic state is 1-A.
 Alpha  occ. eigenvalues --  -20.56191 -15.54043 -11.39861 -11.28325 -11.28163
 Alpha  occ. eigenvalues --  -11.26627 -11.24672  -1.50779  -1.29343  -1.12110
 Alpha  occ. eigenvalues --   -1.00716  -0.90959  -0.81948  -0.76004  -0.71317
 Alpha  occ. eigenvalues --   -0.69938  -0.66510  -0.62674  -0.59955  -0.56528
 Alpha  occ. eigenvalues --   -0.55567  -0.54256  -0.51168  -0.47373  -0.38549
 Alpha  occ. eigenvalues --   -0.35089
 Alpha virt. eigenvalues --    0.03400   0.03871   0.04202   0.04732   0.06121
 Alpha virt. eigenvalues --    0.06563   0.07069   0.07767   0.08638   0.10561
 Alpha virt. eigenvalues --    0.11633   0.11855   0.12818   0.14150   0.14693

 Mulliken charges:
               1
     1  C   -0.173610
     2  C   -0.518112
     3  C    0.879684
     4  C   -1.117978
     5  N    0.502481
     6  C    0.426468
     7  O   -1.510862
     8  H    0.192806
     9  H    0.183217
    10  H    0.151316
    11  H    0.076530
    12  H   -0.107080
    13  H    0.638942
    14  H    0.376201
 Sum of Mulliken charges =  -0.00000

 Dipole moment (field-independent basis, Debye):
    X=             -1.9350    Y=              0.1006    Z=              0.3523  Tot=              1.9694

 Test job not archived.
 1\1\GINC-SE456\SP\RHF\Aug-CC-pVDZ\C5H7N1O1\OHZDE\09-Apr-2025\0\\#t hf
 aug-cc-pvdz iop(5/13=1,5/36=2,99/5=2) pseudo=read geom=check guess=(re
 ad,tcheck) scf=(maxcycle=1)\\title\\0,1\C,0,-1.82447667,0.17172004,0.1
 5758163\C,0,-0.50783236,0.26037639,-0.58064985\C,0,0.53526053,1.135541
 89,0.0791869\C,0,1.70488849,0.42928519,0.09466949\N,0,1.66296525,-0.62
 125406,-1.00236051\C,0,0.50810048,-0.85579998,-0.27868267\O,0,0.639749
 51,-1.49734808,0.83872666\H,0,-2.36242498,1.11808675,0.08698123\H,0,-1
 .66636457,-0.05966822,1.21155038\H,0,-2.45423004,-0.61094907,-0.268868

 Normal termination of Gaussian 16 at Wed Apr  9 03:33:26 2025.
