 Gaussian 16, Revision C.01,

 ----------------------------------------------------------------------
 #t hf aug-cc-pvdz symm=none int=(grid=ultrafine) guess=(read,tcheck) s
 table=(opt,rrhf)
 ----------------------------------------------------------------------
 -----
 title
 -----
 Symbolic Z-matrix:
 Charge =  0 Multiplicity = 1

 SCF Done:  E(RHF) =  -265.004781324     A.U. after   14 cycles
 Normal termination of Gaussian 16 at Wed Apr  9 03:21:05 2025.
 Gaussian 16:  ES64L-G16RevC.01  3-Jul-2019

 ----------------------------------------------------------------------
 #t hf aug-cc-pvdz iop(5/13=1,5/36=2,99/5=2) pseudo=read geom=check gue
 ss=(read,tcheck) scf=(maxcycle=1)
 ----------------------------------------------------------------------
 -----
 title
 -----
 Structure from the checkpoint file:  "Grambow2020_wb97xd3_006059_reverse_mol2.chk"
 Charge =  0 Multiplicity = 1

                         Standard orientation:
 ---------------------------------------------------------------------
 Center     Atomic      Atomic             Coordinates (Angstroms)
 Number     Number       Type             X           Y           Z
 ---------------------------------------------------------------------
      1          6           0       -1.299728   -1.269941   -0.255079
      2          6           0       -0.534609    0.000600    0.035410
      3          6           0       -1.293315    1.278752   -0.238497
      4          7           0        2.093025   -0.038779   -0.495429
      5          6           0        0.899713   -0.002851    0.117606
      6          7           0        0.377488   -0.009918    1.260553
      7          1           0       -0.704298   -2.148926   -0.008396
      8          1           0       -1.585005   -1.329699   -1.309100
      9          1           0       -2.217484   -1.300332    0.338346
     10          1           0       -1.595560    1.346131   -1.287325
     11          1           0       -0.688975    2.152878    0.004456
     12          1           0       -2.201315    1.314357    0.369482
     13          1           0        2.143931    0.166433   -1.474748
     14          1           0        2.922750    0.100678    0.054783
 ---------------------------------------------------------------------

 SCF Done:  E(RHF) =  -265.289008631     A.U. after    2 cycles

 The electronic state is 1-A.
 Alpha  occ. eigenvalues --  -15.54219 -15.47923 -11.31159 -11.27311 -11.22272
 Alpha  occ. eigenvalues --  -11.22142  -1.31200  -1.22065  -1.02433  -0.94226
 Alpha  occ. eigenvalues --   -0.83536  -0.80700  -0.73528  -0.66072  -0.63488
 Alpha  occ. eigenvalues --   -0.60464  -0.57161  -0.54514  -0.54015  -0.51284
 Alpha  occ. eigenvalues --   -0.50470  -0.40077  -0.39761
 Alpha virt. eigenvalues --    0.02474   0.04296   0.04766   0.04806   0.05793
 Alpha virt. eigenvalues --    0.06269   0.07621   0.07747   0.10596   0.12167
 Alpha virt. eigenvalues --    0.13356   0.13503   0.15097   0.15193   0.15611

 Mulliken charges:
               1
     1  C   -0.180201
     2  C   -0.630346
     3  C   -0.162998
     4  N    0.898206
     5  C   -2.230125
     6  N    0.873629
     7  H    0.130692
     8  H    0.255386
     9  H    0.212956
    10  H    0.254249
    11  H    0.120015
    12  H    0.211492
    13  H    0.121163
    14  H    0.125882
 Sum of Mulliken charges =   0.00000

 Dipole moment (field-independent basis, Debye):
    X=              1.3806    Y=              0.5644    Z=             -3.6796  Tot=              3.9704

 Test job not archived.
 1\1\GINC-SE454\SP\RHF\Aug-CC-pVDZ\C4H8N2\OHZDE\09-Apr-2025\0\\#t hf au
 g-cc-pvdz iop(5/13=1,5/36=2,99/5=2) pseudo=read geom=check guess=(read
 ,tcheck) scf=(maxcycle=1)\\title\\0,1\C,0,-0.63136299,1.37903928,-0.67
 208727\C,0,0.06753432,0.32910837,0.16053024\C,0,1.57713309,0.40015565,
 0.14061541\N,0,-1.07506858,-2.09517833,0.23192685\C,0,-0.60927787,-0.8
 7714891,0.54900966\N,0,-0.58699564,-0.04377828,1.48927221\H,0,-1.71412
 546,1.28619108,-0.58837237\H,0,-0.3573653,1.29625629,-1.72754221\H,0,-
 0.3460988,2.37874294,-0.33360375\H,0,1.96842886,0.28488259,-0.8740437\

 Normal termination of Gaussian 16 at Wed Apr  9 03:21:09 2025.
