 Gaussian 16, Revision C.01,

 ----------------------------------------------------------------------
 #t hf aug-cc-pvdz symm=none int=(grid=ultrafine) guess=(read,tcheck) s
 table=(opt,rrhf)
 ----------------------------------------------------------------------
 -----
 title
 -----
 Symbolic Z-matrix:
 Charge =  0 Multiplicity = 1

 SCF Done:  E(RHF) =  -343.642088366     A.U. after   16 cycles
 Normal termination of Gaussian 16 at Wed Apr  9 03:45:36 2025.
 Gaussian 16:  ES64L-G16RevC.01  3-Jul-2019

 ----------------------------------------------------------------------
 #t hf aug-cc-pvdz iop(5/13=1,5/36=2,99/5=2) pseudo=read geom=check gue
 ss=(read,tcheck) scf=(maxcycle=1)
 ----------------------------------------------------------------------
 -----
 title
 -----
 Structure from the checkpoint file:  "Grambow2020_wb97xd3_007805_forward_mol1.chk"
 Charge =  0 Multiplicity = 1

                         Standard orientation:
 ---------------------------------------------------------------------
 Center     Atomic      Atomic             Coordinates (Angstroms)
 Number     Number       Type             X           Y           Z
 ---------------------------------------------------------------------
      1          6           0       -1.852057   -1.170713    0.178765
      2          6           0       -0.919919    0.018224    0.150582
      3          6           0       -1.563875    1.316658   -0.282435
      4          6           0        1.264281    0.170069    1.353121
      5          6           0        1.337804   -0.070166   -0.066228
      6          8           0        2.436520   -0.151965   -0.551707
      7          8           0        0.187534   -0.283719   -0.712968
      8          1           0       -1.331529   -2.057890    0.537940
      9          1           0       -2.703394   -0.973839    0.831307
     10          1           0       -2.222327   -1.367530   -0.829083
     11          1           0       -0.835492    2.127869   -0.301418
     12          1           0       -1.979189    1.205404   -1.285575
     13          1           0       -2.371101    1.588155    0.399125
     14          1           0        1.360924    1.243703    1.569102
     15          1           0       -0.507721    0.135166    1.193184
 ---------------------------------------------------------------------

 SCF Done:  E(RHF) =  -343.990252359     A.U. after    2 cycles

 The electronic state is 1-A.
 Alpha  occ. eigenvalues --  -20.60777 -20.53524 -11.39823 -11.34150 -11.32176
 Alpha  occ. eigenvalues --  -11.25735 -11.25321  -1.56331  -1.46760  -1.09956
 Alpha  occ. eigenvalues --   -1.02228  -0.97744  -0.86778  -0.78561  -0.71225
 Alpha  occ. eigenvalues --   -0.68761  -0.67611  -0.63774  -0.60718  -0.58871
 Alpha  occ. eigenvalues --   -0.57783  -0.55349  -0.54216  -0.52122  -0.47345
 Alpha  occ. eigenvalues --   -0.45000  -0.40148
 Alpha virt. eigenvalues --    0.02678   0.03182   0.03490   0.04103   0.04852
 Alpha virt. eigenvalues --    0.06300   0.06828   0.06914   0.08258   0.09633
 Alpha virt. eigenvalues --    0.11166   0.12557   0.13047   0.13657   0.14787

 Mulliken charges:
               1
     1  C   -0.213354
     2  C   -0.258108
     3  C   -0.188764
     4  C   -0.503265
     5  C    1.876888
     6  O   -1.296562
     7  O   -1.359459
     8  H    0.151302
     9  H    0.204608
    10  H    0.224297
    11  H    0.126067
    12  H    0.236863
    13  H    0.201901
    14  H    0.190516
    15  H    0.607070
 Sum of Mulliken charges =  -0.00000

 Dipole moment (field-independent basis, Debye):
    X=             -4.6771    Y=              1.8881    Z=              1.3735  Tot=              5.2275

 Test job not archived.
 1\1\GINC-SE419\SP\RHF\Aug-CC-pVDZ\C5H8O2\OHZDE\09-Apr-2025\0\\#t hf au
 g-cc-pvdz iop(5/13=1,5/36=2,99/5=2) pseudo=read geom=check guess=(read
 ,tcheck) scf=(maxcycle=1)\\title\\0,1\C,0,-0.95470516,1.42526467,-0.44
 486126\C,0,-0.25946748,0.14639295,-0.03942663\C,0,-1.12076001,-0.82173
 014,0.74097609\C,0,1.8225338,-0.7587837,-1.0814495\C,0,1.9806494,-0.12
 673473,0.20431242\O,0,3.08904897,-0.11069923,0.67415483\O,0,0.90942915
 ,0.47908263,0.72629997\H,0,-0.28895688,2.05299767,-1.03627433\H,0,-1.8
 4639631,1.20587393,-1.0331651\H,0,-1.25248226,1.97726893,0.44856701\H,

 Normal termination of Gaussian 16 at Wed Apr  9 03:45:41 2025.
