 Gaussian 16, Revision C.01,

 ----------------------------------------------------------------------
 #t hf aug-cc-pvdz symm=none int=(grid=ultrafine) guess=(read,tcheck) s
 table=(opt,rrhf)
 ----------------------------------------------------------------------
 -----
 title
 -----
 Symbolic Z-matrix:
 Charge =  0 Multiplicity = 1

 SCF Done:  E(RHF) =  -322.705595232     A.U. after   15 cycles
 Normal termination of Gaussian 16 at Wed Apr  9 03:33:23 2025.
 Gaussian 16:  ES64L-G16RevC.01  3-Jul-2019

 ----------------------------------------------------------------------
 #t hf aug-cc-pvdz iop(5/13=1,5/36=2,99/5=2) pseudo=read geom=check gue
 ss=(read,tcheck) scf=(maxcycle=1)
 ----------------------------------------------------------------------
 -----
 title
 -----
 Structure from the checkpoint file:  "Grambow2020_wb97xd3_007011_reverse_mol2.chk"
 Charge =  0 Multiplicity = 1

                         Standard orientation:
 ---------------------------------------------------------------------
 Center     Atomic      Atomic             Coordinates (Angstroms)
 Number     Number       Type             X           Y           Z
 ---------------------------------------------------------------------
      1          6           0       -2.295703   -0.449436    0.450857
      2          6           0        0.098090   -1.015632   -0.302039
      3          6           0       -1.089130   -0.128526   -0.441969
      4          6           0       -0.537953    1.218264   -0.153016
      5          7           0        0.709036    1.142012    0.081590
      6          6           0        1.248733   -0.337869    0.008154
      7          8           0        2.429958   -0.499839    0.225643
      8          1           0       -3.112792    0.261215    0.303822
      9          1           0       -2.002681   -0.448869    1.501576
     10          1           0       -2.666704   -1.444751    0.208673
     11          1           0        0.064615   -2.083062   -0.443846
     12          1           0       -1.449847   -0.069825   -1.483819
     13          1           0       -1.096486    2.148037   -0.133596
     14          1           0        1.316758    1.921074    0.298990
 ---------------------------------------------------------------------

 SCF Done:  E(RHF) =  -323.038102144     A.U. after    2 cycles

 The electronic state is 1-A.
 Alpha  occ. eigenvalues --  -20.47165 -15.59741 -11.36228 -11.33250 -11.27094
 Alpha  occ. eigenvalues --  -11.25113 -11.18648  -1.42522  -1.32887  -1.10361
 Alpha  occ. eigenvalues --   -0.99797  -0.95343  -0.83873  -0.80781  -0.76698
 Alpha  occ. eigenvalues --   -0.66902  -0.62637  -0.62049  -0.59544  -0.58038
 Alpha  occ. eigenvalues --   -0.54499  -0.53120  -0.52275  -0.49709  -0.40479
 Alpha  occ. eigenvalues --   -0.28140
 Alpha virt. eigenvalues --    0.01626   0.02950   0.03569   0.04005   0.05756
 Alpha virt. eigenvalues --    0.05810   0.06167   0.07399   0.10231   0.10467
 Alpha virt. eigenvalues --    0.11751   0.11972   0.12953   0.13209   0.14673

 Mulliken charges:
               1
     1  C   -0.073303
     2  C    0.993256
     3  C   -1.173146
     4  C   -0.424066
     5  N    0.879840
     6  C    0.479988
     7  O   -1.307378
     8  H    0.140194
     9  H    0.249816
    10  H    0.163252
    11  H   -0.176811
    12  H    0.279930
    13  H   -0.076882
    14  H    0.045309
 Sum of Mulliken charges =   0.00000

 Dipole moment (field-independent basis, Debye):
    X=             -5.7542    Y=              4.7801    Z=             -0.4774  Tot=              7.4959

 Test job not archived.
 1\1\GINC-SE080\SP\RHF\Aug-CC-pVDZ\C5H7N1O1\OHZDE\09-Apr-2025\0\\#t hf
 aug-cc-pvdz iop(5/13=1,5/36=2,99/5=2) pseudo=read geom=check guess=(re
 ad,tcheck) scf=(maxcycle=1)\\title\\0,1\C,0,-1.36640779,0.78485071,0.9
 269698\C,0,-0.3618692,-0.32708485,-1.16400561\C,0,-0.19470827,0.652530
 5,-0.05565528\C,0,1.03827256,0.18398785,0.62357931\N,0,1.50796354,-0.8
 3599651,0.02787917\C,0,0.62962319,-1.27295805,-1.20674513\O,0,1.005250
 7,-2.24334863,-1.82809369\H,0,-1.15380174,1.50480771,1.7211608\H,0,-1.
 60140799,-0.18302307,1.37179275\H,0,-2.24934362,1.12759116,0.38854574\

 Normal termination of Gaussian 16 at Wed Apr  9 03:33:28 2025.
