 Gaussian 16, Revision C.01,

 ----------------------------------------------------------------------
 #t hf aug-cc-pvdz symm=none int=(grid=ultrafine) guess=(read,tcheck) s
 table=(opt,rrhf)
 ----------------------------------------------------------------------
 -----
 title
 -----
 Symbolic Z-matrix:
 Charge =  0 Multiplicity = 1

 SCF Done:  E(RHF) =  -302.798285310     A.U. after   16 cycles
 Normal termination of Gaussian 16 at Wed Apr  9 19:13:05 2025.
 Gaussian 16:  ES64L-G16RevC.01  3-Jul-2019

 ----------------------------------------------------------------------
 #t hf aug-cc-pvdz iop(5/13=1,5/36=2,99/5=2) pseudo=read geom=check gue
 ss=(read,tcheck) scf=(maxcycle=1)
 ----------------------------------------------------------------------
 -----
 title
 -----
 Structure from the checkpoint file:  "Grambow2020_wb97xd3_008900_forward_mol1.chk"
 Charge =  0 Multiplicity = 1

                         Standard orientation:
 ---------------------------------------------------------------------
 Center     Atomic      Atomic             Coordinates (Angstroms)
 Number     Number       Type             X           Y           Z
 ---------------------------------------------------------------------
      1          6           0       -1.174697   -1.383064    0.632606
      2          7           0       -0.094525   -0.626655   -0.700225
      3          6           0       -1.278512    0.142505   -0.542198
      4          6           0       -0.974589    1.359112    0.058758
      5          6           0        0.392143    1.320651    0.338174
      6          6           0        0.874578    0.092771   -0.112922
      7          7           0        2.140228   -0.475550    0.075083
      8          1           0       -0.640097   -2.319846    0.512392
      9          1           0       -0.894241   -0.865571    1.543585
     10          1           0       -2.245397   -1.565224    0.571216
     11          1           0       -2.140208   -0.097963   -1.145374
     12          1           0       -1.664273    2.161073    0.271529
     13          1           0        0.973253    2.093343    0.822327
     14          1           0        2.394573   -1.089121   -0.683878
     15          1           0        2.862937    0.206903    0.237697
 ---------------------------------------------------------------------

 SCF Done:  E(RHF) =  -303.116059288     A.U. after    2 cycles

 The electronic state is 1-A.
 Alpha  occ. eigenvalues --  -15.50830 -15.49526 -11.30074 -11.26942 -11.26230
 Alpha  occ. eigenvalues --  -11.22266 -11.21492  -1.28521  -1.17920  -1.03639
 Alpha  occ. eigenvalues --   -0.98172  -0.92112  -0.79493  -0.76550  -0.71983
 Alpha  occ. eigenvalues --   -0.68664  -0.63960  -0.60978  -0.59669  -0.56536
 Alpha  occ. eigenvalues --   -0.55879  -0.54418  -0.49886  -0.47038  -0.36600
 Alpha  occ. eigenvalues --   -0.28490
 Alpha virt. eigenvalues --    0.03455   0.03801   0.04242   0.04651   0.05368
 Alpha virt. eigenvalues --    0.05815   0.06710   0.07747   0.09994   0.11397
 Alpha virt. eigenvalues --    0.12331   0.12669   0.13189   0.14100   0.15098

 Mulliken charges:
               1
     1  C   -0.111685
     2  N    0.989680
     3  C   -0.310138
     4  C   -0.042976
     5  C    0.676075
     6  C   -2.245717
     7  N    0.716590
     8  H    0.205894
     9  H    0.274268
    10  H    0.076661
    11  H   -0.122034
    12  H   -0.147932
    13  H   -0.179048
    14  H    0.063698
    15  H    0.156664
 Sum of Mulliken charges =   0.00000

 Dipole moment (field-independent basis, Debye):
    X=             -0.5606    Y=              0.1504    Z=              0.9054  Tot=              1.0755

 Test job not archived.
 1\1\GINC-SE045\SP\RHF\Aug-CC-pVDZ\C5H8N2\OHZDE\09-Apr-2025\0\\#t hf au
 g-cc-pvdz iop(5/13=1,5/36=2,99/5=2) pseudo=read geom=check guess=(read
 ,tcheck) scf=(maxcycle=1)\\title\\0,1\C,0,-0.85691611,-1.54949684,0.09
 353092\N,0,-0.40246191,0.0823809,0.89715372\C,0,0.73038134,-0.77444828
 ,0.86689416\C,0,1.65508233,-0.30219755,-0.05806926\C,0,1.06784005,0.81
 405505,-0.65525943\C,0,-0.18339629,0.99103245,-0.06618603\N,0,-1.20678
 376,1.87517009,-0.42837666\H,0,-1.90285069,-1.33750017,0.29072757\H,0,
 -0.60381465,-1.42290578,-0.9534901\H,0,-0.61153216,-2.54278983,0.46299

 Normal termination of Gaussian 16 at Wed Apr  9 19:13:10 2025.
