 Gaussian 16, Revision C.01,

 ----------------------------------------------------------------------
 #t hf aug-cc-pvdz symm=none int=(grid=ultrafine) guess=(read,tcheck) s
 table=(opt,rrhf)
 ----------------------------------------------------------------------
 -----
 title
 -----
 Symbolic Z-matrix:
 Charge =  0 Multiplicity = 1

 SCF Done:  E(RHF) =  -339.859198326     A.U. after   14 cycles
 Normal termination of Gaussian 16 at Wed Apr  9 17:17:31 2025.
 Gaussian 16:  ES64L-G16RevC.01  3-Jul-2019

 ----------------------------------------------------------------------
 #t hf aug-cc-pvdz iop(5/13=1,5/36=2,99/5=2) pseudo=read geom=check gue
 ss=(read,tcheck) scf=(maxcycle=1)
 ----------------------------------------------------------------------
 -----
 title
 -----
 Structure from the checkpoint file:  "Grambow2020_wb97xd3_006551_reverse_mol2.chk"
 Charge =  0 Multiplicity = 1

                         Standard orientation:
 ---------------------------------------------------------------------
 Center     Atomic      Atomic             Coordinates (Angstroms)
 Number     Number       Type             X           Y           Z
 ---------------------------------------------------------------------
      1          6           0        2.867324   -0.349550    0.289106
      2          7           0        1.564923   -0.657487   -0.266576
      3          6           0       -0.796626    0.588644   -0.477127
      4          6           0       -1.923326    0.205184    0.450203
      5          8           0       -2.661101   -0.911346   -0.015990
      6          6           0        0.572358    0.231441   -0.223770
      7          7           0        0.341406    1.429540    0.086362
      8          1           0        2.916244   -0.555200    1.361752
      9          1           0        3.631427   -0.934594   -0.221154
     10          1           0        3.076241    0.707681    0.129943
     11          1           0        1.345875   -1.601462   -0.521733
     12          1           0       -1.109060    0.819305   -1.495822
     13          1           0       -2.640574    1.025739    0.513831
     14          1           0       -1.523356    0.035550    1.457492
     15          1           0       -2.070667   -1.664933   -0.065368
 ---------------------------------------------------------------------

 SCF Done:  E(RHF) =  -340.215064362     A.U. after    2 cycles

 The electronic state is 1-A.
 Alpha  occ. eigenvalues --  -20.54940 -15.54802 -15.49002 -11.32071 -11.28606
 Alpha  occ. eigenvalues --  -11.28179 -11.27281  -1.45105  -1.32240  -1.24453
 Alpha  occ. eigenvalues --   -0.98304  -0.97904  -0.84684  -0.81962  -0.72008
 Alpha  occ. eigenvalues --   -0.70659  -0.66815  -0.65705  -0.61565  -0.60181
 Alpha  occ. eigenvalues --   -0.58378  -0.57211  -0.51902  -0.49673  -0.45454
 Alpha  occ. eigenvalues --   -0.41993  -0.39451
 Alpha virt. eigenvalues --    0.02355   0.03823   0.04481   0.05075   0.05496
 Alpha virt. eigenvalues --    0.05612   0.06513   0.07315   0.10471   0.11579
 Alpha virt. eigenvalues --    0.12286   0.12668   0.13449   0.14180   0.15175

 Mulliken charges:
               1
     1  C   -0.375235
     2  N    0.818351
     3  C    0.058435
     4  C    0.780165
     5  O   -1.073928
     6  C   -2.015772
     7  N    0.868592
     8  H    0.162785
     9  H    0.058277
    10  H    0.126392
    11  H    0.199907
    12  H   -0.144292
    13  H    0.122752
    14  H    0.117850
    15  H    0.295721
 Sum of Mulliken charges =  -0.00000

 Dipole moment (field-independent basis, Debye):
    X=              2.8136    Y=             -3.8135    Z=             -0.3004  Tot=              4.7487

 Test job not archived.
 1\1\GINC-SE226\SP\RHF\Aug-CC-pVDZ\C4H8N2O1\OHZDE\09-Apr-2025\0\\#t hf
 aug-cc-pvdz iop(5/13=1,5/36=2,99/5=2) pseudo=read geom=check guess=(re
 ad,tcheck) scf=(maxcycle=1)\\title\\0,1\C,0,-2.52357124,0.11218037,0.8
 3235852\N,0,-1.15306744,0.5768959,0.75743038\C,0,0.90845611,0.2704107,
 -0.92491244\C,0,2.02891253,-0.67247789,-0.56163105\O,0,3.00957735,-0.0
 6668681,0.26274851\C,0,-0.37040675,0.24469735,-0.26935977\N,0,-0.41220
 892,-0.32998715,-1.38871344\H,0,-2.59690132,-0.88298322,1.27904099\H,0
 ,-3.11631225,0.81146606,1.42070635\H,0,-2.93594563,0.07014477,-0.17506

 Normal termination of Gaussian 16 at Wed Apr  9 17:17:36 2025.
