 Gaussian 16, Revision C.01,

 ----------------------------------------------------------------------
 #t hf aug-cc-pvdz symm=none int=(grid=ultrafine) guess=(read,tcheck) s
 table=(opt,rrhf)
 ----------------------------------------------------------------------
 -----
 title
 -----
 Symbolic Z-matrix:
 Charge =  0 Multiplicity = 1

 SCF Done:  E(RHF) =  -343.598683142     A.U. after   15 cycles
 Normal termination of Gaussian 16 at Wed Apr  9 03:27:55 2025.
 Gaussian 16:  ES64L-G16RevC.01  3-Jul-2019

 ----------------------------------------------------------------------
 #t hf aug-cc-pvdz iop(5/13=1,5/36=2,99/5=2) pseudo=read geom=check gue
 ss=(read,tcheck) scf=(maxcycle=1)
 ----------------------------------------------------------------------
 -----
 title
 -----
 Structure from the checkpoint file:  "Grambow2020_wb97xd3_006672_forward_mol1.chk"
 Charge =  0 Multiplicity = 1

                         Standard orientation:
 ---------------------------------------------------------------------
 Center     Atomic      Atomic             Coordinates (Angstroms)
 Number     Number       Type             X           Y           Z
 ---------------------------------------------------------------------
      1          6           0        1.714620   -0.293230   -0.924177
      2          6           0        0.497315    0.139110   -0.381861
      3          8           0        1.112319   -0.099776    1.445049
      4          6           0       -0.160008    1.500892   -0.271437
      5          6           0       -1.497002    0.833797    0.147361
      6          6           0       -0.852161   -0.523735   -0.136854
      7          8           0       -1.236777   -1.648652   -0.207700
      8          1           0        1.892349   -0.338391    0.426136
      9          1           0        1.755548   -1.306443   -1.309365
     10          1           0        2.344315    0.440814   -1.412387
     11          1           0        0.813133   -0.915488    1.865499
     12          1           0        0.298502    2.178939    0.442201
     13          1           0       -0.205929    1.978467   -1.251989
     14          1           0       -1.744351    0.953281    1.201580
     15          1           0       -2.374495    1.055246   -0.458667
 ---------------------------------------------------------------------

 SCF Done:  E(RHF) =  -343.952731504     A.U. after    2 cycles

 The electronic state is 1-A.
 Alpha  occ. eigenvalues --  -20.56732 -20.52181 -11.36432 -11.34666 -11.26950
 Alpha  occ. eigenvalues --  -11.26571 -11.22059  -1.50397  -1.38377  -1.17751
 Alpha  occ. eigenvalues --   -1.03800  -0.90654  -0.87679  -0.72191  -0.70128
 Alpha  occ. eigenvalues --   -0.67847  -0.67215  -0.64015  -0.60039  -0.57132
 Alpha  occ. eigenvalues --   -0.54938  -0.54169  -0.53057  -0.51022  -0.45933
 Alpha  occ. eigenvalues --   -0.42379  -0.35832
 Alpha virt. eigenvalues --    0.03193   0.03597   0.04256   0.04547   0.05884
 Alpha virt. eigenvalues --    0.06195   0.06495   0.06944   0.08595   0.10205
 Alpha virt. eigenvalues --    0.10479   0.12738   0.13183   0.13555   0.14784

 Mulliken charges:
               1
     1  C   -0.749620
     2  C    0.307846
     3  O   -1.108009
     4  C   -0.050920
     5  C   -0.155187
     6  C    1.238464
     7  O   -1.397278
     8  H    0.849069
     9  H    0.022329
    10  H    0.007460
    11  H    0.410460
    12  H    0.156970
    13  H    0.154559
    14  H    0.200140
    15  H    0.113717
 Sum of Mulliken charges =   0.00000

 Dipole moment (field-independent basis, Debye):
    X=             -0.6297    Y=              2.4000    Z=             -1.0701  Tot=              2.7022

 Test job not archived.
 1\1\GINC-SE143\SP\RHF\Aug-CC-pVDZ\C5H8O2\OHZDE\09-Apr-2025\0\\#t hf au
 g-cc-pvdz iop(5/13=1,5/36=2,99/5=2) pseudo=read geom=check guess=(read
 ,tcheck) scf=(maxcycle=1)\\title\\0,1\C,0,-1.76072187,-0.61280812,-0.1
 1341299\C,0,-0.40608457,-0.26741672,-0.02112729\O,0,-0.77649008,1.6319
 8339,-0.18839451\C,0,0.58097051,-0.25148602,1.12960563\C,0,1.75523723,
 -0.05634314,0.13412735\C,0,0.75478389,-0.24579506,-1.00722852\O,0,0.82
 928045,-0.38640382,-2.1875109\H,0,-1.73685823,0.74815322,-0.17811386\H
 ,0,-2.11273878,-0.99510896,-1.06555598\H,0,-2.25256164,-0.98842592,0.7

 Normal termination of Gaussian 16 at Wed Apr  9 03:28:01 2025.
