 Gaussian 16, Revision C.01,

 ----------------------------------------------------------------------
 #t hf aug-cc-pvdz symm=none int=(grid=ultrafine) guess=(read,tcheck) s
 table=(opt,rrhf)
 ----------------------------------------------------------------------
 -----
 title
 -----
 Symbolic Z-matrix:
 Charge =  0 Multiplicity = 1

 SCF Done:  E(RHF) =  -343.538260639     A.U. after   16 cycles
 Normal termination of Gaussian 16 at Wed Apr  9 18:31:33 2025.
 Gaussian 16:  ES64L-G16RevC.01  3-Jul-2019

 ----------------------------------------------------------------------
 #t hf aug-cc-pvdz iop(5/13=1,5/36=2,99/5=2) pseudo=read geom=check gue
 ss=(read,tcheck) scf=(maxcycle=1)
 ----------------------------------------------------------------------
 -----
 title
 -----
 Structure from the checkpoint file:  "Grambow2020_wb97xd3_007673_forward_mol1.chk"
 Charge =  0 Multiplicity = 1

                         Standard orientation:
 ---------------------------------------------------------------------
 Center     Atomic      Atomic             Coordinates (Angstroms)
 Number     Number       Type             X           Y           Z
 ---------------------------------------------------------------------
      1          6           0       -1.541754   -1.239347   -0.201451
      2          6           0       -0.407505   -0.628207    0.609356
      3          6           0        0.963985   -0.838947    0.001032
      4          8           0        1.102620    0.235496   -0.921426
      5          6           0        1.928810    0.191657    0.424873
      6          6           0       -0.370806    0.877040    0.556955
      7          8           0       -1.137925    1.575874   -0.191925
      8          1           0       -1.504034   -2.324171   -0.108561
      9          1           0       -1.430744   -1.018217   -1.268410
     10          1           0       -2.531169   -0.918566    0.134807
     11          1           0       -0.458638   -0.930421    1.661206
     12          1           0        1.205649   -1.829707   -0.387003
     13          1           0        2.935756   -0.107658    0.109946
     14          1           0        0.180998    1.440411    1.295165
     15          1           0       -1.551758    1.024198   -0.874935
 ---------------------------------------------------------------------

 SCF Done:  E(RHF) =  -343.888838861     A.U. after    2 cycles

 The electronic state is 1-A.
 Alpha  occ. eigenvalues --  -20.67495 -20.51212 -11.43414 -11.27810 -11.26589
 Alpha  occ. eigenvalues --  -11.26542 -11.19099  -1.61179  -1.42434  -1.11800
 Alpha  occ. eigenvalues --   -0.99247  -0.92724  -0.86316  -0.79342  -0.75988
 Alpha  occ. eigenvalues --   -0.73186  -0.67795  -0.64077  -0.61613  -0.60053
 Alpha  occ. eigenvalues --   -0.56631  -0.54632  -0.53711  -0.47500  -0.42061
 Alpha  occ. eigenvalues --   -0.39608  -0.28267
 Alpha virt. eigenvalues --    0.02146   0.03165   0.03407   0.04814   0.05709
 Alpha virt. eigenvalues --    0.06315   0.06989   0.07393   0.07955   0.09857
 Alpha virt. eigenvalues --    0.12038   0.12306   0.13198   0.13783   0.14319

 Mulliken charges:
               1
     1  C   -0.164380
     2  C   -0.992762
     3  C    1.358718
     4  O   -1.355739
     5  C   -0.272911
     6  C    1.870031
     7  O   -1.338556
     8  H    0.096313
     9  H    0.246228
    10  H    0.145788
    11  H    0.169592
    12  H   -0.125179
    13  H   -0.071049
    14  H    0.071506
    15  H    0.362401
 Sum of Mulliken charges =  -0.00000

 Dipole moment (field-independent basis, Debye):
    X=             -6.2853    Y=             -1.4668    Z=              0.5974  Tot=              6.4818

 Test job not archived.
 1\1\GINC-SE104\SP\RHF\Aug-CC-pVDZ\C5H8O2\OHZDE\09-Apr-2025\0\\#t hf au
 g-cc-pvdz iop(5/13=1,5/36=2,99/5=2) pseudo=read geom=check guess=(read
 ,tcheck) scf=(maxcycle=1)\\title\\0,1\C,0,1.60633357,-0.48850751,0.062
 98918\C,0,0.30988074,0.10037467,0.60136673\C,0,-0.26523299,1.20657786,
 -0.25945427\O,0,-1.03512997,0.51880309,-1.23863735\C,0,-1.72159144,1.3
 5212931,-0.08478769\C,0,-0.87209141,-0.82522356,0.4746006\O,0,-0.82601
 433,-1.94888121,-0.1360801\H,0,2.41017,0.23481854,0.19542866\H,0,1.538
 67191,-0.67909595,-1.01344901\H,0,1.90679058,-1.40584183,0.57595705\H,

 Normal termination of Gaussian 16 at Wed Apr  9 18:31:39 2025.
