 Gaussian 16, Revision C.01,

 ----------------------------------------------------------------------
 #t hf aug-cc-pvdz symm=none int=(grid=ultrafine) guess=(read,tcheck) s
 table=(opt,rrhf)
 ----------------------------------------------------------------------
 -----
 title
 -----
 Symbolic Z-matrix:
 Charge =  0 Multiplicity = 1

 SCF Done:  E(RHF) =  -302.230213903     A.U. after   16 cycles
 Normal termination of Gaussian 16 at Wed Apr  9 15:43:34 2025.
 Gaussian 16:  ES64L-G16RevC.01  3-Jul-2019

 ----------------------------------------------------------------------
 #t hf aug-cc-pvdz iop(5/13=1,5/36=2,99/5=2) pseudo=read geom=check gue
 ss=(read,tcheck) scf=(maxcycle=1)
 ----------------------------------------------------------------------
 -----
 title
 -----
 Structure from the checkpoint file:  "Grambow2020_b97d3_006710_reverse_mol2.chk"
 Charge =  0 Multiplicity = 1

                         Standard orientation:
 ---------------------------------------------------------------------
 Center     Atomic      Atomic             Coordinates (Angstroms)
 Number     Number       Type             X           Y           Z
 ---------------------------------------------------------------------
      1          8           0        3.112499   -0.673740    0.002556
      2          6           0        2.115809   -0.063429   -0.000289
      3          6           0        1.003636    0.621416   -0.003971
      4          6           0       -0.096264    1.288390   -0.003312
      5          6           0       -2.735542    0.174791    0.006658
      6          8           0       -2.629025   -1.035370   -0.005013
      7          1           0       -2.777549    0.765554    0.951165
      8          1           0       -2.816079    0.780312   -0.926028
 ---------------------------------------------------------------------

 SCF Done:  E(RHF) =  -302.514302666     A.U. after    2 cycles

 The electronic state is 1-A.
 Alpha  occ. eigenvalues --  -20.68906 -20.55524 -11.48648 -11.35667 -11.34825
 Alpha  occ. eigenvalues --  -11.27236  -1.61545  -1.47272  -1.12118  -0.96057
 Alpha  occ. eigenvalues --   -0.86588  -0.79721  -0.68394  -0.68392  -0.68140
 Alpha  occ. eigenvalues --   -0.64268  -0.53689  -0.50083  -0.45156  -0.44955
 Alpha  occ. eigenvalues --   -0.42406
 Alpha virt. eigenvalues --    0.00834   0.00872   0.04096   0.05437   0.05619
 Alpha virt. eigenvalues --    0.07507   0.08634   0.09052   0.09537   0.11761
 Alpha virt. eigenvalues --    0.12568   0.14260   0.14999   0.16127   0.16254

 Mulliken charges:
               1
     1  O   -0.712701
     2  C    0.274793
     3  C    0.897344
     4  C   -0.464980
     5  C    0.527738
     6  O   -0.856463
     7  H    0.167719
     8  H    0.166550
 Sum of Mulliken charges =  -0.00000

 Dipole moment (field-independent basis, Debye):
    X=              1.7187    Y=              1.7418    Z=              0.0282  Tot=              2.4471

 Test job not archived.
 1\1\GINC-SE120\SP\RHF\Aug-CC-pVDZ\C4H2O2\OHZDE\09-Apr-2025\0\\#t hf au
 g-cc-pvdz iop(5/13=1,5/36=2,99/5=2) pseudo=read geom=check guess=(read
 ,tcheck) scf=(maxcycle=1)\\title\\0,1\O,0,-3.38314545,-0.72144137,1.42
 271061\C,0,-2.42989606,-0.16070678,1.04486087\C,0,-1.36565426,0.468738
 21,0.62397703\C,0,-0.31585761,1.0814463,0.20308275\C,0,1.96622056,-0.1
 4355423,-1.02063441\O,0,1.77092362,-1.34211429,-1.05645715\H,0,1.65643
 836,0.54095021,-1.84425321\H,0,2.48450785,0.35600595,-0.1692455\\Versi
 on=ES64L-G16RevC.01\State=1-A\HF=-302.5143027\RMSD=1.211e-02\Dipole=-0

 Normal termination of Gaussian 16 at Wed Apr  9 15:43:37 2025.
