 Gaussian 16, Revision C.01,

 ----------------------------------------------------------------------
 #t hf aug-cc-pvdz symm=none int=(grid=ultrafine) guess=(read,tcheck) s
 table=(opt,rrhf)
 ----------------------------------------------------------------------
 -----
 title
 -----
 Symbolic Z-matrix:
 Charge =  0 Multiplicity = 1

 SCF Done:  E(RHF) =  -353.521256657     A.U. after   15 cycles
 Normal termination of Gaussian 16 at Wed Apr  9 18:39:13 2025.
 Gaussian 16:  ES64L-G16RevC.01  3-Jul-2019

 ----------------------------------------------------------------------
 #t hf aug-cc-pvdz iop(5/13=1,5/36=2,99/5=2) pseudo=read geom=check gue
 ss=(read,tcheck) scf=(maxcycle=1)
 ----------------------------------------------------------------------
 -----
 title
 -----
 Structure from the checkpoint file:  "Grambow2020_wb97xd3_007938_reverse_mol2.chk"
 Charge =  0 Multiplicity = 1

                         Standard orientation:
 ---------------------------------------------------------------------
 Center     Atomic      Atomic             Coordinates (Angstroms)
 Number     Number       Type             X           Y           Z
 ---------------------------------------------------------------------
      1          8           0       -2.220021   -0.157009    0.000351
      2          6           0       -0.898648   -0.061926   -0.000180
      3          6           0       -0.173950   -1.322024   -0.000491
      4          7           0        1.113556   -1.048209    0.000085
      5          7           0        1.774280    0.137691    0.000405
      6          6           0        0.983850    1.162613   -0.000266
      7          7           0       -0.366664    1.128688   -0.000139
      8          1           0       -2.576873    0.740544    0.000082
      9          1           0        1.764488   -1.821227    0.000249
     10          1           0        1.456833    2.137585    0.000029
 ---------------------------------------------------------------------

 SCF Done:  E(RHF) =  -353.870538147     A.U. after    2 cycles

 The electronic state is 1-A.
 Alpha  occ. eigenvalues --  -20.61121 -15.62655 -15.56163 -15.53371 -11.38116
 Alpha  occ. eigenvalues --  -11.33708 -11.27236  -1.54683  -1.40075  -1.26917
 Alpha  occ. eigenvalues --   -1.18262  -0.99540  -0.96025  -0.84112  -0.82921
 Alpha  occ. eigenvalues --   -0.69845  -0.68777  -0.68456  -0.61259  -0.61243
 Alpha  occ. eigenvalues --   -0.59493  -0.51258  -0.50882  -0.41816  -0.38979
 Alpha virt. eigenvalues --    0.03084   0.03520   0.04528   0.04981   0.08134
 Alpha virt. eigenvalues --    0.08671   0.09059   0.09715   0.10789   0.11564
 Alpha virt. eigenvalues --    0.13052   0.13868   0.13873   0.14771   0.16416

 Mulliken charges:
               1
     1  O   -1.315720
     2  C    0.413901
     3  C   -0.522949
     4  N    0.354056
     5  N    0.058395
     6  C   -0.333130
     7  N    0.852797
     8  H    0.351076
     9  H    0.180012
    10  H   -0.038439
 Sum of Mulliken charges =  -0.00000

 Dipole moment (field-independent basis, Debye):
    X=              0.0235    Y=              1.7577    Z=             -0.0005  Tot=              1.7579

 Test job not archived.
 1\1\GINC-SE135\SP\RHF\Aug-CC-pVDZ\C3H3N3O1\OHZDE\09-Apr-2025\0\\#t hf
 aug-cc-pvdz iop(5/13=1,5/36=2,99/5=2) pseudo=read geom=check guess=(re
 ad,tcheck) scf=(maxcycle=1)\\title\\0,1\O,0,2.20425657,-0.66490782,0.1
 2488461\C,0,0.95171679,-0.23969255,0.05136686\C,0,0.77658926,1.2012509
 3,-0.02639649\N,0,-0.51455444,1.44888054,-0.09177324\N,0,-1.58487959,0
 .61383231,-0.09548536\C,0,-1.25752053,-0.63621978,-0.02164286\N,0,-0.0
 0201224,-1.12904919,0.05488563\H,0,2.18244614,-1.62946605,0.17065676\H
 ,0,-0.81182472,2.41293326,-0.15094583\H,0,-2.07288025,-1.34999164,-0.0

 Normal termination of Gaussian 16 at Wed Apr  9 18:39:16 2025.
