 Gaussian 16, Revision C.01,

 ----------------------------------------------------------------------
 #t hf aug-cc-pvdz symm=none int=(grid=ultrafine) guess=(read,tcheck) s
 table=(opt,rrhf)
 ----------------------------------------------------------------------
 -----
 title
 -----
 Symbolic Z-matrix:
 Charge =  0 Multiplicity = 1

 SCF Done:  E(RHF) =  -289.056458574     A.U. after   15 cycles

 1\1\GINC-SE095\Stability\RHF\Aug-CC-pVDZ\C6H13N1\OHZDE\09-Apr-2025\0\\
 #t hf aug-cc-pvdz symm=none int=(grid=ultrafine) guess=(read,tcheck) s
 table=(opt,rrhf)\\title\\0,1\C,0,-1.12104922,1.94977542,0.59623198\C,0
 ,-0.76351564,0.49798986,0.8632037\N,0,-1.50535315,-0.48526804,0.197261
 81\C,0,-0.511871,-1.72727454,-0.71369448\C,0,0.23724643,-0.20324656,0.
 00527731\C,0,1.3188992,-0.87596839,0.82750857\C,0,0.73354778,0.5537706
 2,-1.20307274\H,0,-2.0264981,2.19857878,1.15323527\H,0,-0.32989556,2.6
 2692661,0.9307186\H,0,-1.32463446,2.12447528,-0.45941318\H,0,-0.576960

 Normal termination of Gaussian 16 at Wed Apr  9 04:05:20 2025.
 Gaussian 16:  ES64L-G16RevC.01  3-Jul-2019

 ----------------------------------------------------------------------
 #t hf aug-cc-pvdz iop(5/13=1,5/36=2,99/5=2) pseudo=read geom=check gue
 ss=(read,tcheck) scf=(maxcycle=1)
 ----------------------------------------------------------------------
 -----
 title
 -----
 Structure from the checkpoint file:  "Grambow2020_wb97xd3_009132_reverse_mol1.chk"
 Charge =  0 Multiplicity = 1

                         Standard orientation:
 ---------------------------------------------------------------------
 Center     Atomic      Atomic             Coordinates (Angstroms)
 Number     Number       Type             X           Y           Z
 ---------------------------------------------------------------------
      1          6           0        2.264753   -0.076970   -0.001071
      2          6           0        0.920008    0.314449    0.586496
      3          7           0        0.247167    1.394639    0.002482
      4          6           0       -1.487588    1.060108   -0.485516
      5          6           0       -0.340177   -0.280406    0.050420
      6          6           0       -1.206443   -0.862963    1.149876
      7          6           0       -0.204146   -1.145569   -1.179413
      8          1           0        3.020338    0.631863    0.343373
      9          1           0        2.572135   -1.074098    0.326942
     10          1           0        2.251579   -0.042114   -1.089632
     11          1           0        0.961088    0.287246    1.688663
     12          1           0       -2.134685    0.268080   -0.885905
     13          1           0       -1.995826    1.530322    0.347453
     14          1           0       -1.327723    1.757047   -1.297668
     15          1           0       -0.722083   -1.763270    1.535640
     16          1           0       -1.319105   -0.159767    1.974759
     17          1           0       -2.198071   -1.135570    0.780552
     18          1           0        0.257154   -0.596712   -1.998468
     19          1           0       -1.184155   -1.497028   -1.511035
     20          1           0        0.410748   -2.020370   -0.956808
 ---------------------------------------------------------------------

 SCF Done:  E(RHF) =  -289.369184429     A.U. after    2 cycles

 The electronic state is 1-A.
 Alpha  occ. eigenvalues --  -15.48016 -11.29478 -11.27041 -11.24971 -11.24038
 Alpha  occ. eigenvalues --  -11.23710 -11.21827  -1.22286  -1.04655  -0.98823
 Alpha  occ. eigenvalues --   -0.95946  -0.92804  -0.80135  -0.73901  -0.66043
 Alpha  occ. eigenvalues --   -0.64991  -0.62950  -0.59942  -0.57579  -0.55996
 Alpha  occ. eigenvalues --   -0.54664  -0.53989  -0.53260  -0.52300  -0.49803
 Alpha  occ. eigenvalues --   -0.47302  -0.39976  -0.36678
 Alpha virt. eigenvalues --    0.03414   0.03745   0.03903   0.04330   0.05412
 Alpha virt. eigenvalues --    0.05689   0.05964   0.06389   0.07012   0.09337
 Alpha virt. eigenvalues --    0.09441   0.09671   0.09965   0.12098   0.12880

 Mulliken charges:
               1
     1  C   -0.271514
     2  C   -0.626815
     3  N    0.578000
     4  C   -0.079713
     5  C   -1.905900
     6  C    0.033184
     7  C   -0.041046
     8  H    0.132952
     9  H    0.236900
    10  H    0.254655
    11  H    0.015230
    12  H    0.293333
    13  H    0.149666
    14  H    0.038070
    15  H    0.195026
    16  H    0.227758
    17  H    0.149471
    18  H    0.322760
    19  H    0.076058
    20  H    0.221927
 Sum of Mulliken charges =  -0.00000

 Dipole moment (field-independent basis, Debye):
    X=             -1.2267    Y=             -2.6817    Z=              0.0960  Tot=              2.9505

 Test job not archived.
 1\1\GINC-SE095\SP\RHF\Aug-CC-pVDZ\C6H13N1\OHZDE\09-Apr-2025\0\\#t hf a
 ug-cc-pvdz iop(5/13=1,5/36=2,99/5=2) pseudo=read geom=check guess=(rea
 d,tcheck) scf=(maxcycle=1)\\title\\0,1\C,0,-1.12104922,1.94977542,0.59
 623198\C,0,-0.76351564,0.49798986,0.8632037\N,0,-1.50535315,-0.4852680
 4,0.19726181\C,0,-0.511871,-1.72727454,-0.71369448\C,0,0.23724643,-0.2
 0324656,0.00527731\C,0,1.3188992,-0.87596839,0.82750857\C,0,0.73354778
 ,0.55377062,-1.20307274\H,0,-2.0264981,2.19857878,1.15323527\H,0,-0.32
 989556,2.62692661,0.9307186\H,0,-1.32463446,2.12447528,-0.45941318\H,0

 Normal termination of Gaussian 16 at Wed Apr  9 04:05:28 2025.
