 Gaussian 16, Revision C.01,

 ----------------------------------------------------------------------
 #t hf aug-cc-pvdz symm=none int=(grid=ultrafine) guess=(read,tcheck) s
 table=(opt,rrhf)
 ----------------------------------------------------------------------
 -----
 title
 -----
 Symbolic Z-matrix:
 Charge =  0 Multiplicity = 1

 SCF Done:  E(RHF) =  -394.449938352     A.U. after   14 cycles
 Normal termination of Gaussian 16 at Wed Apr  9 18:13:53 2025.
 Gaussian 16:  ES64L-G16RevC.01  3-Jul-2019

 ----------------------------------------------------------------------
 #t hf aug-cc-pvdz iop(5/13=1,5/36=2,99/5=2) pseudo=read geom=check gue
 ss=(read,tcheck) scf=(maxcycle=1)
 ----------------------------------------------------------------------
 -----
 title
 -----
 Structure from the checkpoint file:  "Grambow2020_wb97xd3_007202_reverse_mol2.chk"
 Charge =  0 Multiplicity = 1

                         Standard orientation:
 ---------------------------------------------------------------------
 Center     Atomic      Atomic             Coordinates (Angstroms)
 Number     Number       Type             X           Y           Z
 ---------------------------------------------------------------------
      1          7           0        1.490683   -1.364585   -0.609924
      2          6           0        1.011734   -0.398823    0.210474
      3          8           0        0.636953   -0.575970    1.340773
      4          6           0       -2.134912   -0.177198   -0.541574
      5          8           0       -3.079478   -0.208553    0.063633
      6          6           0        0.995789    0.993078   -0.451159
      7          8           0        0.662274    1.973295    0.135913
      8          1           0        1.515961   -2.313581   -0.280929
      9          1           0        1.740364   -1.177079   -1.563125
     10          1           0        1.315228    1.030236   -1.515476
 ---------------------------------------------------------------------

 SCF Done:  E(RHF) =  -394.824986978     A.U. after    2 cycles

 The electronic state is 1-A.
 Alpha  occ. eigenvalues --  -20.65327 -20.58405 -20.53723 -15.55889 -11.38538
 Alpha  occ. eigenvalues --  -11.37067 -11.37007  -1.60705  -1.52049  -1.48474
 Alpha  occ. eigenvalues --   -1.25780  -0.96645  -0.84194  -0.80743  -0.77933
 Alpha  occ. eigenvalues --   -0.75096  -0.66966  -0.64881  -0.63943  -0.63621
 Alpha  occ. eigenvalues --   -0.63114  -0.55965  -0.54521  -0.49740  -0.46130
 Alpha  occ. eigenvalues --   -0.42660
 Alpha virt. eigenvalues --    0.01876   0.04025   0.05535   0.05784   0.07142
 Alpha virt. eigenvalues --    0.08720   0.09914   0.10060   0.10450   0.12065
 Alpha virt. eigenvalues --    0.13003   0.14473   0.15041   0.15483   0.15821

 Mulliken charges:
               1
     1  N    0.743670
     2  C    0.310569
     3  O   -1.233787
     4  C    0.490309
     5  O   -0.516863
     6  C    1.013445
     7  O   -1.025245
     8  H    0.067511
     9  H    0.034717
    10  H    0.115674
 Sum of Mulliken charges =  -0.00000

 Dipole moment (field-independent basis, Debye):
    X=              1.8083    Y=             -2.4868    Z=             -4.5197  Tot=              5.4664

 Test job not archived.
 1\1\GINC-SE035\SP\RHF\Aug-CC-pVDZ\C3H3N1O3\OHZDE\09-Apr-2025\0\\#t hf
 aug-cc-pvdz iop(5/13=1,5/36=2,99/5=2) pseudo=read geom=check guess=(re
 ad,tcheck) scf=(maxcycle=1)\\title\\0,1\N,0,-0.39439819,1.43270851,-0.
 656543\C,0,-0.41013589,0.59019623,0.4041473\O,0,0.06921002,0.82828817,
 1.48255228\C,0,2.16124075,-1.33393756,-0.04508489\O,0,3.03079692,-1.62
 724529,0.60090679\C,0,-1.12595933,-0.74028792,0.09950078\O,0,-1.288641
 75,-1.57984472,0.92738391\H,0,0.07395286,2.31718041,-0.56806711\H,0,-0
 .76004784,1.16730153,-1.55206059\H,0,-1.48401654,-0.87286236,-0.944726

 Normal termination of Gaussian 16 at Wed Apr  9 18:13:56 2025.
