 Gaussian 16, Revision C.01,

 ----------------------------------------------------------------------
 #t hf aug-cc-pvdz symm=none int=(grid=ultrafine) guess=(read,tcheck) s
 table=(opt,rrhf)
 ----------------------------------------------------------------------
 -----
 title
 -----
 Symbolic Z-matrix:
 Charge =  0 Multiplicity = 1

 SCF Done:  E(RHF) =  -354.621458103     A.U. after   16 cycles
 Normal termination of Gaussian 16 at Wed Apr  9 18:19:02 2025.
 Gaussian 16:  ES64L-G16RevC.01  3-Jul-2019

 ----------------------------------------------------------------------
 #t hf aug-cc-pvdz iop(5/13=1,5/36=2,99/5=2) pseudo=read geom=check gue
 ss=(read,tcheck) scf=(maxcycle=1)
 ----------------------------------------------------------------------
 -----
 title
 -----
 Structure from the checkpoint file:  "Grambow2020_wb97xd3_007314_forward_mol1.chk"
 Charge =  0 Multiplicity = 1

                         Standard orientation:
 ---------------------------------------------------------------------
 Center     Atomic      Atomic             Coordinates (Angstroms)
 Number     Number       Type             X           Y           Z
 ---------------------------------------------------------------------
      1          8           0       -2.371207   -0.336839    0.654950
      2          6           0       -1.748623    0.036008   -0.495545
      3          6           0       -0.074301    0.028216   -0.258399
      4          7           0       -0.140899    1.245035   -0.158549
      5          7           0        2.192053    0.634232    0.266689
      6          6           0        1.930227   -0.596303    0.080359
      7          7           0        0.651318   -1.040398   -0.224394
      8          1           0       -2.564652    0.438815    1.187674
      9          1           0       -2.129710    0.936042   -0.970050
     10          1           0       -1.729387   -0.791745   -1.206870
     11          1           0        3.164298    0.828561    0.468709
     12          1           0        2.667982   -1.396567    0.136226
 ---------------------------------------------------------------------

 SCF Done:  E(RHF) =  -354.975327915     A.U. after    2 cycles

 The electronic state is 1-A.
 Alpha  occ. eigenvalues --  -20.60357 -15.60025 -15.48558 -15.47733 -11.37544
 Alpha  occ. eigenvalues --  -11.34918 -11.31358  -1.52387  -1.32749  -1.24118
 Alpha  occ. eigenvalues --   -1.15777  -0.98089  -0.87853  -0.76655  -0.74423
 Alpha  occ. eigenvalues --   -0.73284  -0.68913  -0.67425  -0.63885  -0.61272
 Alpha  occ. eigenvalues --   -0.56178  -0.53375  -0.50737  -0.47920  -0.45683
 Alpha  occ. eigenvalues --   -0.40368
 Alpha virt. eigenvalues --    0.02773   0.03317   0.04394   0.04746   0.05435
 Alpha virt. eigenvalues --    0.06147   0.07893   0.09996   0.11321   0.12477
 Alpha virt. eigenvalues --    0.12979   0.13170   0.13309   0.13900   0.15643

 Mulliken charges:
               1
     1  O   -1.028545
     2  C    0.962682
     3  C   -2.297596
     4  N    0.961540
     5  N    0.406349
     6  C   -0.538730
     7  N    0.841225
     8  H    0.302450
     9  H    0.227189
    10  H    0.174541
    11  H    0.031633
    12  H   -0.042739
 Sum of Mulliken charges =  -0.00000

 Dipole moment (field-independent basis, Debye):
    X=             -2.0341    Y=              0.2918    Z=             -0.4606  Tot=              2.1059

 Test job not archived.
 1\1\GINC-SE113\SP\RHF\Aug-CC-pVDZ\C3H5N3O1\OHZDE\09-Apr-2025\0\\#t hf
 aug-cc-pvdz iop(5/13=1,5/36=2,99/5=2) pseudo=read geom=check guess=(re
 ad,tcheck) scf=(maxcycle=1)\\title\\0,1\O,0,-2.23036983,0.95287402,0.3
 7263136\C,0,-1.78327718,-0.14974528,-0.28661275\C,0,-0.09321755,-0.186
 51187,-0.24188277\N,0,-0.11137447,0.22481288,-1.39320257\N,0,2.2422708
 2,0.11350324,-0.72646618\C,0,1.92234262,-0.33261414,0.42075379\N,0,0.6
 0041489,-0.53562201,0.79088587\H,0,-2.31863363,1.68674377,-0.24096522\
 H,0,-2.20911763,-0.31755171,-1.2719783\H,0,-1.89602973,-1.04011916,0.3

 Normal termination of Gaussian 16 at Wed Apr  9 18:19:07 2025.
