 Gaussian 16, Revision C.01,

 ----------------------------------------------------------------------
 #t hf aug-cc-pvdz symm=none int=(grid=ultrafine) guess=(read,tcheck) s
 table=(opt,rrhf)
 ----------------------------------------------------------------------
 -----
 title
 -----
 Symbolic Z-matrix:
 Charge =  0 Multiplicity = 1

 SCF Done:  E(RHF) =  -224.682808620     A.U. after   15 cycles
 Normal termination of Gaussian 16 at Wed Apr  9 15:55:36 2025.
 Gaussian 16:  ES64L-G16RevC.01  3-Jul-2019

 ----------------------------------------------------------------------
 #t hf aug-cc-pvdz iop(5/13=1,5/36=2,99/5=2) pseudo=read geom=check gue
 ss=(read,tcheck) scf=(maxcycle=1)
 ----------------------------------------------------------------------
 -----
 title
 -----
 Structure from the checkpoint file:  "Grambow2020_b97d3_006886_reverse_mol2.chk"
 Charge =  0 Multiplicity = 1

                         Standard orientation:
 ---------------------------------------------------------------------
 Center     Atomic      Atomic             Coordinates (Angstroms)
 Number     Number       Type             X           Y           Z
 ---------------------------------------------------------------------
      1          7           0       -1.300577   -0.058662    0.471330
      2          6           0       -0.379230    0.743685   -0.316418
      3          6           0        1.062337    0.663712    0.157952
      4          6           0        1.002298   -0.676637    0.042625
      5          7           0       -0.383285   -0.721506   -0.533529
      6          1           0       -0.904067   -0.190792    1.415242
      7          1           0       -0.801175    1.429772   -1.050498
      8          1           0        1.794080    1.399017    0.480478
      9          1           0        1.585763   -1.561389    0.285217
 ---------------------------------------------------------------------

 SCF Done:  E(RHF) =  -224.915407250     A.U. after    2 cycles

 The electronic state is 1-A.
 Alpha  occ. eigenvalues --  -15.55170 -15.54529 -11.31615 -11.29729 -11.27092
 Alpha  occ. eigenvalues --   -1.36985  -1.10612  -0.96985  -0.90501  -0.75611
 Alpha  occ. eigenvalues --   -0.73623  -0.69571  -0.62477  -0.54960  -0.52581
 Alpha  occ. eigenvalues --   -0.51030  -0.46026  -0.37959
 Alpha virt. eigenvalues --    0.03337   0.04031   0.04702   0.05543   0.07696
 Alpha virt. eigenvalues --    0.09276   0.09900   0.11127   0.11738   0.13757
 Alpha virt. eigenvalues --    0.13997   0.15110   0.16043   0.16572   0.16936

 Mulliken charges:
               1
     1  N    0.194201
     2  C   -0.708747
     3  C    0.431891
     4  C   -0.181660
     5  N    0.186841
     6  H    0.333616
     7  H   -0.096159
     8  H   -0.089953
     9  H   -0.070031
 Sum of Mulliken charges =  -0.00000

 Dipole moment (field-independent basis, Debye):
    X=              2.8225    Y=              1.6917    Z=              1.5222  Tot=              3.6257

 Test job not archived.
 1\1\GINC-SE100\SP\RHF\Aug-CC-pVDZ\C3H4N2\OHZDE\09-Apr-2025\0\\#t hf au
 g-cc-pvdz iop(5/13=1,5/36=2,99/5=2) pseudo=read geom=check guess=(read
 ,tcheck) scf=(maxcycle=1)\\title\\0,1\N,0,-1.41484782,-0.5995295,0.122
 80002\C,0,-0.68579955,0.61147096,-0.21654538\C,0,0.7279581,0.65138843,
 0.33954073\C,0,0.97522279,-0.52581623,-0.26584356\N,0,-0.35396536,-0.6
 2818229,-0.95619673\H,0,-1.01510587,-0.99784054,0.98720812\H,0,-1.2394
 7457,1.42431246,-0.68596893\H,0,1.26834462,1.34034376,0.98255509\H,0,1
 .73971467,-1.29776306,-0.30730235\\Version=ES64L-G16RevC.01\State=1-A\

 Normal termination of Gaussian 16 at Wed Apr  9 15:55:38 2025.
