 Gaussian 16, Revision C.01,

 ----------------------------------------------------------------------
 #t hf aug-cc-pvdz symm=none int=(grid=ultrafine) guess=(read,tcheck) s
 table=(opt,rrhf)
 ----------------------------------------------------------------------
 -----
 title
 -----
 Symbolic Z-matrix:
 Charge =  0 Multiplicity = 1

 SCF Done:  E(RHF) =  -308.914130841     A.U. after   16 cycles

 1\1\GINC-SE340\Stability\RHF\Aug-CC-pVDZ\C6H12O1\OHZDE\09-Apr-2025\0\\
 #t hf aug-cc-pvdz symm=none int=(grid=ultrafine) guess=(read,tcheck) s
 table=(opt,rrhf)\\title\\0,1\C,0,-0.87842745,-1.59094114,-0.4925389\C,
 0,-0.64098505,-0.08686474,-0.51726627\C,0,-1.30670416,0.63026185,0.628
 21224\C,0,-0.80733069,1.94676645,0.71445837\O,0,0.90771449,1.13078957,
 0.90224258\C,0,0.87609401,0.39673888,-0.31409808\C,0,1.90812733,-0.711
 41914,-0.26511571\H,0,-1.93891377,-1.8034573,-0.64398236\H,0,-0.325514
 14,-2.10540459,-1.28012554\H,0,-0.5879279,-2.02877218,0.4648257\H,0,-0

 Normal termination of Gaussian 16 at Wed Apr  9 17:36:52 2025.
 Gaussian 16:  ES64L-G16RevC.01  3-Jul-2019

 ----------------------------------------------------------------------
 #t hf aug-cc-pvdz iop(5/13=1,5/36=2,99/5=2) pseudo=read geom=check gue
 ss=(read,tcheck) scf=(maxcycle=1)
 ----------------------------------------------------------------------
 -----
 title
 -----
 Structure from the checkpoint file:  "Grambow2020_wb97xd3_006738_forward_mol1.chk"
 Charge =  0 Multiplicity = 1

                         Standard orientation:
 ---------------------------------------------------------------------
 Center     Atomic      Atomic             Coordinates (Angstroms)
 Number     Number       Type             X           Y           Z
 ---------------------------------------------------------------------
      1          6           0        1.242421    1.673740   -0.155565
      2          6           0        0.146747    0.817746    0.465732
      3          6           0       -1.167212    0.928483   -0.262844
      4          6           0       -2.034442   -0.096364    0.170282
      5          8           0       -0.667445   -1.298606   -0.402775
      6          6           0        0.369834   -0.770995    0.412698
      7          6           0        1.714327   -1.218739   -0.123369
      8          1           0        0.988794    2.731613   -0.059089
      9          1           0        2.206389    1.522140    0.332759
     10          1           0        1.365823    1.460029   -1.219394
     11          1           0        0.055777    1.090573    1.522941
     12          1           0       -0.852963   -0.204133   -1.006751
     13          1           0       -1.495204    1.787896   -0.830297
     14          1           0       -2.946145   -0.302297   -0.382532
     15          1           0       -2.017056   -0.514044    1.175045
     16          1           0        0.242536   -1.171291    1.424009
     17          1           0        1.876475   -0.851335   -1.138047
     18          1           0        2.527448   -0.855840    0.508733
     19          1           0        1.757636   -2.307690   -0.146778
 ---------------------------------------------------------------------

 SCF Done:  E(RHF) =  -309.246893834     A.U. after    2 cycles

 The electronic state is 1-A.
 Alpha  occ. eigenvalues --  -20.52063 -11.32859 -11.27323 -11.23340 -11.21994
 Alpha  occ. eigenvalues --  -11.21418 -11.20764  -1.41650  -1.09362  -1.03524
 Alpha  occ. eigenvalues --   -0.96475  -0.88146  -0.82489  -0.74159  -0.69513
 Alpha  occ. eigenvalues --   -0.66592  -0.63898  -0.59832  -0.58266  -0.55162
 Alpha  occ. eigenvalues --   -0.54488  -0.53241  -0.52200  -0.50059  -0.47941
 Alpha  occ. eigenvalues --   -0.43378  -0.41372  -0.31868
 Alpha virt. eigenvalues --    0.03178   0.03557   0.03707   0.04514   0.05744
 Alpha virt. eigenvalues --    0.05996   0.06408   0.06862   0.07268   0.09240
 Alpha virt. eigenvalues --    0.09730   0.09795   0.10905   0.12635   0.13798

 Mulliken charges:
               1
     1  C   -0.243659
     2  C   -0.742445
     3  C    0.127029
     4  C    0.058505
     5  O   -1.489506
     6  C    0.765523
     7  C   -0.385911
     8  H    0.071800
     9  H    0.175736
    10  H    0.278816
    11  H    0.068197
    12  H    1.051849
    13  H   -0.154911
    14  H   -0.091156
    15  H   -0.021295
    16  H   -0.056021
    17  H    0.229728
    18  H    0.282723
    19  H    0.074998
 Sum of Mulliken charges =  -0.00000

 Dipole moment (field-independent basis, Debye):
    X=             -0.9120    Y=              1.1053    Z=              0.9357  Tot=              1.7114

 Test job not archived.
 1\1\GINC-SE340\SP\RHF\Aug-CC-pVDZ\C6H12O1\OHZDE\09-Apr-2025\0\\#t hf a
 ug-cc-pvdz iop(5/13=1,5/36=2,99/5=2) pseudo=read geom=check guess=(rea
 d,tcheck) scf=(maxcycle=1)\\title\\0,1\C,0,-0.87842745,-1.59094114,-0.
 4925389\C,0,-0.64098505,-0.08686474,-0.51726627\C,0,-1.30670416,0.6302
 6185,0.62821224\C,0,-0.80733069,1.94676645,0.71445837\O,0,0.90771449,1
 .13078957,0.90224258\C,0,0.87609401,0.39673888,-0.31409808\C,0,1.90812
 733,-0.71141914,-0.26511571\H,0,-1.93891377,-1.8034573,-0.64398236\H,0
 ,-0.32551414,-2.10540459,-1.28012554\H,0,-0.5879279,-2.02877218,0.4648

 Normal termination of Gaussian 16 at Wed Apr  9 17:36:58 2025.
