 Gaussian 16, Revision C.01,

 ----------------------------------------------------------------------
 #t hf aug-cc-pvdz symm=none int=(grid=ultrafine) guess=(read,tcheck) s
 table=(opt,rrhf)
 ----------------------------------------------------------------------
 -----
 title
 -----
 Symbolic Z-matrix:
 Charge =  0 Multiplicity = 1

 SCF Done:  E(RHF) =  -302.667470396     A.U. after   19 cycles
 Normal termination of Gaussian 16 at Wed Apr  9 19:11:09 2025.
 Gaussian 16:  ES64L-G16RevC.01  3-Jul-2019

 ----------------------------------------------------------------------
 #t hf aug-cc-pvdz iop(5/13=1,5/36=2,99/5=2) pseudo=read geom=check gue
 ss=(read,tcheck) scf=(maxcycle=1)
 ----------------------------------------------------------------------
 -----
 title
 -----
 Structure from the checkpoint file:  "Grambow2020_wb97xd3_008834_forward_mol1.chk"
 Charge =  0 Multiplicity = 1

                         Standard orientation:
 ---------------------------------------------------------------------
 Center     Atomic      Atomic             Coordinates (Angstroms)
 Number     Number       Type             X           Y           Z
 ---------------------------------------------------------------------
      1          6           0        0.090367    1.644827   -0.040136
      2          6           0       -0.078651    0.145189   -0.014013
      3          6           0       -0.884898   -0.404013    1.132302
      4          6           0       -1.899860   -0.415948    0.003290
      5          7           0       -1.317500   -0.275430   -1.057059
      6          6           0        1.218345   -0.775411   -0.494351
      7          7           0        2.150906   -0.311389    0.368061
      8          1           0       -0.885712    2.123136    0.047225
      9          1           0        0.719577    1.975141    0.783339
     10          1           0        0.539539    1.957832   -0.982789
     11          1           0       -1.087044    0.239048    1.984710
     12          1           0       -0.650172   -1.421509    1.429576
     13          1           0        1.304999   -0.577846   -1.570388
     14          1           0        0.884627   -1.803717   -0.323221
     15          1           0        2.668528    0.447784   -0.068022
 ---------------------------------------------------------------------

 SCF Done:  E(RHF) =  -302.978834340     A.U. after    2 cycles

 The electronic state is 1-A.
 Alpha  occ. eigenvalues --  -15.58917 -15.43378 -11.34700 -11.34176 -11.32194
 Alpha  occ. eigenvalues --  -11.28072 -11.25731  -1.35174  -1.16037  -1.08070
 Alpha  occ. eigenvalues --   -1.01004  -0.89469  -0.79429  -0.74840  -0.69704
 Alpha  occ. eigenvalues --   -0.68483  -0.65233  -0.62610  -0.59896  -0.57615
 Alpha  occ. eigenvalues --   -0.56316  -0.53888  -0.52233  -0.51881  -0.41934
 Alpha  occ. eigenvalues --   -0.29907
 Alpha virt. eigenvalues --   -0.02486   0.03398   0.03969   0.04352   0.05156
 Alpha virt. eigenvalues --    0.05365   0.05702   0.07533   0.07791   0.09556
 Alpha virt. eigenvalues --    0.10013   0.10057   0.12108   0.12810   0.13621

 Mulliken charges:
               1
     1  C   -0.223396
     2  C   -1.430900
     3  C    0.434267
     4  C   -0.439087
     5  N    0.734252
     6  C   -0.666391
     7  N    0.314460
     8  H    0.179743
     9  H    0.370769
    10  H    0.234549
    11  H    0.019032
    12  H    0.132831
    13  H    0.060558
    14  H    0.080801
    15  H    0.198511
 Sum of Mulliken charges =   0.00000

 Dipole moment (field-independent basis, Debye):
    X=             -3.9681    Y=              1.3572    Z=              1.0167  Tot=              4.3153

 Test job not archived.
 1\1\GINC-SE018\SP\RHF\Aug-CC-pVDZ\C5H8N2\OHZDE\09-Apr-2025\0\\#t hf au
 g-cc-pvdz iop(5/13=1,5/36=2,99/5=2) pseudo=read geom=check guess=(read
 ,tcheck) scf=(maxcycle=1)\\title\\0,1\C,0,-0.73533527,1.26585372,-0.23
 189033\C,0,0.21986038,0.15029802,0.11639319\C,0,1.4140108,0.00312437,-
 0.78806315\C,0,2.01001911,0.74031089,0.39780729\N,0,1.2374828,0.673998
 32,1.33696503\C,0,-0.43820065,-1.26578482,0.68392614\N,0,-1.26785355,-
 1.55246277,-0.34477862\H,0,-0.18141379,2.19860879,-0.34270658\H,0,-1.2
 5378487,1.05111005,-1.1636729\H,0,-1.46817292,1.39782221,0.56425917\H,

 Normal termination of Gaussian 16 at Wed Apr  9 19:11:14 2025.
