 Gaussian 16, Revision C.01,

 ----------------------------------------------------------------------
 #t hf aug-cc-pvdz symm=none int=(grid=ultrafine) guess=(read,tcheck) s
 table=(opt,rrhf)
 ----------------------------------------------------------------------
 -----
 title
 -----
 Symbolic Z-matrix:
 Charge =  0 Multiplicity = 1

 SCF Done:  E(RHF) =  -353.610459531     A.U. after   14 cycles
 Normal termination of Gaussian 16 at Wed Apr  9 17:13:08 2025.
 Gaussian 16:  ES64L-G16RevC.01  3-Jul-2019

 ----------------------------------------------------------------------
 #t hf aug-cc-pvdz iop(5/13=1,5/36=2,99/5=2) pseudo=read geom=check gue
 ss=(read,tcheck) scf=(maxcycle=1)
 ----------------------------------------------------------------------
 -----
 title
 -----
 Structure from the checkpoint file:  "Grambow2020_wb97xd3_006534_reverse_mol2.chk"
 Charge =  0 Multiplicity = 1

                         Standard orientation:
 ---------------------------------------------------------------------
 Center     Atomic      Atomic             Coordinates (Angstroms)
 Number     Number       Type             X           Y           Z
 ---------------------------------------------------------------------
      1          8           0        2.272751   -0.528405   -0.001465
      2          6           0        1.147940   -0.138392    0.000144
      3          7           0        0.000109   -0.927420    0.002218
      4          7           0       -2.362098   -0.379384   -0.001489
      5          6           0       -1.125833   -0.131047    0.000685
      6          6           0       -0.536997    1.240697    0.000533
      7          7           0        0.731999    1.245282    0.000168
      8          1           0        0.031681   -1.930622    0.000431
      9          1           0       -2.567235   -1.375973   -0.002013
     10          1           0       -1.147176    2.136943   -0.001150
 ---------------------------------------------------------------------

 SCF Done:  E(RHF) =  -353.960199022     A.U. after    2 cycles

 The electronic state is 1-A.
 Alpha  occ. eigenvalues --  -20.55354 -15.57254 -15.54971 -15.52902 -11.41378
 Alpha  occ. eigenvalues --  -11.36796 -11.34057  -1.51336  -1.37018  -1.26332
 Alpha  occ. eigenvalues --   -1.21992  -0.98128  -0.91230  -0.86672  -0.80095
 Alpha  occ. eigenvalues --   -0.72686  -0.68998  -0.68832  -0.65859  -0.55861
 Alpha  occ. eigenvalues --   -0.55664  -0.52234  -0.51641  -0.46686  -0.44799
 Alpha virt. eigenvalues --    0.01473   0.02209   0.04372   0.05100   0.08701
 Alpha virt. eigenvalues --    0.09383   0.09435   0.10328   0.10652   0.11945
 Alpha virt. eigenvalues --    0.12215   0.13343   0.13863   0.15182   0.16855

 Mulliken charges:
               1
     1  O   -1.147400
     2  C    0.527608
     3  N    0.725064
     4  N    0.906706
     5  C   -1.536459
     6  C   -0.344829
     7  N    0.714842
     8  H    0.032483
     9  H    0.087077
    10  H    0.034909
 Sum of Mulliken charges =  -0.00000

 Dipole moment (field-independent basis, Debye):
    X=             -2.8967    Y=             -1.8226    Z=              0.0017  Tot=              3.4224

 Test job not archived.
 1\1\GINC-SE454\SP\RHF\Aug-CC-pVDZ\C3H3N3O1\OHZDE\09-Apr-2025\0\\#t hf
 aug-cc-pvdz iop(5/13=1,5/36=2,99/5=2) pseudo=read geom=check guess=(re
 ad,tcheck) scf=(maxcycle=1)\\title\\0,1\O,0,2.48425252,-0.5559992,0.80
 959979\C,0,1.35884783,-0.50085866,0.42523374\N,0,0.60517243,0.65566513
 ,0.23946412\N,0,-1.67047534,1.02224039,-0.51381741\C,0,-0.65734459,0.3
 3438495,-0.21307205\C,0,-0.59187927,-1.15512366,-0.2871562\N,0,0.53045
 37,-1.62932728,0.06762934\H,0,0.96606566,1.57371227,0.42482576\H,0,-1.
 52102765,2.0218926,-0.39706531\H,0,-1.43082429,-1.75998055,-0.61257478

 Normal termination of Gaussian 16 at Wed Apr  9 17:13:12 2025.
