 Gaussian 16, Revision C.01,

 ----------------------------------------------------------------------
 #t hf aug-cc-pvdz symm=none int=(grid=ultrafine) guess=(read,tcheck) s
 table=(opt,rrhf)
 ----------------------------------------------------------------------
 -----
 title
 -----
 Symbolic Z-matrix:
 Charge =  0 Multiplicity = 1

 SCF Done:  E(RHF) =  -331.527568610     A.U. after   20 cycles
 Normal termination of Gaussian 16 at Wed Apr  9 03:15:45 2025.
 Gaussian 16:  ES64L-G16RevC.01  3-Jul-2019

 ----------------------------------------------------------------------
 #t hf aug-cc-pvdz iop(5/13=1,5/36=2,99/5=2) pseudo=read geom=check gue
 ss=(read,tcheck) scf=(maxcycle=1)
 ----------------------------------------------------------------------
 -----
 title
 -----
 Structure from the checkpoint file:  "Grambow2020_b97d3_006980_reverse_mol1.chk"
 Charge =  0 Multiplicity = 1

                         Standard orientation:
 ---------------------------------------------------------------------
 Center     Atomic      Atomic             Coordinates (Angstroms)
 Number     Number       Type             X           Y           Z
 ---------------------------------------------------------------------
      1          7           0        0.167306    1.685923   -0.019811
      2          6           0       -0.074364    0.310437   -0.211667
      3          7           0        1.079902   -0.512937    0.501733
      4          8           0        1.904077   -0.934395   -0.261195
      5          7           0       -2.272265   -0.758620    0.011336
      6          7           0       -1.272549   -0.180362   -0.053374
      7          1           0        0.874122    2.041634   -0.662250
      8          1           0        0.422692    1.932876    0.942622
 ---------------------------------------------------------------------

 SCF Done:  E(RHF) =  -331.838020445     A.U. after    2 cycles

 The electronic state is 1-A.
 Alpha  occ. eigenvalues --  -20.64662 -15.69574 -15.67579 -15.63585 -15.53779
 Alpha  occ. eigenvalues --  -11.34914  -1.62103  -1.48286  -1.25939  -1.13708
 Alpha  occ. eigenvalues --   -1.00976  -0.80317  -0.77014  -0.75892  -0.73969
 Alpha  occ. eigenvalues --   -0.70474  -0.69746  -0.66083  -0.63016  -0.51866
 Alpha  occ. eigenvalues --   -0.42991  -0.38014
 Alpha virt. eigenvalues --    0.02192   0.02959   0.05185   0.06053   0.07191
 Alpha virt. eigenvalues --    0.08224   0.10320   0.10974   0.12549   0.13296
 Alpha virt. eigenvalues --    0.13721   0.15641   0.16698   0.17926   0.19875

 Mulliken charges:
               1
     1  N    0.372552
     2  C   -1.385157
     3  N    1.085277
     4  O   -0.937309
     5  N    0.782211
     6  N   -0.395308
     7  H    0.224853
     8  H    0.252882
 Sum of Mulliken charges =  -0.00000

 Dipole moment (field-independent basis, Debye):
    X=              1.1267    Y=              1.7957    Z=              0.0611  Tot=              2.1208

 Test job not archived.
 1\1\GINC-SE340\SP\RHF\Aug-CC-pVDZ\C1H2N4O1\OHZDE\09-Apr-2025\0\\#t hf
 aug-cc-pvdz iop(5/13=1,5/36=2,99/5=2) pseudo=read geom=check guess=(re
 ad,tcheck) scf=(maxcycle=1)\\title\\0,1\N,0,1.1934514,0.14729774,0.221
 99224\C,0,-0.19899706,-0.06838857,0.26372825\N,0,-0.86624315,0.6779976
 3,-0.96789852\O,0,-1.39570844,1.71147491,-0.66699836\N,0,-1.25646638,-
 2.23086166,0.74211345\N,0,-0.67858079,-1.25696364,0.50637658\H,0,1.447
 91315,1.06417302,0.58728207\H,0,1.60581627,0.02209557,-0.70901071\\Ver
 sion=ES64L-G16RevC.01\State=1-A\HF=-331.8380204\RMSD=4.724e-02\Dipole=

 Normal termination of Gaussian 16 at Wed Apr  9 03:15:48 2025.
