 Gaussian 16, Revision C.01,

 ----------------------------------------------------------------------
 #t hf aug-cc-pvdz symm=none int=(grid=ultrafine) guess=(read,tcheck) s
 table=(opt,rrhf)
 ----------------------------------------------------------------------
 -----
 title
 -----
 Symbolic Z-matrix:
 Charge =  0 Multiplicity = 1

 SCF Done:  E(RHF) =  -269.980152690     A.U. after   12 cycles

 1\1\GINC-SE219\Stability\RHF\Aug-CC-pVDZ\C5H10O1\OHZDE\09-Apr-2025\0\\
 #t hf aug-cc-pvdz symm=none int=(grid=ultrafine) guess=(read,tcheck) s
 table=(opt,rrhf)\\title\\0,1\C,0,2.01021981,-1.38059783,0.93627481\O,0
 ,1.82865218,0.01585207,0.88651562\C,0,-0.48904027,1.11336303,-1.314614
 66\C,0,-1.26768989,1.5381358,-0.09033273\C,0,-1.57567738,0.02028099,0.
 09740042\C,0,-0.75330635,-0.18425111,-1.15511377\H,0,2.48507515,-1.769
 42757,0.02784721\H,0,1.0659637,-1.91722065,1.09063944\H,0,2.66494708,-
 1.59458253,1.78081889\H,0,0.06720172,1.67372254,-2.05648565\H,0,-0.681

 Normal termination of Gaussian 16 at Wed Apr  9 16:58:14 2025.
 Gaussian 16:  ES64L-G16RevC.01  3-Jul-2019

 ----------------------------------------------------------------------
 #t hf aug-cc-pvdz iop(5/13=1,5/36=2,99/5=2) pseudo=read geom=check gue
 ss=(read,tcheck) scf=(maxcycle=1)
 ----------------------------------------------------------------------
 -----
 title
 -----
 Structure from the checkpoint file:  "Grambow2020_wb97xd3_006206_reverse_mol2.chk"
 Charge =  0 Multiplicity = 1

                         Standard orientation:
 ---------------------------------------------------------------------
 Center     Atomic      Atomic             Coordinates (Angstroms)
 Number     Number       Type             X           Y           Z
 ---------------------------------------------------------------------
      1          6           0        2.625006    0.344840    0.019405
      2          8           0        1.822956   -0.783428   -0.243731
      3          6           0       -1.373634   -0.591356    0.836143
      4          6           0       -1.736600   -0.588109   -0.631453
      5          6           0       -1.222538    0.884882   -0.636028
      6          6           0       -0.935315    0.668384    0.832833
      7          1           0        2.844862    0.457036    1.087578
      8          1           0        2.165553    1.274147   -0.339348
      9          1           0        3.567750    0.205430   -0.509282
     10          1           0       -1.458504   -1.347625    1.607269
     11          1           0       -1.167627   -1.272776   -1.263111
     12          1           0       -2.799696   -0.703257   -0.850108
     13          1           0       -1.981438    1.636567   -0.860662
     14          1           0       -0.350873    1.059411   -1.269955
     15          1           0        0.987279   -0.671242    0.220756
     16          1           0       -0.532472    1.317885    1.601315
 ---------------------------------------------------------------------

 SCF Done:  E(RHF) =  -270.271467136     A.U. after    2 cycles

 The electronic state is 1-A.
 Alpha  occ. eigenvalues --  -20.53418 -11.27471 -11.24663 -11.24540 -11.24023
 Alpha  occ. eigenvalues --  -11.23958  -1.43708  -1.16454  -0.92092  -0.91189
 Alpha  occ. eigenvalues --   -0.88832  -0.72174  -0.69916  -0.68686  -0.63926
 Alpha  occ. eigenvalues --   -0.61386  -0.58858  -0.55743  -0.51960  -0.49498
 Alpha  occ. eigenvalues --   -0.48329  -0.47486  -0.43284  -0.37335
 Alpha virt. eigenvalues --    0.03370   0.03692   0.03994   0.04480   0.05850
 Alpha virt. eigenvalues --    0.06374   0.06904   0.07128   0.08626   0.10050
 Alpha virt. eigenvalues --    0.11961   0.12618   0.12902   0.13183   0.14251

 Mulliken charges:
               1
     1  C    0.380790
     2  O   -1.129138
     3  C    0.097010
     4  C   -0.152814
     5  C   -0.118089
     6  C    0.219118
     7  H    0.103258
     8  H    0.116204
     9  H   -0.016258
    10  H   -0.144554
    11  H    0.054636
    12  H    0.066778
    13  H    0.062818
    14  H    0.043176
    15  H    0.610084
    16  H   -0.193020
 Sum of Mulliken charges =   0.00000

 Dipole moment (field-independent basis, Debye):
    X=             -0.9922    Y=              1.3175    Z=              0.8194  Tot=              1.8416

 Test job not archived.
 1\1\GINC-SE219\SP\RHF\Aug-CC-pVDZ\C5H10O1\OHZDE\09-Apr-2025\0\\#t hf a
 ug-cc-pvdz iop(5/13=1,5/36=2,99/5=2) pseudo=read geom=check guess=(rea
 d,tcheck) scf=(maxcycle=1)\\title\\0,1\C,0,2.01021981,-1.38059783,0.93
 627481\O,0,1.82865218,0.01585207,0.88651562\C,0,-0.48904027,1.11336303
 ,-1.31461466\C,0,-1.26768989,1.5381358,-0.09033273\C,0,-1.57567738,0.0
 2028099,0.09740042\C,0,-0.75330635,-0.18425111,-1.15511377\H,0,2.48507
 515,-1.76942757,0.02784721\H,0,1.0659637,-1.91722065,1.09063944\H,0,2.
 66494708,-1.59458253,1.78081889\H,0,0.06720172,1.67372254,-2.05648565\

 Normal termination of Gaussian 16 at Wed Apr  9 16:58:19 2025.
