 Gaussian 16, Revision C.01,

 ----------------------------------------------------------------------
 #t hf aug-cc-pvdz symm=none int=(grid=ultrafine) guess=(read,tcheck) s
 table=(opt,rrhf)
 ----------------------------------------------------------------------
 -----
 title
 -----
 Symbolic Z-matrix:
 Charge =  0 Multiplicity = 1

 SCF Done:  E(RHF) =  -375.553791804     A.U. after   19 cycles
 Normal termination of Gaussian 16 at Wed Apr  9 03:46:36 2025.
 Gaussian 16:  ES64L-G16RevC.01  3-Jul-2019

 ----------------------------------------------------------------------
 #t hf aug-cc-pvdz iop(5/13=1,5/36=2,99/5=2) pseudo=read geom=check gue
 ss=(read,tcheck) scf=(maxcycle=1)
 ----------------------------------------------------------------------
 -----
 title
 -----
 Structure from the checkpoint file:  "Grambow2020_wb97xd3_007870_forward_mol1.chk"
 Charge =  0 Multiplicity = 1

                         Standard orientation:
 ---------------------------------------------------------------------
 Center     Atomic      Atomic             Coordinates (Angstroms)
 Number     Number       Type             X           Y           Z
 ---------------------------------------------------------------------
      1          7           0        2.057716   -0.758442   -0.368045
      2          6           0        1.059153   -0.051891    0.187846
      3          8           0        0.068969   -0.775472    0.664774
      4          6           0        0.955204    1.331368    0.183268
      5          8           0       -0.937550    0.870796   -0.582056
      6          6           0       -1.203034   -0.024972    0.381778
      7          7           0       -2.085165   -0.662651   -0.435598
      8          1           0        1.885083   -1.715595   -0.618456
      9          1           0        2.848829   -0.286396   -0.762571
     10          1           0        1.642791    1.918709   -0.409849
     11          1           0        0.449662    1.827932    0.996242
     12          1           0       -1.522679    0.360828    1.357581
     13          1           0       -3.030839   -0.447449   -0.116548
 ---------------------------------------------------------------------

 SCF Done:  E(RHF) =  -375.925887170     A.U. after    2 cycles

 The electronic state is 1-A.
 Alpha  occ. eigenvalues --  -20.62045 -20.58733 -15.54556 -15.52463 -11.38116
 Alpha  occ. eigenvalues --  -11.37656 -11.23930  -1.55369  -1.45731  -1.25304
 Alpha  occ. eigenvalues --   -1.16141  -1.01486  -0.90402  -0.81984  -0.77415
 Alpha  occ. eigenvalues --   -0.75822  -0.73433  -0.69131  -0.63541  -0.60954
 Alpha  occ. eigenvalues --   -0.59453  -0.55317  -0.50947  -0.49571  -0.47943
 Alpha  occ. eigenvalues --   -0.45508  -0.30048
 Alpha virt. eigenvalues --    0.01860   0.02964   0.04243   0.04844   0.05515
 Alpha virt. eigenvalues --    0.06229   0.07566   0.08970   0.11368   0.12466
 Alpha virt. eigenvalues --    0.13321   0.13701   0.14178   0.14738   0.16231

 Mulliken charges:
               1
     1  N    0.822409
     2  C    0.102654
     3  O   -1.558456
     4  C    0.100533
     5  O   -0.805636
     6  C    0.702386
     7  N    0.471686
     8  H    0.093242
     9  H    0.140638
    10  H   -0.139246
    11  H   -0.011834
    12  H   -0.079951
    13  H    0.161574
 Sum of Mulliken charges =   0.00000

 Dipole moment (field-independent basis, Debye):
    X=              3.0179    Y=              0.9079    Z=              1.2486  Tot=              3.3899

 Test job not archived.
 1\1\GINC-SE125\SP\RHF\Aug-CC-pVDZ\C3H6N2O2\OHZDE\09-Apr-2025\0\\#t hf
 aug-cc-pvdz iop(5/13=1,5/36=2,99/5=2) pseudo=read geom=check guess=(re
 ad,tcheck) scf=(maxcycle=1)\\title\\0,1\N,0,-2.05200177,-0.30391254,-0
 .62972776\C,0,-0.95463096,-0.14347677,0.12881932\O,0,-0.37332909,1.031
 83934,0.01830322\C,0,-0.35574286,-1.13363531,0.89377156\O,0,1.32834234
 ,-0.4994527,-0.17489029\C,0,1.11073412,0.79903013,0.08673634\N,0,1.807
 25016,1.15383691,-1.0276565\H,0,-2.20525471,0.33343392,-1.39061716\H,0
 ,-2.55305578,-1.17165381,-0.61220259\H,0,-0.69142629,-2.15767535,0.803

 Normal termination of Gaussian 16 at Wed Apr  9 03:46:41 2025.
