 Gaussian 16, Revision C.01,

 ----------------------------------------------------------------------
 #t hf aug-cc-pvdz symm=none int=(grid=ultrafine) guess=(read,tcheck) s
 table=(opt,rrhf)
 ----------------------------------------------------------------------
 -----
 title
 -----
 Symbolic Z-matrix:
 Charge =  0 Multiplicity = 1

 SCF Done:  E(RHF) =  -305.777490756     A.U. after   13 cycles
 Normal termination of Gaussian 16 at Wed Apr  9 03:06:35 2025.
 Gaussian 16:  ES64L-G16RevC.01  3-Jul-2019

 ----------------------------------------------------------------------
 #t hf aug-cc-pvdz iop(5/13=1,5/36=2,99/5=2) pseudo=read geom=check gue
 ss=(read,tcheck) scf=(maxcycle=1)
 ----------------------------------------------------------------------
 -----
 title
 -----
 Structure from the checkpoint file:  "Grambow2020_b97d3_006520_reverse_mol2.chk"
 Charge =  0 Multiplicity = 1

                         Standard orientation:
 ---------------------------------------------------------------------
 Center     Atomic      Atomic             Coordinates (Angstroms)
 Number     Number       Type             X           Y           Z
 ---------------------------------------------------------------------
      1          8           0       -2.771599   -0.008944   -0.086836
      2          6           0        0.263502    1.184992   -0.010761
      3          6           0        0.745011    0.010142   -0.896080
      4          6           0        1.927887   -0.243113    0.068040
      5          6           0        0.639224   -0.015730    0.890900
      6          8           0       -0.082764   -0.932601   -0.060298
      7          1           0       -1.901506   -0.468739   -0.144723
      8          1           0       -0.806078    1.411992   -0.071285
      9          1           0        0.905807    2.073991    0.040119
     10          1           0        0.684103   -0.121265   -1.981916
     11          1           0        2.320410   -1.265587    0.076626
     12          1           0        2.711125    0.523955    0.125710
     13          1           0       -2.988155   -0.062266    0.860388
     14          1           0        0.455448   -0.177468    1.959563
 ---------------------------------------------------------------------

 SCF Done:  E(RHF) =  -306.095396885     A.U. after    2 cycles

 The electronic state is 1-A.
 Alpha  occ. eigenvalues --  -20.55536 -20.52577 -11.32343 -11.32274 -11.25970
 Alpha  occ. eigenvalues --  -11.25473  -1.47418  -1.40000  -1.11317  -0.93916
 Alpha  occ. eigenvalues --   -0.89516  -0.76798  -0.72220  -0.67505  -0.64318
 Alpha  occ. eigenvalues --   -0.63483  -0.55693  -0.54991  -0.52123  -0.49815
 Alpha  occ. eigenvalues --   -0.48952  -0.47441  -0.46491  -0.42295
 Alpha virt. eigenvalues --    0.03122   0.03412   0.03999   0.04496   0.06319
 Alpha virt. eigenvalues --    0.06373   0.07969   0.09047   0.10067   0.12139
 Alpha virt. eigenvalues --    0.12701   0.12892   0.13632   0.14603   0.15109

 Mulliken charges:
               1
     1  O   -0.942273
     2  C    0.141967
     3  C    0.685932
     4  C    0.012146
     5  C    0.754962
     6  O   -1.396512
     7  H    0.670368
     8  H   -0.051492
     9  H    0.006076
    10  H   -0.095229
    11  H   -0.005775
    12  H    0.018950
    13  H    0.315311
    14  H   -0.114430
 Sum of Mulliken charges =  -0.00000

 Dipole moment (field-independent basis, Debye):
    X=              3.2518    Y=              1.0793    Z=              1.4390  Tot=              3.7162

 Test job not archived.
 1\1\GINC-SE208\SP\RHF\Aug-CC-pVDZ\C4H8O2\OHZDE\09-Apr-2025\0\\#t hf au
 g-cc-pvdz iop(5/13=1,5/36=2,99/5=2) pseudo=read geom=check guess=(read
 ,tcheck) scf=(maxcycle=1)\\title\\0,1\O,0,-1.78724116,2.09536635,1.004
 94918\C,0,-0.71067182,-0.55806875,-0.55818447\C,0,0.19691611,-0.897639
 69,0.64883179\C,0,1.39614646,-1.11685823,-0.30335045\C,0,0.64603358,0.
 1701296,-0.71620276\O,0,0.58790297,0.55552236,0.73802892\H,0,-0.920802
 95,1.62827841,1.05914683\H,0,-1.56783758,0.08609724,-0.33567491\H,0,-0
 .93330561,-1.36813478,-1.26507288\H,0,-0.04873689,-1.39412438,1.593911

 Normal termination of Gaussian 16 at Wed Apr  9 03:06:39 2025.
