 Gaussian 16, Revision C.01,

 ----------------------------------------------------------------------
 #t hf aug-cc-pvdz symm=none int=(grid=ultrafine) guess=(read,tcheck) s
 table=(opt,rrhf)
 ----------------------------------------------------------------------
 -----
 title
 -----
 Symbolic Z-matrix:
 Charge =  0 Multiplicity = 1

 SCF Done:  E(RHF) =  -305.465982691     A.U. after   15 cycles
 Normal termination of Gaussian 16 at Wed Apr  9 18:44:32 2025.
 Gaussian 16:  ES64L-G16RevC.01  3-Jul-2019

 ----------------------------------------------------------------------
 #t hf aug-cc-pvdz iop(5/13=1,5/36=2,99/5=2) pseudo=read geom=check gue
 ss=(read,tcheck) scf=(maxcycle=1)
 ----------------------------------------------------------------------
 -----
 title
 -----
 Structure from the checkpoint file:  "Grambow2020_wb97xd3_008021_reverse_mol2.chk"
 Charge =  0 Multiplicity = 1

                         Standard orientation:
 ---------------------------------------------------------------------
 Center     Atomic      Atomic             Coordinates (Angstroms)
 Number     Number       Type             X           Y           Z
 ---------------------------------------------------------------------
      1          8           0       -2.754316    1.020652    0.069351
      2          6           0       -2.125743   -0.139438   -0.433465
      3          6           0        1.434198   -0.906393   -0.187276
      4          6           0        2.401336    0.137357   -0.060942
      5          6           0        3.232603    0.995715    0.031926
      6          6           0        0.183791   -0.774556    0.174907
      7          6           0       -1.064618   -0.650838    0.507117
      8          1           0       -2.086370    1.701172    0.177538
      9          1           0       -1.690256    0.030448   -1.423830
     10          1           0       -2.917497   -0.883692   -0.537141
     11          1           0        1.768870   -1.851830   -0.603922
     12          1           0        3.967534    1.760458    0.119430
     13          1           0       -1.377153   -0.892848    1.519510
 ---------------------------------------------------------------------

 SCF Done:  E(RHF) =  -305.779293602     A.U. after    2 cycles

 The electronic state is 1-A.
 Alpha  occ. eigenvalues --  -20.55769 -11.30411 -11.28490 -11.28106 -11.26426
 Alpha  occ. eigenvalues --  -11.25570 -11.24414  -1.46159  -1.12332  -1.05946
 Alpha  occ. eigenvalues --   -0.99914  -0.91000  -0.78379  -0.72519  -0.71238
 Alpha  occ. eigenvalues --   -0.68612  -0.66860  -0.62350  -0.60634  -0.52308
 Alpha  occ. eigenvalues --   -0.48308  -0.46071  -0.41468  -0.40197  -0.35796
 Alpha virt. eigenvalues --    0.03372   0.03572   0.04093   0.04533   0.05162
 Alpha virt. eigenvalues --    0.06841   0.08916   0.09163   0.10397   0.10713
 Alpha virt. eigenvalues --    0.11278   0.11807   0.12624   0.13259   0.13508

 Mulliken charges:
               1
     1  O   -1.087352
     2  C    0.451305
     3  C    0.218867
     4  C    0.048146
     5  C    0.380821
     6  C   -0.018058
     7  C    0.250853
     8  H    0.315828
     9  H    0.053530
    10  H    0.098159
    11  H   -0.193985
    12  H   -0.403044
    13  H   -0.115071
 Sum of Mulliken charges =   0.00000

 Dipole moment (field-independent basis, Debye):
    X=              0.7506    Y=             -0.3403    Z=             -0.2714  Tot=              0.8677

 Test job not archived.
 1\1\GINC-SE226\SP\RHF\Aug-CC-pVDZ\C6H6O1\OHZDE\09-Apr-2025\0\\#t hf au
 g-cc-pvdz iop(5/13=1,5/36=2,99/5=2) pseudo=read geom=check guess=(read
 ,tcheck) scf=(maxcycle=1)\\title\\0,1\O,0,2.18149051,0.3985151,2.03877
 235\C,0,1.86832207,0.77489313,0.71438514\C,0,-1.21300014,-0.05030802,-
 1.05945348\C,0,-1.97657637,-1.20400451,-0.70355211\C,0,-2.62703891,-2.
 1735025,-0.43266367\C,0,-0.40502868,0.55988598,-0.23064758\C,0,0.41816
 154,1.1610648,0.57255701\H,0,1.63839784,-0.35737626,2.27253107\H,0,2.1
 1109071,-0.01708463,-0.00197278\H,0,2.50311068,1.63492332,0.49318415\H

 Normal termination of Gaussian 16 at Wed Apr  9 18:44:36 2025.
