 Gaussian 16, Revision C.01,

 ----------------------------------------------------------------------
 #t hf aug-cc-pvdz symm=none int=(grid=ultrafine) guess=(read,tcheck) s
 table=(opt,rrhf)
 ----------------------------------------------------------------------
 -----
 title
 -----
 Symbolic Z-matrix:
 Charge =  0 Multiplicity = 1

 SCF Done:  E(RHF) =  -279.736252931     A.U. after   17 cycles
 Normal termination of Gaussian 16 at Wed Apr  9 15:57:40 2025.
 Gaussian 16:  ES64L-G16RevC.01  3-Jul-2019

 ----------------------------------------------------------------------
 #t hf aug-cc-pvdz iop(5/13=1,5/36=2,99/5=2) pseudo=read geom=check gue
 ss=(read,tcheck) scf=(maxcycle=1)
 ----------------------------------------------------------------------
 -----
 title
 -----
 Structure from the checkpoint file:  "Grambow2020_b97d3_007056_forward_mol1.chk"
 Charge =  0 Multiplicity = 1

                         Standard orientation:
 ---------------------------------------------------------------------
 Center     Atomic      Atomic             Coordinates (Angstroms)
 Number     Number       Type             X           Y           Z
 ---------------------------------------------------------------------
      1          7           0        2.035167    0.010215   -0.204993
      2          6           0        0.664349   -0.113553    0.143959
      3          6           0       -0.196659   -1.303457   -0.002511
      4          6           0       -1.475242   -0.635047   -0.052064
      5          7           0       -1.445367    0.714388   -0.059791
      6          7           0       -0.166925    1.047295    0.003108
      7          1           0        2.401819   -0.922615   -0.393858
      8          1           0        2.593392    0.434086    0.537223
      9          1           0        0.445723   -0.514192    1.229475
     10          1           0       -2.446573   -1.117747   -0.115543
     11          1           0        0.090826    2.029534    0.038136
 ---------------------------------------------------------------------

 SCF Done:  E(RHF) =  -280.019159530     A.U. after    2 cycles

 The electronic state is 1-A.
 Alpha  occ. eigenvalues --  -15.59021 -15.58378 -15.52652 -11.33586 -11.26308
 Alpha  occ. eigenvalues --  -11.25229  -1.39266  -1.22767  -1.10686  -1.06213
 Alpha  occ. eigenvalues --   -0.85596  -0.83408  -0.77406  -0.73314  -0.69539
 Alpha  occ. eigenvalues --   -0.65200  -0.60185  -0.56291  -0.50221  -0.45892
 Alpha  occ. eigenvalues --   -0.38983  -0.38037
 Alpha virt. eigenvalues --    0.02156   0.04254   0.04713   0.05330   0.05478
 Alpha virt. eigenvalues --    0.06142   0.09271   0.11010   0.12021   0.12386
 Alpha virt. eigenvalues --    0.12569   0.13523   0.14918   0.15889   0.16937

 Mulliken charges:
               1
     1  N    0.382083
     2  C   -1.362365
     3  C   -0.377525
     4  C   -0.061406
     5  N    0.050570
     6  N    0.440019
     7  H    0.233390
     8  H    0.174740
     9  H    0.540619
    10  H   -0.061935
    11  H    0.041811
 Sum of Mulliken charges =   0.00000

 Dipole moment (field-independent basis, Debye):
    X=              2.2614    Y=              1.6391    Z=              1.6317  Tot=              3.2347

 Test job not archived.
 1\1\GINC-SE037\SP\RHF\Aug-CC-pVDZ\C3H5N3\OHZDE\09-Apr-2025\0\\#t hf au
 g-cc-pvdz iop(5/13=1,5/36=2,99/5=2) pseudo=read geom=check guess=(read
 ,tcheck) scf=(maxcycle=1)\\title\\0,1\N,0,-1.79327415,-0.17198195,0.38
 018371\C,0,-0.42943056,-0.14029236,-0.01371166\C,0,0.60184736,-1.16685
 35,0.23387299\C,0,1.76836594,-0.3210576,0.14518822\N,0,1.53942876,1.00
 051494,-0.00634021\N,0,0.22456003,1.13618806,-0.05003461\H,0,-2.012527
 4,-1.11694628,0.695218\H,0,-2.42840884,0.07180959,-0.38095684\H,0,-0.1
 8410874,-0.63729504,-1.05268193\H,0,2.80179581,-0.6477741,0.22128471\H

 Normal termination of Gaussian 16 at Wed Apr  9 15:57:44 2025.
