 Gaussian 16, Revision C.01,

 ----------------------------------------------------------------------
 #t hf aug-cc-pvdz symm=none int=(grid=ultrafine) guess=(read,tcheck) s
 table=(opt,rrhf)
 ----------------------------------------------------------------------
 -----
 title
 -----
 Symbolic Z-matrix:
 Charge =  0 Multiplicity = 1

 SCF Done:  E(RHF) =  -322.503693536     A.U. after   17 cycles
 Normal termination of Gaussian 16 at Wed Apr  9 18:02:03 2025.
 Gaussian 16:  ES64L-G16RevC.01  3-Jul-2019

 ----------------------------------------------------------------------
 #t hf aug-cc-pvdz iop(5/13=1,5/36=2,99/5=2) pseudo=read geom=check gue
 ss=(read,tcheck) scf=(maxcycle=1)
 ----------------------------------------------------------------------
 -----
 title
 -----
 Structure from the checkpoint file:  "Grambow2020_wb97xd3_006944_reverse_mol1.chk"
 Charge =  0 Multiplicity = 1

                         Standard orientation:
 ---------------------------------------------------------------------
 Center     Atomic      Atomic             Coordinates (Angstroms)
 Number     Number       Type             X           Y           Z
 ---------------------------------------------------------------------
      1          8           0       -0.394905   -1.086219    1.141107
      2          6           0       -0.121469   -1.117923   -0.144069
      3          7           0       -1.091723   -0.300465   -0.930753
      4          6           0       -1.259171    0.942280   -0.156966
      5          6           0       -0.051672    1.345671    0.609970
      6          6           0        1.198402   -0.422404   -0.308066
      7          6           0        2.166884    0.303963   -0.259119
      8          1           0       -0.108957   -2.117796   -0.616508
      9          1           0       -0.718652   -0.093712   -1.852091
     10          1           0       -2.046057    0.765469    0.578767
     11          1           0       -1.544417    1.738895   -0.848595
     12          1           0        0.599193    2.115781    0.216570
     13          1           0       -0.015691    1.158785    1.672945
     14          1           0        3.038040    0.916065   -0.215171
 ---------------------------------------------------------------------

 SCF Done:  E(RHF) =  -322.834390772     A.U. after    2 cycles

 The electronic state is 1-A.
 Alpha  occ. eigenvalues --  -20.41200 -15.49709 -11.39251 -11.30495 -11.29491
 Alpha  occ. eigenvalues --  -11.27519 -11.27117  -1.35004  -1.20197  -1.07121
 Alpha  occ. eigenvalues --   -1.05354  -0.90329  -0.84398  -0.75907  -0.73580
 Alpha  occ. eigenvalues --   -0.68959  -0.68704  -0.65024  -0.57216  -0.55472
 Alpha  occ. eigenvalues --   -0.52086  -0.46342  -0.43938  -0.41899  -0.34571
 Alpha  occ. eigenvalues --   -0.33196
 Alpha virt. eigenvalues --   -0.00809   0.01881   0.03139   0.04795   0.04943
 Alpha virt. eigenvalues --    0.05632   0.06295   0.07076   0.09697   0.10271
 Alpha virt. eigenvalues --    0.10921   0.12083   0.12526   0.13177   0.14341

 Mulliken charges:
               1
     1  O   -1.534822
     2  C    0.381621
     3  N    0.299493
     4  C   -0.460000
     5  C    0.294114
     6  C    0.407411
     7  C    0.167409
     8  H    0.071782
     9  H    0.295470
    10  H    0.184278
    11  H    0.097214
    12  H    0.096124
    13  H    0.143443
    14  H   -0.443537
 Sum of Mulliken charges =  -0.00000

 Dipole moment (field-independent basis, Debye):
    X=              2.4590    Y=              6.8500    Z=             -2.0252  Tot=              7.5545

 Test job not archived.
 1\1\GINC-SE340\SP\RHF\Aug-CC-pVDZ\C5H7N1O1\OHZDE\09-Apr-2025\0\\#t hf
 aug-cc-pvdz iop(5/13=1,5/36=2,99/5=2) pseudo=read geom=check guess=(re
 ad,tcheck) scf=(maxcycle=1)\\title\\0,1\O,0,-1.29775205,0.07981298,-1.
 10644292\C,0,-1.02057864,0.91023237,-0.12612229\N,0,-1.13715649,0.2445
 7357,1.20497041\C,0,-0.49064211,-1.06830178,1.03298788\C,0,0.61701968,
 -1.07288234,0.04201154\C,0,0.43427257,1.25161741,-0.26599985\C,0,1.633
 18671,1.27186948,-0.43965912\H,0,-1.64255708,1.82285782,-0.06816006\H,
 0,-0.65417589,0.78408442,1.91662259\H,0,-1.24687395,-1.75745621,0.6522

 Normal termination of Gaussian 16 at Wed Apr  9 18:02:07 2025.
