 Gaussian 16, Revision C.01,

 ----------------------------------------------------------------------
 #t hf aug-cc-pvdz symm=none int=(grid=ultrafine) guess=(read,tcheck) s
 table=(opt,rrhf)
 ----------------------------------------------------------------------
 -----
 title
 -----
 Symbolic Z-matrix:
 Charge =  0 Multiplicity = 1

 SCF Done:  E(RHF) =  -302.744207720     A.U. after   16 cycles
 Normal termination of Gaussian 16 at Wed Apr  9 18:11:13 2025.
 Gaussian 16:  ES64L-G16RevC.01  3-Jul-2019

 ----------------------------------------------------------------------
 #t hf aug-cc-pvdz iop(5/13=1,5/36=2,99/5=2) pseudo=read geom=check gue
 ss=(read,tcheck) scf=(maxcycle=1)
 ----------------------------------------------------------------------
 -----
 title
 -----
 Structure from the checkpoint file:  "Grambow2020_wb97xd3_007170_reverse_mol2.chk"
 Charge =  0 Multiplicity = 1

                         Standard orientation:
 ---------------------------------------------------------------------
 Center     Atomic      Atomic             Coordinates (Angstroms)
 Number     Number       Type             X           Y           Z
 ---------------------------------------------------------------------
      1          6           0       -1.464710    1.698220   -0.099288
      2          6           0       -1.251880    0.244504   -0.150442
      3          6           0       -1.696292   -1.155613   -0.107394
      4          7           0       -0.330955   -0.632009   -0.145916
      5          6           0        0.941338   -1.033438   -0.100474
      6          6           0        1.942391   -0.050025   -0.093377
      7          7           0        2.741227    0.784852   -0.083801
      8          1           0       -2.072453    2.037189   -0.940751
      9          1           0       -0.502181    2.207864   -0.134574
     10          1           0       -1.977549    1.985806    0.821614
     11          1           0       -0.422491    0.087957    2.899170
     12          1           0       -1.995895   -1.619351    0.833372
     13          1           0       -2.033085   -1.666799   -1.008757
     14          1           0        0.160976   -0.235758    2.564076
     15          1           0        1.145690   -2.088702   -0.120286
 ---------------------------------------------------------------------

 SCF Done:  E(RHF) =  -303.060792057     A.U. after    2 cycles

 The electronic state is 1-A.
 Alpha  occ. eigenvalues --  -15.63577 -15.47867 -11.33276 -11.32203 -11.27937
 Alpha  occ. eigenvalues --  -11.26704 -11.25839  -1.40484  -1.20513  -1.11711
 Alpha  occ. eigenvalues --   -1.04027  -0.91951  -0.85182  -0.73414  -0.73048
 Alpha  occ. eigenvalues --   -0.69928  -0.63877  -0.61090  -0.59846  -0.58966
 Alpha  occ. eigenvalues --   -0.56843  -0.55816  -0.52960  -0.49260  -0.47531
 Alpha  occ. eigenvalues --   -0.29044
 Alpha virt. eigenvalues --    0.02546   0.03145   0.03710   0.04637   0.05334
 Alpha virt. eigenvalues --    0.06693   0.07184   0.07703   0.08371   0.09043
 Alpha virt. eigenvalues --    0.10348   0.11382   0.12104   0.13074   0.14097

 Mulliken charges:
               1
     1  C   -0.526770
     2  C   -0.854262
     3  C    0.195693
     4  N    1.137978
     5  C    0.482858
     6  C   -1.782420
     7  N    0.834654
     8  H    0.230606
     9  H    0.205126
    10  H    0.248338
    11  H   -0.008420
    12  H   -0.044656
    13  H   -0.016772
    14  H    0.055081
    15  H   -0.157034
 Sum of Mulliken charges =   0.00000

 Dipole moment (field-independent basis, Debye):
    X=             -7.5040    Y=             -1.7722    Z=             -0.0847  Tot=              7.7109

 Test job not archived.
 1\1\GINC-SE340\SP\RHF\Aug-CC-pVDZ\C5H8N2\OHZDE\09-Apr-2025\0\\#t hf au
 g-cc-pvdz iop(5/13=1,5/36=2,99/5=2) pseudo=read geom=check guess=(read
 ,tcheck) scf=(maxcycle=1)\\title\\0,1\C,0,-1.66653529,-1.04387695,0.23
 602531\C,0,-0.8144367,0.14169198,0.40794354\C,0,-0.56964932,1.58801864
 ,0.49683365\N,0,0.4049982,0.49791554,0.45775816\C,0,1.72081805,0.27671
 503,0.41740125\C,0,2.16235383,-1.05027194,0.30160381\N,0,2.49188755,-2
 .15323507,0.20095868\H,0,-2.37765581,-1.14054402,1.05899229\H,0,-1.043
 74279,-1.9375067,0.20439916\H,0,-2.23673826,-0.9836202,-0.69403179\H,0

 Normal termination of Gaussian 16 at Wed Apr  9 18:11:17 2025.
