 Gaussian 16, Revision C.01,

 ----------------------------------------------------------------------
 #t hf aug-cc-pvdz symm=none int=(grid=ultrafine) guess=(read,tcheck) s
 table=(opt,rrhf)
 ----------------------------------------------------------------------
 -----
 title
 -----
 Symbolic Z-matrix:
 Charge =  0 Multiplicity = 1

 SCF Done:  E(RHF) =  -320.593192637     A.U. after   15 cycles
 Normal termination of Gaussian 16 at Wed Apr  9 16:11:42 2025.
 Gaussian 16:  ES64L-G16RevC.01  3-Jul-2019

 ----------------------------------------------------------------------
 #t hf aug-cc-pvdz iop(5/13=1,5/36=2,99/5=2) pseudo=read geom=check gue
 ss=(read,tcheck) scf=(maxcycle=1)
 ----------------------------------------------------------------------
 -----
 title
 -----
 Structure from the checkpoint file:  "Grambow2020_b97d3_007148_reverse_mol1.chk"
 Charge =  0 Multiplicity = 1

                         Standard orientation:
 ---------------------------------------------------------------------
 Center     Atomic      Atomic             Coordinates (Angstroms)
 Number     Number       Type             X           Y           Z
 ---------------------------------------------------------------------
      1          8           0        2.078668    0.023742    0.078383
      2          6           0        0.874225   -0.022043    0.012678
      3          7           0       -0.011488    1.065757   -0.207612
      4          6           0       -1.330916    0.736220   -0.117001
      5          6           0       -1.285902   -0.768624   -0.162605
      6          8           0        0.100698   -1.140280    0.124865
      7          1           0        0.351960    2.011476   -0.263931
      8          1           0       -1.765891    0.903854    1.639989
      9          1           0       -2.036901    1.265722    0.684979
     10          1           0       -1.504108   -1.116402   -1.184142
     11          1           0       -1.944016   -1.265961    0.551966
 ---------------------------------------------------------------------

 SCF Done:  E(RHF) =  -320.912809825     A.U. after    2 cycles

 The electronic state is 1-A.
 Alpha  occ. eigenvalues --  -20.61329 -20.54674 -15.57899 -11.43894 -11.33819
 Alpha  occ. eigenvalues --  -11.33739  -1.56006  -1.47281  -1.29294  -1.05187
 Alpha  occ. eigenvalues --   -0.90645  -0.88987  -0.77508  -0.73958  -0.68276
 Alpha  occ. eigenvalues --   -0.66739  -0.62104  -0.61249  -0.58765  -0.52275
 Alpha  occ. eigenvalues --   -0.47775  -0.46777  -0.35406
 Alpha virt. eigenvalues --    0.02250   0.03778   0.03931   0.05194   0.06221
 Alpha virt. eigenvalues --    0.08920   0.09763   0.10256   0.10553   0.11127
 Alpha virt. eigenvalues --    0.13299   0.13791   0.14775   0.15709   0.15780

 Mulliken charges:
               1
     1  O   -1.110191
     2  C    1.448573
     3  N    0.781306
     4  C   -1.040909
     5  C    0.724790
     6  O   -1.242148
     7  H    0.071707
     8  H    0.017201
     9  H    0.074786
    10  H    0.186893
    11  H    0.087991
 Sum of Mulliken charges =   0.00000

 Dipole moment (field-independent basis, Debye):
    X=             -3.4601    Y=              1.0488    Z=             -0.7755  Tot=              3.6978

 Test job not archived.
 1\1\GINC-SE163\SP\RHF\Aug-CC-pVDZ\C3H5N1O2\OHZDE\09-Apr-2025\0\\#t hf
 aug-cc-pvdz iop(5/13=1,5/36=2,99/5=2) pseudo=read geom=check guess=(re
 ad,tcheck) scf=(maxcycle=1)\\title\\0,1\O,0,2.61868701,-0.07574352,-0.
 39934057\C,0,1.43615289,0.0806765,-0.21429526\N,0,0.6093503,-0.6413770
 4,0.68646056\C,0,-0.71421297,-0.32758929,0.60036522\C,0,-0.68678929,0.
 94512971,-0.20467951\O,0,0.63697892,1.00079869,-0.82754771\H,0,0.99201
 047,-1.42101161,1.21123746\H,0,-1.39821332,-1.40709529,-0.69235623\H,0
 ,-1.52121895,-1.1621989,0.32810189\H,0,-0.75905851,1.81290719,0.468997

 Normal termination of Gaussian 16 at Wed Apr  9 16:11:46 2025.
