 Gaussian 16, Revision C.01,

 ----------------------------------------------------------------------
 #t hf aug-cc-pvdz symm=none int=(grid=ultrafine) guess=(read,tcheck) s
 table=(opt,rrhf)
 ----------------------------------------------------------------------
 -----
 title
 -----
 Symbolic Z-matrix:
 Charge =  0 Multiplicity = 1

 SCF Done:  E(RHF) =  -359.570370268     A.U. after   14 cycles
 Normal termination of Gaussian 16 at Wed Apr  9 19:21:03 2025.
 Gaussian 16:  ES64L-G16RevC.01  3-Jul-2019

 ----------------------------------------------------------------------
 #t hf aug-cc-pvdz iop(5/13=1,5/36=2,99/5=2) pseudo=read geom=check gue
 ss=(read,tcheck) scf=(maxcycle=1)
 ----------------------------------------------------------------------
 -----
 title
 -----
 Structure from the checkpoint file:  "Grambow2020_wb97xd3_009399_forward_mol1.chk"
 Charge =  0 Multiplicity = 1

                         Standard orientation:
 ---------------------------------------------------------------------
 Center     Atomic      Atomic             Coordinates (Angstroms)
 Number     Number       Type             X           Y           Z
 ---------------------------------------------------------------------
      1          8           0       -1.708484   -0.295466   -0.959779
      2          6           0       -1.281320   -0.041281    0.260576
      3          6           0        0.164147   -1.324921    0.569483
      4          8           0        1.312543   -0.943725   -0.141175
      5          6           0        1.501716    0.378078   -0.385641
      6          7           0        0.780529    1.366053   -0.116751
      7          6           0       -0.501972    1.226827    0.539425
      8          1           0       -0.849466   -1.122085   -0.333760
      9          1           0       -1.922727   -0.345191    1.105932
     10          1           0        0.233297   -1.130376    1.639220
     11          1           0        0.027229   -2.399998    0.412342
     12          1           0        2.451228    0.512174   -0.895472
     13          1           0       -0.375098    1.377419    1.615550
     14          1           0       -1.156064    2.027000    0.178024
 ---------------------------------------------------------------------

 SCF Done:  E(RHF) =  -359.935259863     A.U. after    2 cycles

 The electronic state is 1-A.
 Alpha  occ. eigenvalues --  -20.60830 -20.49903 -15.50238 -11.37702 -11.35567
 Alpha  occ. eigenvalues --  -11.33161 -11.28766  -1.54204  -1.43957  -1.24591
 Alpha  occ. eigenvalues --   -1.06297  -0.98225  -0.90129  -0.77250  -0.75559
 Alpha  occ. eigenvalues --   -0.73559  -0.71013  -0.66853  -0.63445  -0.61333
 Alpha  occ. eigenvalues --   -0.59658  -0.55966  -0.54305  -0.48590  -0.43876
 Alpha  occ. eigenvalues --   -0.40407  -0.36749
 Alpha virt. eigenvalues --    0.02586   0.03807   0.04102   0.04665   0.05740
 Alpha virt. eigenvalues --    0.06395   0.07910   0.09619   0.10036   0.11585
 Alpha virt. eigenvalues --    0.12268   0.12604   0.13864   0.14070   0.14351

 Mulliken charges:
               1
     1  O   -1.573735
     2  C    1.050686
     3  C    0.208446
     4  O   -1.173722
     5  C    0.200225
     6  N    0.818783
     7  C   -0.679024
     8  H    0.641779
     9  H    0.200572
    10  H    0.169271
    11  H   -0.111604
    12  H   -0.037136
    13  H    0.143975
    14  H    0.141483
 Sum of Mulliken charges =  -0.00000

 Dipole moment (field-independent basis, Debye):
    X=              0.9833    Y=             -1.8698    Z=              3.7736  Tot=              4.3247

 Test job not archived.
 1\1\GINC-SE226\SP\RHF\Aug-CC-pVDZ\C4H7N1O2\OHZDE\09-Apr-2025\0\\#t hf
 aug-cc-pvdz iop(5/13=1,5/36=2,99/5=2) pseudo=read geom=check guess=(re
 ad,tcheck) scf=(maxcycle=1)\\title\\0,1\O,0,-1.22798488,-0.89853106,1.
 34038352\C,0,-1.12018394,-0.36005059,0.14256787\C,0,-0.07992221,1.2760
 3201,0.41388988\O,0,1.27104347,0.96284334,0.62827716\C,0,1.76021175,-0
 .17066336,0.0638385\N,0,1.18661887,-1.05542995,-0.61194758\C,0,-0.2310
 9102,-1.00635027,-0.89908877\H,0,-0.745244,0.34759002,1.17529885\H,0,-
 2.01687444,0.11372345,-0.29317875\H,0,-0.27831514,1.67732696,-0.579372

 Normal termination of Gaussian 16 at Wed Apr  9 19:21:08 2025.
