 Gaussian 16, Revision C.01,

 ----------------------------------------------------------------------
 #t hf aug-cc-pvdz symm=none int=(grid=ultrafine) guess=(read,tcheck) s
 table=(opt,rrhf)
 ----------------------------------------------------------------------
 -----
 title
 -----
 Symbolic Z-matrix:
 Charge =  0 Multiplicity = 1

 SCF Done:  E(RHF) =  -360.766114260     A.U. after   17 cycles
 Normal termination of Gaussian 16 at Wed Apr  9 19:08:07 2025.
 Gaussian 16:  ES64L-G16RevC.01  3-Jul-2019

 ----------------------------------------------------------------------
 #t hf aug-cc-pvdz iop(5/13=1,5/36=2,99/5=2) pseudo=read geom=check gue
 ss=(read,tcheck) scf=(maxcycle=1)
 ----------------------------------------------------------------------
 -----
 title
 -----
 Structure from the checkpoint file:  "Grambow2020_wb97xd3_008629_reverse_mol1.chk"
 Charge =  0 Multiplicity = 1

                         Standard orientation:
 ---------------------------------------------------------------------
 Center     Atomic      Atomic             Coordinates (Angstroms)
 Number     Number       Type             X           Y           Z
 ---------------------------------------------------------------------
      1          6           0       -1.156253   -1.410359   -0.355769
      2          6           0       -2.077357   -0.409045   -0.067446
      3          6           0       -1.072361    1.295772    0.228873
      4          8           0        0.027011    1.298969   -0.395798
      5          6           0        1.089342   -0.240099    0.139392
      6          8           0        1.129254   -0.371809    1.330472
      7          7           0        2.150518   -0.179231   -0.718982
      8          1           0       -0.814806   -2.074219    0.430655
      9          1           0       -1.071154   -1.795643   -1.367260
     10          1           0        0.111432   -0.706812   -0.439943
     11          1           0       -2.718582   -0.083277   -0.876525
     12          1           0       -2.536984   -0.416099    0.913141
     13          1           0       -1.896067    1.864455   -0.207841
     14          1           0       -1.044205    1.264047    1.324886
     15          1           0        3.012421    0.114029   -0.286024
     16          1           0        1.953964    0.253243   -1.605905
 ---------------------------------------------------------------------

 SCF Done:  E(RHF) =  -361.138381162     A.U. after    2 cycles

 The electronic state is 1-A.
 Alpha  occ. eigenvalues --  -20.52568 -20.50772 -15.51636 -11.38276 -11.32617
 Alpha  occ. eigenvalues --  -11.29964 -11.24654  -1.47361  -1.43701  -1.21645
 Alpha  occ. eigenvalues --   -1.07310  -0.90880  -0.83654  -0.81909  -0.75622
 Alpha  occ. eigenvalues --   -0.69958  -0.67620  -0.66171  -0.64030  -0.62074
 Alpha  occ. eigenvalues --   -0.60737  -0.56662  -0.53933  -0.49688  -0.45574
 Alpha  occ. eigenvalues --   -0.42395  -0.39513  -0.34972
 Alpha virt. eigenvalues --    0.02862   0.03317   0.04215   0.04570   0.05753
 Alpha virt. eigenvalues --    0.06031   0.06871   0.07050   0.08211   0.09327
 Alpha virt. eigenvalues --    0.11770   0.12319   0.13343   0.14430   0.14880

 Mulliken charges:
               1
     1  C   -0.337415
     2  C   -0.215806
     3  C    0.616156
     4  O   -1.065840
     5  C   -0.017043
     6  O   -1.176918
     7  N    0.607179
     8  H    0.122125
     9  H    0.103874
    10  H    0.736135
    11  H   -0.003513
    12  H    0.134746
    13  H   -0.007235
    14  H    0.181725
    15  H    0.150475
    16  H    0.171355
 Sum of Mulliken charges =  -0.00000

 Dipole moment (field-independent basis, Debye):
    X=             -2.0296    Y=             -0.4333    Z=             -2.2746  Tot=              3.0790

 Test job not archived.
 1\1\GINC-SE117\SP\RHF\Aug-CC-pVDZ\C4H9N1O2\OHZDE\09-Apr-2025\0\\#t hf
 aug-cc-pvdz iop(5/13=1,5/36=2,99/5=2) pseudo=read geom=check guess=(re
 ad,tcheck) scf=(maxcycle=1)\\title\\0,1\C,0,-1.2310325,-0.15353317,-1.
 0031023\C,0,-1.56801029,0.71515682,0.02937888\C,0,0.04544565,0.9633105
 6,1.18670436\O,0,1.1139836,0.78284802,0.53516466\C,0,1.09866093,-0.987
 07659,-0.27158072\O,0,0.77470941,-1.83833689,0.50817766\N,0,2.22138908
 ,-0.96651341,-1.04982493\H,0,-1.47068113,-1.20800146,-0.92295338\H,0,-
 1.10495131,0.22532421,-2.01274175\H,0,0.19452456,-0.36903824,-0.828648

 Normal termination of Gaussian 16 at Wed Apr  9 19:08:13 2025.
