 Gaussian 16, Revision C.01,

 ----------------------------------------------------------------------
 #t hf aug-cc-pvdz symm=none int=(grid=ultrafine) guess=(read,tcheck) s
 table=(opt,rrhf)
 ----------------------------------------------------------------------
 -----
 title
 -----
 Symbolic Z-matrix:
 Charge =  0 Multiplicity = 1

 SCF Done:  E(RHF) =  -268.710345902     A.U. after   16 cycles
 Normal termination of Gaussian 16 at Wed Apr  9 15:59:55 2025.
 Gaussian 16:  ES64L-G16RevC.01  3-Jul-2019

 ----------------------------------------------------------------------
 #t hf aug-cc-pvdz iop(5/13=1,5/36=2,99/5=2) pseudo=read geom=check gue
 ss=(read,tcheck) scf=(maxcycle=1)
 ----------------------------------------------------------------------
 -----
 title
 -----
 Structure from the checkpoint file:  "Grambow2020_b97d3_007073_reverse_mol1.chk"
 Charge =  0 Multiplicity = 1

                         Standard orientation:
 ---------------------------------------------------------------------
 Center     Atomic      Atomic             Coordinates (Angstroms)
 Number     Number       Type             X           Y           Z
 ---------------------------------------------------------------------
      1          6           0        2.199730    0.052781   -0.119569
      2          6           0        0.709161    0.086625    0.199398
      3          6           0       -0.163034    1.193374   -0.162653
      4          6           0       -1.554138    0.650320    0.025699
      5          8           0       -1.361177   -0.852420   -0.154873
      6          6           0       -0.086335   -1.128544    0.045446
      7          1           0        2.693093   -0.815611    0.341610
      8          1           0        2.681971    0.962607    0.257629
      9          1           0        2.341788    0.011456   -1.205631
     10          1           0        0.055722    2.192905    0.212913
     11          1           0       -2.317089    0.943947   -0.710887
     12          1           0       -2.007301    0.734721    1.045718
     13          1           0        0.218549   -2.171581    0.020916
     14          1           0        0.590377   -0.166417    1.346792
 ---------------------------------------------------------------------

 SCF Done:  E(RHF) =  -268.990622923     A.U. after    2 cycles

 The electronic state is 1-A.
 Alpha  occ. eigenvalues --  -20.63104 -11.40564 -11.29815 -11.27249 -11.24638
 Alpha  occ. eigenvalues --  -11.14958  -1.54322  -1.11318  -1.00886  -0.94996
 Alpha  occ. eigenvalues --   -0.82034  -0.79223  -0.71936  -0.68127  -0.62226
 Alpha  occ. eigenvalues --   -0.60574  -0.58372  -0.54640  -0.52630  -0.51355
 Alpha  occ. eigenvalues --   -0.49403  -0.48235  -0.22780
 Alpha virt. eigenvalues --    0.02574   0.03730   0.03926   0.04608   0.05862
 Alpha virt. eigenvalues --    0.06225   0.06634   0.07187   0.07942   0.11412
 Alpha virt. eigenvalues --    0.11696   0.13052   0.13398   0.13715   0.14253

 Mulliken charges:
               1
     1  C   -0.353818
     2  C   -0.724460
     3  C   -0.176252
     4  C    0.228690
     5  O   -1.320362
     6  C    1.071801
     7  H    0.173256
     8  H    0.219712
     9  H    0.271655
    10  H   -0.085890
    11  H    0.076540
    12  H    0.123210
    13  H   -0.059353
    14  H    0.555272
 Sum of Mulliken charges =  -0.00000

 Dipole moment (field-independent basis, Debye):
    X=              0.8989    Y=             -3.2807    Z=              1.5680  Tot=              3.7456

 Test job not archived.
 1\1\GINC-SE163\SP\RHF\Aug-CC-pVDZ\C5H8O1\OHZDE\09-Apr-2025\0\\#t hf au
 g-cc-pvdz iop(5/13=1,5/36=2,99/5=2) pseudo=read geom=check guess=(read
 ,tcheck) scf=(maxcycle=1)\\title\\0,1\C,0,-1.86012963,0.22996025,-0.43
 307433\C,0,-0.37810115,-0.05961517,-0.22231507\C,0,0.6487289,0.9710550
 1,-0.22845143\C,0,1.86112678,0.29454099,0.35290574\O,0,1.25559957,-0.8
 1059077,1.21318799\C,0,0.02706463,-1.03486977,0.78657945\H,0,-2.447578
 35,-0.69721638,-0.50686186\H,0,-2.00005063,0.80023811,-1.35926167\H,0,
 -2.23933388,0.82964427,0.40239154\H,0,0.77967387,1.59158417,-1.1148850

 Normal termination of Gaussian 16 at Wed Apr  9 15:59:59 2025.
