 Gaussian 16, Revision C.01,

 ----------------------------------------------------------------------
 #t hf aug-cc-pvdz symm=none int=(grid=ultrafine) guess=(read,tcheck) s
 table=(opt,rrhf)
 ----------------------------------------------------------------------
 -----
 title
 -----
 Symbolic Z-matrix:
 Charge =  0 Multiplicity = 1

 SCF Done:  E(RHF) =  -344.715708274     A.U. after   15 cycles

 1\1\GINC-SE074\Stability\RHF\Aug-CC-pVDZ\C5H10O2\OHZDE\09-Apr-2025\0\\
 #t hf aug-cc-pvdz symm=none int=(grid=ultrafine) guess=(read,tcheck) s
 table=(opt,rrhf)\\title\\0,1\C,0,2.14496068,1.17370821,-0.36357695\O,0
 ,0.88938003,0.85192848,0.18252603\C,0,0.1267042,-0.74800177,-0.4654139
 4\C,0,0.32318002,-1.414803,0.76933095\O,0,-1.07456748,-1.38486812,1.12
 387775\C,0,-1.34144198,-0.73671919,-0.1352439\C,0,-2.12745165,0.540830
 76,-0.03034757\H,0,2.77985373,0.2818519,-0.4768827\H,0,2.02144267,1.64
 066898,-1.34405855\H,0,2.6650734,1.88060887,0.28674804\H,0,0.61755985,

 Normal termination of Gaussian 16 at Wed Apr  9 03:27:34 2025.
 Gaussian 16:  ES64L-G16RevC.01  3-Jul-2019

 ----------------------------------------------------------------------
 #t hf aug-cc-pvdz iop(5/13=1,5/36=2,99/5=2) pseudo=read geom=check gue
 ss=(read,tcheck) scf=(maxcycle=1)
 ----------------------------------------------------------------------
 -----
 title
 -----
 Structure from the checkpoint file:  "Grambow2020_wb97xd3_006663_reverse_mol1.chk"
 Charge =  0 Multiplicity = 1

                         Standard orientation:
 ---------------------------------------------------------------------
 Center     Atomic      Atomic             Coordinates (Angstroms)
 Number     Number       Type             X           Y           Z
 ---------------------------------------------------------------------
      1          6           0       -2.649004    0.286184    0.005578
      2          8           0       -1.308456    0.393953   -0.406211
      3          6           0       -0.051040   -0.381916    0.767760
      4          6           0        0.235224   -1.435466   -0.135516
      5          8           0        1.527424   -0.908189   -0.499516
      6          6           0        1.308429    0.169236    0.432097
      7          6           0        1.492999    1.545727   -0.144230
      8          1           0       -2.860998   -0.699643    0.446643
      9          1           0       -2.879241    1.056350    0.746178
     10          1           0       -3.314692    0.426270   -0.849047
     11          1           0       -0.629832   -0.285945    1.676314
     12          1           0       -0.788442   -0.656042   -0.775228
     13          1           0        0.124834   -2.505604   -0.011675
     14          1           0        1.950471    0.012181    1.309696
     15          1           0        1.281769    2.302797    0.613546
     16          1           0        2.524580    1.666219   -0.478233
     17          1           0        0.820157    1.694717   -0.986510
 ---------------------------------------------------------------------

 SCF Done:  E(RHF) =  -345.077054546     A.U. after    2 cycles

 The electronic state is 1-A.
 Alpha  occ. eigenvalues --  -20.53488 -20.53333 -11.32893 -11.30795 -11.27957
 Alpha  occ. eigenvalues --  -11.25523 -11.22998  -1.47048  -1.41928  -1.06664
 Alpha  occ. eigenvalues --   -1.01442  -0.91804  -0.86695  -0.76302  -0.72456
 Alpha  occ. eigenvalues --   -0.68901  -0.63612  -0.62578  -0.60987  -0.59548
 Alpha  occ. eigenvalues --   -0.57103  -0.54813  -0.50985  -0.48788  -0.47779
 Alpha  occ. eigenvalues --   -0.45807  -0.43521  -0.31276
 Alpha virt. eigenvalues --    0.02808   0.03648   0.03918   0.04592   0.05746
 Alpha virt. eigenvalues --    0.06230   0.06773   0.06905   0.08822   0.09188
 Alpha virt. eigenvalues --    0.11291   0.11717   0.12393   0.12971   0.14126

 Mulliken charges:
               1
     1  C    0.333869
     2  O   -1.314521
     3  C    0.037376
     4  C    0.480617
     5  O   -1.446859
     6  C    0.784742
     7  C   -0.435140
     8  H    0.117993
     9  H    0.057813
    10  H    0.004354
    11  H   -0.205520
    12  H    0.994686
    13  H   -0.119688
    14  H    0.059060
    15  H    0.230168
    16  H    0.185394
    17  H    0.235654
 Sum of Mulliken charges =  -0.00000

 Dipole moment (field-independent basis, Debye):
    X=             -1.3560    Y=              0.6390    Z=              2.8597  Tot=              3.2288

 Test job not archived.
 1\1\GINC-SE074\SP\RHF\Aug-CC-pVDZ\C5H10O2\OHZDE\09-Apr-2025\0\\#t hf a
 ug-cc-pvdz iop(5/13=1,5/36=2,99/5=2) pseudo=read geom=check guess=(rea
 d,tcheck) scf=(maxcycle=1)\\title\\0,1\C,0,2.14496068,1.17370821,-0.36
 357695\O,0,0.88938003,0.85192848,0.18252603\C,0,0.1267042,-0.74800177,
 -0.46541394\C,0,0.32318002,-1.414803,0.76933095\O,0,-1.07456748,-1.384
 86812,1.12387775\C,0,-1.34144198,-0.73671919,-0.1352439\C,0,-2.1274516
 5,0.54083076,-0.03034757\H,0,2.77985373,0.2818519,-0.4768827\H,0,2.021
 44267,1.64066898,-1.34405855\H,0,2.6650734,1.88060887,0.28674804\H,0,0

 Normal termination of Gaussian 16 at Wed Apr  9 03:27:41 2025.
