 Gaussian 16, Revision C.01,

 ----------------------------------------------------------------------
 #t hf aug-cc-pvdz symm=none int=(grid=ultrafine) guess=(read,tcheck) s
 table=(opt,rrhf)
 ----------------------------------------------------------------------
 -----
 title
 -----
 Symbolic Z-matrix:
 Charge =  0 Multiplicity = 1

 SCF Done:  E(RHF) =  -321.289191174     A.U. after   19 cycles
 Normal termination of Gaussian 16 at Wed Apr  9 18:22:07 2025.
 Gaussian 16:  ES64L-G16RevC.01  3-Jul-2019

 ----------------------------------------------------------------------
 #t hf aug-cc-pvdz iop(5/13=1,5/36=2,99/5=2) pseudo=read geom=check gue
 ss=(read,tcheck) scf=(maxcycle=1)
 ----------------------------------------------------------------------
 -----
 title
 -----
 Structure from the checkpoint file:  "Grambow2020_wb97xd3_007500_forward_mol1.chk"
 Charge =  0 Multiplicity = 1

                         Standard orientation:
 ---------------------------------------------------------------------
 Center     Atomic      Atomic             Coordinates (Angstroms)
 Number     Number       Type             X           Y           Z
 ---------------------------------------------------------------------
      1          8           0        0.662634   -0.888245   -0.535575
      2          6           0        0.237317   -0.558275    0.709335
      3          6           0        1.654348   -0.089337    0.043073
      4          6           0        2.634386    0.625253   -0.056658
      5          6           0       -1.129320   -0.042101    0.746622
      6          6           0       -1.474127    1.011417   -0.268334
      7          7           0       -2.048719   -0.300018   -0.365149
      8          1           0        3.491639    1.243140    0.064567
      9          1           0       -1.583498    0.017657    1.726326
     10          1           0       -0.693260    1.298999   -0.964356
     11          1           0       -2.142348    1.801243    0.051574
     12          1           0       -1.568195   -0.836703   -1.081708
 ---------------------------------------------------------------------

 SCF Done:  E(RHF) =  -321.614173225     A.U. after    2 cycles

 The electronic state is 1-A.
 Alpha  occ. eigenvalues --  -20.64777 -15.53198 -11.35771 -11.33585 -11.29923
 Alpha  occ. eigenvalues --  -11.29007 -11.25093  -1.59197  -1.30429  -1.04115
 Alpha  occ. eigenvalues --   -0.98907  -0.91473  -0.83345  -0.80667  -0.74182
 Alpha  occ. eigenvalues --   -0.70691  -0.69155  -0.63643  -0.59512  -0.56168
 Alpha  occ. eigenvalues --   -0.53422  -0.49953  -0.44905  -0.40451  -0.31891
 Alpha virt. eigenvalues --    0.02299   0.03547   0.03807   0.04880   0.05218
 Alpha virt. eigenvalues --    0.06461   0.08988   0.09367   0.10097   0.10626
 Alpha virt. eigenvalues --    0.12380   0.12608   0.13195   0.14615   0.14980

 Mulliken charges:
               1
     1  O   -1.226310
     2  C   -0.039433
     3  C    1.099486
     4  C    0.064141
     5  C   -0.113713
     6  C    0.185448
     7  N    0.399257
     8  H   -0.339048
     9  H   -0.138255
    10  H   -0.054105
    11  H   -0.041012
    12  H    0.203546
 Sum of Mulliken charges =   0.00000

 Dipole moment (field-independent basis, Debye):
    X=             -0.0902    Y=              1.7194    Z=             -0.1680  Tot=              1.7300

 Test job not archived.
 1\1\GINC-SE117\SP\RHF\Aug-CC-pVDZ\C5H5N1O1\OHZDE\09-Apr-2025\0\\#t hf
 aug-cc-pvdz iop(5/13=1,5/36=2,99/5=2) pseudo=read geom=check guess=(re
 ad,tcheck) scf=(maxcycle=1)\\title\\0,1\O,0,0.78014323,0.71070728,1.12
 346714\C,0,0.59107066,1.00468063,-0.18703159\C,0,1.80190078,0.08034859
 ,0.40566255\C,0,2.68149979,-0.75671406,0.32386698\C,0,-0.77624065,0.77
 696279,-0.64977009\C,0,-1.40209253,-0.53472128,-0.26672752\N,0,-1.8783
 9708,0.6889559,0.31218327\H,0,3.49370765,-1.39523384,0.07093513\H,0,-1
 .02576308,1.20611666,-1.6106208\H,0,-0.80380864,-1.20781938,0.33816878

 Normal termination of Gaussian 16 at Wed Apr  9 18:22:11 2025.
