 Gaussian 16, Revision C.01,

 ----------------------------------------------------------------------
 #t hf aug-cc-pvdz symm=none int=(grid=ultrafine) guess=(read,tcheck) s
 table=(opt,rrhf)
 ----------------------------------------------------------------------
 -----
 title
 -----
 Symbolic Z-matrix:
 Charge =  0 Multiplicity = 1

 SCF Done:  E(RHF) =  -308.842248086     A.U. after   15 cycles

 1\1\GINC-SE192\Stability\RHF\Aug-CC-pVDZ\C6H12O1\OHZDE\09-Apr-2025\0\\
 #t hf aug-cc-pvdz symm=none int=(grid=ultrafine) guess=(read,tcheck) s
 table=(opt,rrhf)\\title\\0,1\C,0,-1.93322224,-0.97403275,-0.54491617\C
 ,0,-0.89209131,-0.08161233,0.08361134\C,0,-1.34270211,1.06015532,0.824
 49141\C,0,0.2801613,-0.80942024,0.67887245\O,0,1.21173356,-1.47768001,
 -0.14371167\C,0,1.68046161,-0.39721157,0.66391026\C,0,2.22394772,0.818
 609,-0.02610361\H,0,-2.67989272,-0.38206616,-1.07268082\H,0,-1.4821274
 4,-1.68819511,-1.23348216\H,0,-2.4355206,-1.50842869,0.26519614\H,0,-0

 Normal termination of Gaussian 16 at Wed Apr  9 18:33:09 2025.
 Gaussian 16:  ES64L-G16RevC.01  3-Jul-2019

 ----------------------------------------------------------------------
 #t hf aug-cc-pvdz iop(5/13=1,5/36=2,99/5=2) pseudo=read geom=check gue
 ss=(read,tcheck) scf=(maxcycle=1)
 ----------------------------------------------------------------------
 -----
 title
 -----
 Structure from the checkpoint file:  "Grambow2020_wb97xd3_007703_reverse_mol1.chk"
 Charge =  0 Multiplicity = 1

                         Standard orientation:
 ---------------------------------------------------------------------
 Center     Atomic      Atomic             Coordinates (Angstroms)
 Number     Number       Type             X           Y           Z
 ---------------------------------------------------------------------
      1          6           0        2.173281   -0.750492    0.398920
      2          6           0        1.040544    0.186731    0.061377
      3          6           0        1.370990    1.499999   -0.409494
      4          6           0       -0.128089   -0.463964   -0.623539
      5          8           0       -0.958569   -1.372204    0.066712
      6          6           0       -1.544893   -0.169238   -0.431753
      7          6           0       -2.105759    0.808113    0.558161
      8          1           0        2.921012   -0.246444    1.009913
      9          1           0        1.814239   -1.637006    0.921241
     10          1           0        2.645691   -1.042082   -0.542339
     11          1           0        0.461970    0.175235    1.473605
     12          1           0        0.624105    2.093838   -0.913868
     13          1           0        2.367145    1.887868   -0.258879
     14          1           0        0.770971    1.049781    0.945195
     15          1           0        0.191852   -0.795050   -1.612098
     16          1           0       -2.180573   -0.339124   -1.299458
     17          1           0       -1.450236    0.938344    1.418325
     18          1           0       -3.069375    0.449767    0.924103
     19          1           0       -2.264697    1.775624    0.078528
 ---------------------------------------------------------------------

 SCF Done:  E(RHF) =  -309.174578355     A.U. after    2 cycles

 The electronic state is 1-A.
 Alpha  occ. eigenvalues --  -20.56347 -11.32870 -11.30616 -11.30393 -11.24632
 Alpha  occ. eigenvalues --  -11.23923 -11.19835  -1.50924  -1.13796  -1.02806
 Alpha  occ. eigenvalues --   -0.95671  -0.92628  -0.84764  -0.77385  -0.72017
 Alpha  occ. eigenvalues --   -0.68334  -0.64102  -0.61828  -0.59846  -0.58341
 Alpha  occ. eigenvalues --   -0.57256  -0.55146  -0.53434  -0.51630  -0.51068
 Alpha  occ. eigenvalues --   -0.45282  -0.43846  -0.27282
 Alpha virt. eigenvalues --    0.03218   0.03515   0.03999   0.04160   0.05526
 Alpha virt. eigenvalues --    0.05862   0.06003   0.07220   0.08254   0.08700
 Alpha virt. eigenvalues --    0.09603   0.09725   0.12168   0.13150   0.13698

 Mulliken charges:
               1
     1  C   -0.216728
     2  C   -1.167621
     3  C   -0.226125
     4  C    1.610289
     5  O   -1.391672
     6  C    0.327326
     7  C   -0.508977
     8  H    0.207111
     9  H    0.164577
    10  H    0.270808
    11  H    0.311638
    12  H   -0.167938
    13  H   -0.205961
    14  H    0.474449
    15  H   -0.068932
    16  H   -0.040945
    17  H    0.188105
    18  H    0.178173
    19  H    0.262424
 Sum of Mulliken charges =   0.00000

 Dipole moment (field-independent basis, Debye):
    X=             -0.3156    Y=              0.3981    Z=             -0.1747  Tot=              0.5372

 Test job not archived.
 1\1\GINC-SE192\SP\RHF\Aug-CC-pVDZ\C6H12O1\OHZDE\09-Apr-2025\0\\#t hf a
 ug-cc-pvdz iop(5/13=1,5/36=2,99/5=2) pseudo=read geom=check guess=(rea
 d,tcheck) scf=(maxcycle=1)\\title\\0,1\C,0,-1.93322224,-0.97403275,-0.
 54491617\C,0,-0.89209131,-0.08161233,0.08361134\C,0,-1.34270211,1.0601
 5532,0.82449141\C,0,0.2801613,-0.80942024,0.67887245\O,0,1.21173356,-1
 .47768001,-0.14371167\C,0,1.68046161,-0.39721157,0.66391026\C,0,2.2239
 4772,0.818609,-0.02610361\H,0,-2.67989272,-0.38206616,-1.07268082\H,0,
 -1.48212744,-1.68819511,-1.23348216\H,0,-2.4355206,-1.50842869,0.26519

 Normal termination of Gaussian 16 at Wed Apr  9 18:33:17 2025.
