 Gaussian 16, Revision C.01,

 ----------------------------------------------------------------------
 #t hf aug-cc-pvdz symm=none int=(grid=ultrafine) guess=(read,tcheck) s
 table=(opt,rrhf)
 ----------------------------------------------------------------------
 -----
 title
 -----
 Symbolic Z-matrix:
 Charge =  0 Multiplicity = 1

 SCF Done:  E(RHF) =  -359.540389505     A.U. after   17 cycles
 Normal termination of Gaussian 16 at Wed Apr  9 03:46:32 2025.
 Gaussian 16:  ES64L-G16RevC.01  3-Jul-2019

 ----------------------------------------------------------------------
 #t hf aug-cc-pvdz iop(5/13=1,5/36=2,99/5=2) pseudo=read geom=check gue
 ss=(read,tcheck) scf=(maxcycle=1)
 ----------------------------------------------------------------------
 -----
 title
 -----
 Structure from the checkpoint file:  "Grambow2020_wb97xd3_007895_forward_mol1.chk"
 Charge =  0 Multiplicity = 1

                         Standard orientation:
 ---------------------------------------------------------------------
 Center     Atomic      Atomic             Coordinates (Angstroms)
 Number     Number       Type             X           Y           Z
 ---------------------------------------------------------------------
      1          6           0        1.514439    1.423408    0.032449
      2          6           0        0.385781    0.457195   -0.157251
      3          7           0        0.556797   -0.827922   -0.291420
      4          8           0        1.776773   -1.236215    0.258223
      5          6           0       -0.953507    0.903360   -0.195032
      6          6           0       -1.766873   -0.857403   -0.189689
      7          8           0       -1.935584    0.244503    0.536756
      8          1           0        2.410449    1.092653   -0.490948
      9          1           0        1.220376    2.412298   -0.321941
     10          1           0        1.759601    1.512434    1.092841
     11          1           0        1.912804   -2.100658   -0.135005
     12          1           0       -1.235989    1.896349   -0.525237
     13          1           0       -2.089439   -0.845925   -1.222390
     14          1           0       -1.683934   -1.797364    0.339932
 ---------------------------------------------------------------------

 SCF Done:  E(RHF) =  -359.903401060     A.U. after    2 cycles

 The electronic state is 1-A.
 Alpha  occ. eigenvalues --  -20.61133 -20.57203 -15.54126 -11.35170 -11.28185
 Alpha  occ. eigenvalues --  -11.28036 -11.23429  -1.55336  -1.48899  -1.17800
 Alpha  occ. eigenvalues --   -0.99975  -0.94609  -0.90537  -0.76869  -0.71427
 Alpha  occ. eigenvalues --   -0.70335  -0.68335  -0.67313  -0.62116  -0.60290
 Alpha  occ. eigenvalues --   -0.57694  -0.55256  -0.54344  -0.48151  -0.47287
 Alpha  occ. eigenvalues --   -0.39418  -0.30058
 Alpha virt. eigenvalues --    0.03458   0.04216   0.04418   0.05398   0.05456
 Alpha virt. eigenvalues --    0.06086   0.07280   0.08026   0.09901   0.10989
 Alpha virt. eigenvalues --    0.11658   0.13491   0.14265   0.14969   0.15390

 Mulliken charges:
               1
     1  C   -0.440798
     2  C   -0.896999
     3  N    1.498620
     4  O   -1.225915
     5  C    0.795740
     6  C    0.498278
     7  O   -1.220529
     8  H    0.224010
     9  H    0.150080
    10  H    0.287567
    11  H    0.288394
    12  H   -0.096598
    13  H    0.159553
    14  H   -0.021400
 Sum of Mulliken charges =  -0.00000

 Dipole moment (field-independent basis, Debye):
    X=             -0.6955    Y=             -0.1564    Z=             -0.9443  Tot=              1.1832

 Test job not archived.
 1\1\GINC-SE341\SP\RHF\Aug-CC-pVDZ\C4H7N1O2\OHZDE\09-Apr-2025\0\\#t hf
 aug-cc-pvdz iop(5/13=1,5/36=2,99/5=2) pseudo=read geom=check guess=(re
 ad,tcheck) scf=(maxcycle=1)\\title\\0,1\C,0,-1.45876734,-1.09823057,-0
 .42796619\C,0,-0.28194825,-0.20349899,-0.18718534\N,0,-0.36578792,0.94
 096015,0.43084101\O,0,-1.49460841,0.98909961,1.25582533\C,0,1.0099398,
 -0.56931571,-0.62466088\C,0,1.9526978,0.88086319,0.2528728\O,0,2.10326
 372,-0.44085731,0.22517521\H,0,-2.37153613,-0.5214343,-0.57056888\H,0,
 -1.27545504,-1.72623958,-1.30087502\H,0,-1.61051473,-1.75919331,0.4279

 Normal termination of Gaussian 16 at Wed Apr  9 03:46:37 2025.
