 Gaussian 16, Revision C.01,

 ----------------------------------------------------------------------
 #t hf aug-cc-pvdz symm=none int=(grid=ultrafine) guess=(read,tcheck) s
 table=(opt,rrhf)
 ----------------------------------------------------------------------
 -----
 title
 -----
 Symbolic Z-matrix:
 Charge =  0 Multiplicity = 1

 SCF Done:  E(RHF) =  -247.598289293     A.U. after   16 cycles
 Normal termination of Gaussian 16 at Wed Apr  9 16:53:09 2025.
 Gaussian 16:  ES64L-G16RevC.01  3-Jul-2019

 ----------------------------------------------------------------------
 #t hf aug-cc-pvdz iop(5/13=1,5/36=2,99/5=2) pseudo=read geom=check gue
 ss=(read,tcheck) scf=(maxcycle=1)
 ----------------------------------------------------------------------
 -----
 title
 -----
 Structure from the checkpoint file:  "Grambow2020_wb97xd3_006163_forward_mol1.chk"
 Charge =  0 Multiplicity = 1

                         Standard orientation:
 ---------------------------------------------------------------------
 Center     Atomic      Atomic             Coordinates (Angstroms)
 Number     Number       Type             X           Y           Z
 ---------------------------------------------------------------------
      1          6           0        0.454311    1.547584    0.125898
      2          6           0        0.536911    0.217190   -0.594197
      3          6           0        1.569443   -0.626359    0.061598
      4          6           0        0.114010   -1.087832    0.116526
      5          6           0       -1.136175   -0.548389    0.466740
      6          7           0       -1.967039    0.076065   -0.121073
      7          1           0       -0.484981    2.071379   -0.041994
      8          1           0        1.264867    2.169387   -0.262433
      9          1           0        0.607634    1.449539    1.210341
     10          1           0       -1.009867    0.308548   -1.066235
     11          1           0        2.068985   -0.234885    0.943159
     12          1           0        2.155180   -1.352029   -0.490942
     13          1           0       -0.063539   -1.957553   -0.503773
 ---------------------------------------------------------------------

 SCF Done:  E(RHF) =  -247.857136324     A.U. after    2 cycles

 The electronic state is 1-A.
 Alpha  occ. eigenvalues --  -15.52602 -11.32905 -11.29590 -11.28702 -11.26998
 Alpha  occ. eigenvalues --  -11.23966  -1.28396  -1.17702  -0.99014  -0.93451
 Alpha  occ. eigenvalues --   -0.79008  -0.73130  -0.68218  -0.64693  -0.62857
 Alpha  occ. eigenvalues --   -0.58231  -0.56976  -0.55377  -0.51768  -0.47144
 Alpha  occ. eigenvalues --   -0.41157  -0.33413
 Alpha virt. eigenvalues --    0.03110   0.03265   0.04068   0.04593   0.05580
 Alpha virt. eigenvalues --    0.06787   0.06997   0.07303   0.08976   0.10001
 Alpha virt. eigenvalues --    0.11133   0.12239   0.13244   0.14604   0.14905

 Mulliken charges:
               1
     1  C   -0.247410
     2  C   -0.737481
     3  C    0.130605
     4  C    0.805698
     5  C   -1.870967
     6  N    0.923696
     7  H    0.129389
     8  H    0.151687
     9  H    0.220254
    10  H    0.636131
    11  H   -0.081481
    12  H   -0.043407
    13  H   -0.016713
 Sum of Mulliken charges =  -0.00000

 Dipole moment (field-independent basis, Debye):
    X=              3.4370    Y=             -1.2122    Z=              0.7859  Tot=              3.7282

 Test job not archived.
 1\1\GINC-SE125\SP\RHF\Aug-CC-pVDZ\C5H7N1\OHZDE\09-Apr-2025\0\\#t hf au
 g-cc-pvdz iop(5/13=1,5/36=2,99/5=2) pseudo=read geom=check guess=(read
 ,tcheck) scf=(maxcycle=1)\\title\\0,1\C,0,1.20799577,0.64933757,0.2524
 3375\C,0,0.29802566,-0.46964259,-0.2114046\C,0,-0.3812017,-1.06372864,
 0.9690512\C,0,-1.23552237,-0.34307348,-0.07260708\C,0,-1.24137879,0.89
 603879,-0.73681971\N,0,-0.72226261,1.31065476,-1.72899539\H,0,1.459437
 12,1.35591995,-0.53644942\H,0,2.13348023,0.1826196,0.59897976\H,0,0.78
 721927,1.21044397,1.09933694\H,0,0.09328804,0.21787483,-1.6636759\H,0,

 Normal termination of Gaussian 16 at Wed Apr  9 16:53:14 2025.
