 Gaussian 16, Revision C.01,

 ----------------------------------------------------------------------
 #t hf aug-cc-pvdz symm=none int=(grid=ultrafine) guess=(read,tcheck) s
 table=(opt,rrhf)
 ----------------------------------------------------------------------
 -----
 title
 -----
 Symbolic Z-matrix:
 Charge =  0 Multiplicity = 1

 SCF Done:  E(RHF) =  -271.916447288     A.U. after   16 cycles
 Normal termination of Gaussian 16 at Wed Apr  9 03:39:50 2025.
 Gaussian 16:  ES64L-G16RevC.01  3-Jul-2019

 ----------------------------------------------------------------------
 #t hf aug-cc-pvdz iop(5/13=1,5/36=2,99/5=2) pseudo=read geom=check gue
 ss=(read,tcheck) scf=(maxcycle=1)
 ----------------------------------------------------------------------
 -----
 title
 -----
 Structure from the checkpoint file:  "Grambow2020_wb97xd3_007415_forward_mol1.chk"
 Charge =  0 Multiplicity = 1

                         Standard orientation:
 ---------------------------------------------------------------------
 Center     Atomic      Atomic             Coordinates (Angstroms)
 Number     Number       Type             X           Y           Z
 ---------------------------------------------------------------------
      1          6           0       -1.920849   -0.625366   -1.090727
      2          6           0       -1.599360    0.057191    0.227315
      3          6           0       -0.849493   -0.734209    1.192028
      4          6           0        1.484453    0.003305    0.315393
      5          6           0        2.699650   -0.525207   -0.380534
      6          6           0        0.710287    1.030007   -0.159049
      7          6           0       -0.638651    1.206964    0.129602
      8          1           0       -1.001126   -0.994638   -1.549952
      9          1           0       -2.591644   -1.473089   -0.928353
     10          1           0       -2.394413    0.067791   -1.788474
     11          1           0       -2.513890    0.448614    0.686216
     12          1           0       -0.866138   -0.447565    2.234668
     13          1           0       -0.451284   -1.708882    0.946632
     14          1           0        1.332818   -0.301908    1.338959
     15          1           0        2.886910    0.007629   -1.314420
     16          1           0        2.569635   -1.581325   -0.635571
     17          1           0        3.591797   -0.460943    0.248462
     18          1           0        1.165797    1.753036   -0.840064
     19          1           0       -1.044686    2.215169    0.197724
 ---------------------------------------------------------------------

 SCF Done:  E(RHF) =  -272.213954729     A.U. after    2 cycles

 The electronic state is 1-A.
 Alpha  occ. eigenvalues --  -11.25624 -11.24294 -11.24192 -11.23398 -11.22939
 Alpha  occ. eigenvalues --  -11.22676 -11.22044  -1.12482  -1.05217  -0.97127
 Alpha  occ. eigenvalues --   -0.92365  -0.87182  -0.78049  -0.72566  -0.66898
 Alpha  occ. eigenvalues --   -0.62166  -0.61402  -0.58556  -0.57928  -0.56767
 Alpha  occ. eigenvalues --   -0.53633  -0.52189  -0.50996  -0.49268  -0.48451
 Alpha  occ. eigenvalues --   -0.35463  -0.25078
 Alpha virt. eigenvalues --    0.03328   0.03597   0.03882   0.03959   0.05195
 Alpha virt. eigenvalues --    0.05627   0.05965   0.06288   0.07102   0.07591
 Alpha virt. eigenvalues --    0.09022   0.09224   0.09556   0.12765   0.13303

 Mulliken charges:
               1
     1  C   -0.384260
     2  C   -0.298962
     3  C    0.113148
     4  C    0.038085
     5  C   -0.785180
     6  C    0.819258
     7  C   -0.097912
     8  H    0.249544
     9  H    0.180694
    10  H    0.140319
    11  H    0.106422
    12  H   -0.107919
    13  H   -0.030685
    14  H   -0.058543
    15  H    0.116717
    16  H    0.208115
    17  H    0.186057
    18  H   -0.190788
    19  H   -0.204108
 Sum of Mulliken charges =  -0.00000

 Dipole moment (field-independent basis, Debye):
    X=             -0.1846    Y=             -0.2254    Z=              0.0286  Tot=              0.2928

 Test job not archived.
 1\1\GINC-SE335\SP\RHF\Aug-CC-pVDZ\C7H12\OHZDE\09-Apr-2025\0\\#t hf aug
 -cc-pvdz iop(5/13=1,5/36=2,99/5=2) pseudo=read geom=check guess=(read,
 tcheck) scf=(maxcycle=1)\\title\\0,1\C,0,-2.11339406,-0.79893554,-0.02
 973534\C,0,-1.53734917,0.59896332,0.11353324\C,0,-0.67083093,0.8197911
 2,1.26230028\C,0,1.50935161,0.1177935,0.03196643\C,0,2.55981291,-0.948
 35041,0.01744733\C,0,0.7146581,0.43105227,-1.03989028\C,0,-0.5543328,0
 .99317953,-0.95077851\H,0,-1.30525172,-1.53381378,-0.02894914\H,0,-2.7
 8566393,-1.02232495,0.80280052\H,0,-2.66669746,-0.90343583,-0.96489012

 Normal termination of Gaussian 16 at Wed Apr  9 03:39:56 2025.
