 Gaussian 16, Revision C.01,

 ----------------------------------------------------------------------
 #t hf aug-cc-pvdz symm=none int=(grid=ultrafine) guess=(read,tcheck) s
 table=(opt,rrhf)
 ----------------------------------------------------------------------
 -----
 title
 -----
 Symbolic Z-matrix:
 Charge =  0 Multiplicity = 1

 SCF Done:  E(RHF) =  -323.885373863     A.U. after   15 cycles
 Normal termination of Gaussian 16 at Wed Apr  9 17:54:08 2025.
 Gaussian 16:  ES64L-G16RevC.01  3-Jul-2019

 ----------------------------------------------------------------------
 #t hf aug-cc-pvdz iop(5/13=1,5/36=2,99/5=2) pseudo=read geom=check gue
 ss=(read,tcheck) scf=(maxcycle=1)
 ----------------------------------------------------------------------
 -----
 title
 -----
 Structure from the checkpoint file:  "Grambow2020_wb97xd3_006866_forward_mol2.chk"
 Charge =  0 Multiplicity = 1

                         Standard orientation:
 ---------------------------------------------------------------------
 Center     Atomic      Atomic             Coordinates (Angstroms)
 Number     Number       Type             X           Y           Z
 ---------------------------------------------------------------------
      1          6           0        2.386815   -0.018247   -0.732432
      2          7           0        1.168079    0.433357   -0.089946
      3          6           0        0.935812   -0.021216    1.253686
      4          6           0        0.145545   -0.573071    0.114737
      5          6           0       -1.289659   -0.202974   -0.103100
      6          8           0       -2.114308   -1.074916   -0.232350
      7          6           0       -1.640178    1.259471   -0.155911
      8          1           0        3.196156    0.669794   -0.485042
      9          1           0        2.247339   -0.011787   -1.814058
     10          1           0        2.682237   -1.031389   -0.423534
     11          1           0        1.661032   -0.694125    1.703378
     12          1           0        0.489475    0.695140    1.934121
     13          1           0        0.369716   -1.598401   -0.168770
     14          1           0       -2.718706    1.368796   -0.240367
     15          1           0       -1.278030    1.783199    0.730574
     16          1           0       -1.141325    1.720828   -1.009760
 ---------------------------------------------------------------------

 SCF Done:  E(RHF) =  -324.226772445     A.U. after    2 cycles

 The electronic state is 1-A.
 Alpha  occ. eigenvalues --  -20.53136 -15.51929 -11.33609 -11.28193 -11.27641
 Alpha  occ. eigenvalues --  -11.26958 -11.23708  -1.46995  -1.30498  -1.04064
 Alpha  occ. eigenvalues --   -1.00408  -0.90490  -0.85634  -0.76234  -0.70737
 Alpha  occ. eigenvalues --   -0.69026  -0.63867  -0.61898  -0.60566  -0.59485
 Alpha  occ. eigenvalues --   -0.57028  -0.54595  -0.52137  -0.50666  -0.48381
 Alpha  occ. eigenvalues --   -0.43036  -0.40181
 Alpha virt. eigenvalues --    0.03323   0.04121   0.04243   0.04618   0.05351
 Alpha virt. eigenvalues --    0.05537   0.06753   0.06844   0.09011   0.10373
 Alpha virt. eigenvalues --    0.11333   0.12594   0.12892   0.13613   0.14903

 Mulliken charges:
               1
     1  C   -0.279614
     2  N    0.748913
     3  C    0.345125
     4  C   -0.322256
     5  C    1.008172
     6  O   -1.404342
     7  C   -0.567433
     8  H    0.082221
     9  H    0.081708
    10  H    0.136949
    11  H   -0.103132
    12  H   -0.105426
    13  H   -0.254765
    14  H    0.098940
    15  H    0.225360
    16  H    0.309579
 Sum of Mulliken charges =  -0.00000

 Dipole moment (field-independent basis, Debye):
    X=              2.9130    Y=              1.0503    Z=              0.8111  Tot=              3.2010

 Test job not archived.
 1\1\GINC-SE162\SP\RHF\Aug-CC-pVDZ\C5H9N1O1\OHZDE\09-Apr-2025\0\\#t hf
 aug-cc-pvdz iop(5/13=1,5/36=2,99/5=2) pseudo=read geom=check guess=(re
 ad,tcheck) scf=(maxcycle=1)\\title\\0,1\C,0,1.30368299,0.0002014,-1.83
 014165\N,0,0.72395672,0.2333313,-0.52185287\C,0,1.06557872,-0.70123693
 ,0.51535923\C,0,-0.29389659,-0.70792498,-0.09950202\C,0,-1.49503653,-0
 .19563561,0.63470287\O,0,-2.47554338,-0.89340206,0.72830666\C,0,-1.423
 41859,1.18644608,1.22556668\H,0,2.28021287,0.48361019,-1.87851318\H,0,
 0.66168975,0.44294225,-2.59252958\H,0,1.43065973,-1.06830013,-2.056701

 Normal termination of Gaussian 16 at Wed Apr  9 17:54:14 2025.
