 Gaussian 16, Revision C.01,

 ----------------------------------------------------------------------
 #t hf aug-cc-pvdz symm=none int=(grid=ultrafine) guess=(read,tcheck) s
 table=(opt,rrhf)
 ----------------------------------------------------------------------
 -----
 title
 -----
 Symbolic Z-matrix:
 Charge =  0 Multiplicity = 1

 SCF Done:  E(RHF) =  -359.591974806     A.U. after   15 cycles
 Normal termination of Gaussian 16 at Wed Apr  9 17:25:29 2025.
 Gaussian 16:  ES64L-G16RevC.01  3-Jul-2019

 ----------------------------------------------------------------------
 #t hf aug-cc-pvdz iop(5/13=1,5/36=2,99/5=2) pseudo=read geom=check gue
 ss=(read,tcheck) scf=(maxcycle=1)
 ----------------------------------------------------------------------
 -----
 title
 -----
 Structure from the checkpoint file:  "Grambow2020_wb97xd3_006597_forward_mol1.chk"
 Charge =  0 Multiplicity = 1

                         Standard orientation:
 ---------------------------------------------------------------------
 Center     Atomic      Atomic             Coordinates (Angstroms)
 Number     Number       Type             X           Y           Z
 ---------------------------------------------------------------------
      1          6           0       -2.501572   -0.645211   -0.045408
      2          7           0       -1.813351    0.613750   -0.039503
      3          6           0       -0.602530    0.819628   -0.005187
      4          6           0        0.486241   -1.144898    0.249052
      5          8           0        1.631325   -0.777046   -0.358255
      6          6           0        2.429868    0.097956    0.074527
      7          8           0        0.341147    1.543065    0.006124
      8          1           0       -2.369462   -1.170749   -0.995420
      9          1           0       -2.168790   -1.301860    0.763923
     10          1           0       -3.566818   -0.461466    0.090183
     11          1           0        0.079622   -2.029614   -0.218735
     12          1           0        0.510027   -1.097505    1.334406
     13          1           0        3.214537    0.397324   -0.604289
     14          1           0        2.342527    0.474620    1.085595
 ---------------------------------------------------------------------

 SCF Done:  E(RHF) =  -359.955404583     A.U. after    2 cycles

 The electronic state is 1-A.
 Alpha  occ. eigenvalues --  -20.69044 -20.54478 -15.47194 -11.38370 -11.36940
 Alpha  occ. eigenvalues --  -11.26814 -11.25738  -1.62262  -1.49045  -1.22275
 Alpha  occ. eigenvalues --   -1.04712  -0.96443  -0.87518  -0.77195  -0.74234
 Alpha  occ. eigenvalues --   -0.71435  -0.69135  -0.67386  -0.63082  -0.61759
 Alpha  occ. eigenvalues --   -0.60120  -0.56212  -0.54930  -0.52627  -0.43954
 Alpha  occ. eigenvalues --   -0.39365  -0.29887
 Alpha virt. eigenvalues --    0.02418   0.03714   0.04172   0.04486   0.05747
 Alpha virt. eigenvalues --    0.05934   0.07489   0.07666   0.10113   0.11244
 Alpha virt. eigenvalues --    0.11778   0.12117   0.12866   0.14474   0.14987

 Mulliken charges:
               1
     1  C   -0.339744
     2  N    0.871169
     3  C   -0.117581
     4  C    0.456561
     5  O   -0.884519
     6  C    0.548830
     7  O   -0.993092
     8  H    0.151332
     9  H    0.192166
    10  H    0.014554
    11  H   -0.171101
    12  H    0.094220
    13  H    0.016348
    14  H    0.160857
 Sum of Mulliken charges =  -0.00000

 Dipole moment (field-independent basis, Debye):
    X=              4.2616    Y=             -2.6898    Z=              0.7387  Tot=              5.0933

 Test job not archived.
 1\1\GINC-SE232\SP\RHF\Aug-CC-pVDZ\C4H7N1O2\OHZDE\09-Apr-2025\0\\#t hf
 aug-cc-pvdz iop(5/13=1,5/36=2,99/5=2) pseudo=read geom=check guess=(re
 ad,tcheck) scf=(maxcycle=1)\\title\\0,1\C,0,2.3063497,0.27013764,-0.79
 633767\N,0,1.67642406,-0.93411915,-0.33630854\C,0,0.48734652,-1.127110
 97,-0.09444358\C,0,-0.64544185,0.8184778,-0.29666888\O,0,-1.83685124,0
 .28083345,-0.62352785\C,0,-2.54279811,-0.43072377,0.14193044\O,0,-0.41
 774858,-1.81973619,0.24480466\H,0,2.04335455,0.48949157,-1.8350307\H,0
 ,2.04250601,1.13549256,-0.18111729\H,0,3.38684653,0.14066043,-0.744790

 Normal termination of Gaussian 16 at Wed Apr  9 17:25:33 2025.
