 Gaussian 16, Revision C.01,

 ----------------------------------------------------------------------
 #t hf aug-cc-pvdz symm=none int=(grid=ultrafine) guess=(read,tcheck) s
 table=(opt,rrhf)
 ----------------------------------------------------------------------
 -----
 title
 -----
 Symbolic Z-matrix:
 Charge =  0 Multiplicity = 1

 SCF Done:  E(RHF) =  -283.678730465     A.U. after   14 cycles
 Normal termination of Gaussian 16 at Wed Apr  9 16:29:44 2025.
 Gaussian 16:  ES64L-G16RevC.01  3-Jul-2019

 ----------------------------------------------------------------------
 #t hf aug-cc-pvdz iop(5/13=1,5/36=2,99/5=2) pseudo=read geom=check gue
 ss=(read,tcheck) scf=(maxcycle=1)
 ----------------------------------------------------------------------
 -----
 title
 -----
 Structure from the checkpoint file:  "Grambow2020_wb97xd3_006127_forward_mol2.chk"
 Charge =  0 Multiplicity = 1

                         Standard orientation:
 ---------------------------------------------------------------------
 Center     Atomic      Atomic             Coordinates (Angstroms)
 Number     Number       Type             X           Y           Z
 ---------------------------------------------------------------------
      1          7           0       -2.570353    0.000350   -0.317443
      2          6           0       -1.496934   -0.001841    0.087686
      3          6           0       -0.131363   -0.002279    0.580462
      4          6           0        0.849147   -1.029392   -0.022133
      5          8           0        1.786966    0.002695   -0.339846
      6          6           0        0.844547    1.029933   -0.020383
      7          1           0       -0.138441   -0.002639    1.669124
      8          1           0        0.469845   -1.532302   -0.915777
      9          1           0        1.259616   -1.763688    0.672355
     10          1           0        0.462244    1.530672   -0.913803
     11          1           0        1.251093    1.765425    0.675183
 ---------------------------------------------------------------------

 SCF Done:  E(RHF) =  -283.965264122     A.U. after    2 cycles

 The electronic state is 1-A.
 Alpha  occ. eigenvalues --  -20.56622 -15.52170 -11.32253 -11.32178 -11.30395
 Alpha  occ. eigenvalues --  -11.28848  -1.49983  -1.24652  -1.09042  -0.97326
 Alpha  occ. eigenvalues --   -0.85636  -0.76197  -0.72968  -0.64708  -0.63619
 Alpha  occ. eigenvalues --   -0.60450  -0.60385  -0.55466  -0.54058  -0.48694
 Alpha  occ. eigenvalues --   -0.48509  -0.43905
 Alpha virt. eigenvalues --    0.02823   0.03753   0.04310   0.04971   0.06383
 Alpha virt. eigenvalues --    0.07917   0.10351   0.10566   0.10700   0.12124
 Alpha virt. eigenvalues --    0.13774   0.14410   0.15271   0.15294   0.15314

 Mulliken charges:
               1
     1  N    0.981175
     2  C   -1.764459
     3  C   -0.068307
     4  C    0.911726
     5  O   -1.278139
     6  C    0.909994
     7  H    0.054533
     8  H    0.055367
     9  H    0.070823
    10  H    0.055622
    11  H    0.071664
 Sum of Mulliken charges =  -0.00000

 Dipole moment (field-independent basis, Debye):
    X=              2.8018    Y=             -0.0090    Z=              2.0524  Tot=              3.4732

 Test job not archived.
 1\1\GINC-SE100\SP\RHF\Aug-CC-pVDZ\C4H5N1O1\OHZDE\09-Apr-2025\0\\#t hf
 aug-cc-pvdz iop(5/13=1,5/36=2,99/5=2) pseudo=read geom=check guess=(re
 ad,tcheck) scf=(maxcycle=1)\\title\\0,1\N,0,2.602422,-0.81170263,0.785
 96066\C,0,1.59105086,-0.62624997,0.27694249\C,0,0.30671696,-0.37700926
 ,-0.3523254\C,0,-0.95855643,-0.51345861,0.5194232\O,0,-1.39675002,0.79
 604205,0.14680432\C,0,-0.14910328,1.09025103,-0.48742472\H,0,0.2465396
 5,-0.93250545,-1.28669001\H,0,-0.75228603,-0.59090329,1.59033127\H,0,-
 1.66510809,-1.28853827,0.21938082\H,0,0.4524045,1.79444509,0.0934318\H

 Normal termination of Gaussian 16 at Wed Apr  9 16:29:48 2025.
