 Gaussian 16, Revision C.01,

 ----------------------------------------------------------------------
 #t hf aug-cc-pvdz symm=none int=(grid=ultrafine) guess=(read,tcheck) s
 table=(opt,rrhf)
 ----------------------------------------------------------------------
 -----
 title
 -----
 Symbolic Z-matrix:
 Charge =  0 Multiplicity = 1

 SCF Done:  E(RHF) =  -286.748857762     A.U. after   16 cycles
 Normal termination of Gaussian 16 at Wed Apr  9 19:07:05 2025.
 Gaussian 16:  ES64L-G16RevC.01  3-Jul-2019

 ----------------------------------------------------------------------
 #t hf aug-cc-pvdz iop(5/13=1,5/36=2,99/5=2) pseudo=read geom=check gue
 ss=(read,tcheck) scf=(maxcycle=1)
 ----------------------------------------------------------------------
 -----
 title
 -----
 Structure from the checkpoint file:  "Grambow2020_wb97xd3_008574_reverse_mol1.chk"
 Charge =  0 Multiplicity = 1

                         Standard orientation:
 ---------------------------------------------------------------------
 Center     Atomic      Atomic             Coordinates (Angstroms)
 Number     Number       Type             X           Y           Z
 ---------------------------------------------------------------------
      1          6           0       -1.903992   -0.665202    0.656415
      2          6           0       -1.150825   -0.353835   -0.483748
      3          6           0        0.142551   -0.957925   -0.600230
      4          6           0        0.999986   -0.036146   -0.077780
      5          6           0        2.448108   -0.195813    0.247839
      6          6           0        0.198430    1.106702    0.275387
      7          7           0       -0.952047    1.029007   -0.554523
      8          1           0       -2.777739   -0.068715    0.905858
      9          1           0       -1.943117   -1.690348    1.010601
     10          1           0       -0.735617    0.252435    1.309055
     11          1           0        0.333737   -2.011161   -0.746901
     12          1           0        2.649231    0.100811    1.279232
     13          1           0        3.067878    0.428177   -0.400541
     14          1           0        2.768860   -1.230517    0.123456
     15          1           0        0.635168    2.076831    0.495105
     16          1           0       -1.739619    1.552755   -0.201502
 ---------------------------------------------------------------------

 SCF Done:  E(RHF) =  -287.056689404     A.U. after    2 cycles

 The electronic state is 1-A.
 Alpha  occ. eigenvalues --  -15.51291 -11.27753 -11.27492 -11.25307 -11.24775
 Alpha  occ. eigenvalues --  -11.23820 -11.22669  -1.29463  -1.08621  -1.02822
 Alpha  occ. eigenvalues --   -0.95956  -0.90118  -0.79418  -0.75198  -0.69681
 Alpha  occ. eigenvalues --   -0.66459  -0.62484  -0.59617  -0.58567  -0.57874
 Alpha  occ. eigenvalues --   -0.54046  -0.52343  -0.51772  -0.41975  -0.34997
 Alpha  occ. eigenvalues --   -0.31862
 Alpha virt. eigenvalues --    0.03671   0.03730   0.03975   0.04709   0.05150
 Alpha virt. eigenvalues --    0.05667   0.07510   0.07564   0.07954   0.09083
 Alpha virt. eigenvalues --    0.10814   0.11233   0.11902   0.13237   0.14075

 Mulliken charges:
               1
     1  C    0.213906
     2  C   -1.307101
     3  C    0.390083
     4  C    0.738230
     5  C   -0.611381
     6  C   -1.088572
     7  N    0.575090
     8  H   -0.072132
     9  H   -0.100458
    10  H    0.676350
    11  H   -0.168123
    12  H    0.207860
    13  H    0.266012
    14  H    0.142784
    15  H   -0.217486
    16  H    0.354937
 Sum of Mulliken charges =   0.00000

 Dipole moment (field-independent basis, Debye):
    X=              0.4279    Y=             -0.0892    Z=              1.4055  Tot=              1.4719

 Test job not archived.
 1\1\GINC-SE135\SP\RHF\Aug-CC-pVDZ\C6H9N1\OHZDE\09-Apr-2025\0\\#t hf au
 g-cc-pvdz iop(5/13=1,5/36=2,99/5=2) pseudo=read geom=check guess=(read
 ,tcheck) scf=(maxcycle=1)\\title\\0,1\C,0,2.13754544,-0.2158311,-0.302
 72382\C,0,1.21206827,-0.3907855,0.73509304\C,0,0.01941282,-1.12412956,
 0.43327389\C,0,-0.8958029,-0.16964573,0.10287321\C,0,-2.25261883,-0.35
 180922,-0.49248101\C,0,-0.23734426,1.09897476,0.27709605\N,0,0.8011484
 9,0.85691566,1.21588544\H,0,2.93597278,0.5140722,-0.1968578\H,0,2.3730
 1137,-1.04822656,-0.95814325\H,0,0.93387362,0.74834653,-0.80733619\H,0

 Normal termination of Gaussian 16 at Wed Apr  9 19:07:11 2025.
