 Gaussian 16, Revision C.01,

 ----------------------------------------------------------------------
 #t hf aug-cc-pvdz symm=none int=(grid=ultrafine) guess=(read,tcheck) s
 table=(opt,rrhf)
 ----------------------------------------------------------------------
 -----
 title
 -----
 Symbolic Z-matrix:
 Charge =  0 Multiplicity = 1

 SCF Done:  E(RHF) =  -345.893643844     A.U. after   14 cycles

 1\1\GINC-SE115\Stability\RHF\Aug-CC-pVDZ\C5H12O2\OHZDE\09-Apr-2025\0\\
 #t hf aug-cc-pvdz symm=none int=(grid=ultrafine) guess=(read,tcheck) s
 table=(opt,rrhf)\\title\\0,1\C,0,1.66559365,1.09066271,1.13516646\C,0,
 1.71644124,-0.27513251,1.03177808\C,0,-0.26749177,-1.16095317,0.144791
 84\O,0,-0.81439462,-1.67822347,1.27648009\C,0,-0.91459956,-0.14472568,
 -0.53572958\C,0,-0.74547227,0.00778589,-2.02266914\O,0,-2.20042197,0.1
 1293977,-0.03214351\H,0,2.30614834,1.71125684,0.5179689\H,0,0.40959073
 ,1.5268631,0.3539738\H,0,1.32650664,1.55138199,2.05680057\H,0,2.351140

 Normal termination of Gaussian 16 at Wed Apr  9 18:48:06 2025.
 Gaussian 16:  ES64L-G16RevC.01  3-Jul-2019

 ----------------------------------------------------------------------
 #t hf aug-cc-pvdz iop(5/13=1,5/36=2,99/5=2) pseudo=read geom=check gue
 ss=(read,tcheck) scf=(maxcycle=1)
 ----------------------------------------------------------------------
 -----
 title
 -----
 Structure from the checkpoint file:  "Grambow2020_wb97xd3_008070_forward_mol1.chk"
 Charge =  0 Multiplicity = 1

                         Standard orientation:
 ---------------------------------------------------------------------
 Center     Atomic      Atomic             Coordinates (Angstroms)
 Number     Number       Type             X           Y           Z
 ---------------------------------------------------------------------
      1          6           0       -2.292355   -0.829478    0.641213
      2          6           0       -2.107215    0.005264   -0.430048
      3          6           0        0.136331    0.655350   -0.656557
      4          8           0        0.052722    1.932798   -0.199911
      5          6           0        0.912856   -0.271583    0.016035
      6          6           0        1.548143   -1.416985   -0.723775
      7          8           0        1.684842    0.306020    1.037672
      8          1           0       -2.575352   -1.865043    0.486627
      9          1           0       -0.880200   -1.235360    1.109353
     10          1           0       -2.560490   -0.417618    1.608233
     11          1           0       -2.179113   -0.388278   -1.436527
     12          1           0       -2.216680    1.075037   -0.323552
     13          1           0       -0.071395    0.550597   -1.709827
     14          1           0        0.593764    1.976311    0.598693
     15          1           0       -0.057884   -1.031178    0.850224
     16          1           0        2.482016   -1.102259   -1.196365
     17          1           0        1.768869   -2.251073   -0.053813
     18          1           0        0.872542   -1.781759   -1.499191
     19          1           0        1.736857   -0.295337    1.782838
 ---------------------------------------------------------------------

 SCF Done:  E(RHF) =  -346.262275240     A.U. after    2 cycles

 The electronic state is 1-A.
 Alpha  occ. eigenvalues --  -20.57280 -20.56316 -11.30039 -11.29295 -11.24073
 Alpha  occ. eigenvalues --  -11.23907 -11.22850  -1.49536  -1.46258  -1.06201
 Alpha  occ. eigenvalues --   -1.02657  -0.93593  -0.82966  -0.79236  -0.71539
 Alpha  occ. eigenvalues --   -0.70634  -0.66418  -0.63844  -0.60784  -0.58482
 Alpha  occ. eigenvalues --   -0.57841  -0.56377  -0.55651  -0.54104  -0.52529
 Alpha  occ. eigenvalues --   -0.50316  -0.48819  -0.33551  -0.30164
 Alpha virt. eigenvalues --    0.03095   0.03526   0.04016   0.04535   0.05852
 Alpha virt. eigenvalues --    0.06424   0.06673   0.06915   0.07034   0.09274
 Alpha virt. eigenvalues --    0.09822   0.10779   0.12547   0.13527   0.13955

 Mulliken charges:
               1
     1  C   -0.284015
     2  C   -0.070870
     3  C    1.490376
     4  O   -1.486959
     5  C    0.398865
     6  C   -0.399306
     7  O   -1.411902
     8  H    0.048320
     9  H   -0.255712
    10  H    0.054328
    11  H   -0.046860
    12  H    0.030952
    13  H    0.022690
    14  H    0.361334
    15  H    0.755360
    16  H    0.204314
    17  H    0.126965
    18  H    0.196475
    19  H    0.265644
 Sum of Mulliken charges =   0.00000

 Dipole moment (field-independent basis, Debye):
    X=              0.7304    Y=             -1.8058    Z=              0.4867  Tot=              2.0078

 Test job not archived.
 1\1\GINC-SE115\SP\RHF\Aug-CC-pVDZ\C5H12O2\OHZDE\09-Apr-2025\0\\#t hf a
 ug-cc-pvdz iop(5/13=1,5/36=2,99/5=2) pseudo=read geom=check guess=(rea
 d,tcheck) scf=(maxcycle=1)\\title\\0,1\C,0,1.66559365,1.09066271,1.135
 16646\C,0,1.71644124,-0.27513251,1.03177808\C,0,-0.26749177,-1.1609531
 7,0.14479184\O,0,-0.81439462,-1.67822347,1.27648009\C,0,-0.91459956,-0
 .14472568,-0.53572958\C,0,-0.74547227,0.00778589,-2.02266914\O,0,-2.20
 042197,0.11293977,-0.03214351\H,0,2.30614834,1.71125684,0.5179689\H,0,
 0.40959073,1.5268631,0.3539738\H,0,1.32650664,1.55138199,2.05680057\H,

 Normal termination of Gaussian 16 at Wed Apr  9 18:48:13 2025.
