 Gaussian 16, Revision C.01,

 ----------------------------------------------------------------------
 #t hf aug-cc-pvdz symm=none int=(grid=ultrafine) guess=(read,tcheck) s
 table=(opt,rrhf)
 ----------------------------------------------------------------------
 -----
 title
 -----
 Symbolic Z-matrix:
 Charge =  0 Multiplicity = 1

 SCF Done:  E(RHF) =  -302.695513896     A.U. after   16 cycles
 Normal termination of Gaussian 16 at Wed Apr  9 18:04:23 2025.
 Gaussian 16:  ES64L-G16RevC.01  3-Jul-2019

 ----------------------------------------------------------------------
 #t hf aug-cc-pvdz iop(5/13=1,5/36=2,99/5=2) pseudo=read geom=check gue
 ss=(read,tcheck) scf=(maxcycle=1)
 ----------------------------------------------------------------------
 -----
 title
 -----
 Structure from the checkpoint file:  "Grambow2020_wb97xd3_006958_forward_mol1.chk"
 Charge =  0 Multiplicity = 1

                         Standard orientation:
 ---------------------------------------------------------------------
 Center     Atomic      Atomic             Coordinates (Angstroms)
 Number     Number       Type             X           Y           Z
 ---------------------------------------------------------------------
      1          6           0        0.317854    1.715261    0.090326
      2          6           0        0.646233    0.429560   -0.600552
      3          6           0        2.234556   -0.460893    0.079190
      4          7           0        0.576941   -0.917627    0.520324
      5          6           0       -0.356995   -0.643683   -0.556306
      6          6           0       -1.693191   -0.338379   -0.084324
      7          7           0       -2.761900   -0.088877    0.253652
      8          1           0       -0.163232    2.357607   -0.652239
      9          1           0        1.227174    2.227333    0.412809
     10          1           0       -0.366295    1.645445    0.947142
     11          1           0        2.581115   -0.888813    1.027919
     12          1           0        2.498086   -1.119941   -0.737612
     13          1           0        2.734197    0.502856   -0.033364
     14          1           0        0.262958   -0.496789    1.391832
     15          1           0       -0.370035   -1.393368   -1.344321
 ---------------------------------------------------------------------

 SCF Done:  E(RHF) =  -303.008927376     A.U. after    2 cycles

 The electronic state is 1-A.
 Alpha  occ. eigenvalues --  -15.56754 -15.51762 -11.32297 -11.31942 -11.28560
 Alpha  occ. eigenvalues --  -11.26827 -11.24444  -1.29554  -1.23679  -1.02454
 Alpha  occ. eigenvalues --   -1.00720  -0.94210  -0.84157  -0.75446  -0.67166
 Alpha  occ. eigenvalues --   -0.65213  -0.62814  -0.60789  -0.59633  -0.58952
 Alpha  occ. eigenvalues --   -0.55383  -0.54341  -0.51831  -0.51062  -0.44651
 Alpha  occ. eigenvalues --   -0.32930
 Alpha virt. eigenvalues --    0.03006   0.03849   0.04054   0.04193   0.05907
 Alpha virt. eigenvalues --    0.06283   0.06885   0.07588   0.08528   0.10792
 Alpha virt. eigenvalues --    0.11703   0.12822   0.13182   0.13759   0.14252

 Mulliken charges:
               1
     1  C   -0.289980
     2  C   -0.541605
     3  C   -0.155551
     4  N    0.272865
     5  C    0.673323
     6  C   -2.061816
     7  N    1.082600
     8  H    0.253884
     9  H    0.106966
    10  H    0.155124
    11  H    0.088331
    12  H    0.128836
    13  H    0.197321
    14  H    0.215173
    15  H   -0.125472
 Sum of Mulliken charges =  -0.00000

 Dipole moment (field-independent basis, Debye):
    X=              4.4793    Y=              0.1518    Z=             -0.0438  Tot=              4.4821

 Test job not archived.
 1\1\GINC-SE045\SP\RHF\Aug-CC-pVDZ\C5H8N2\OHZDE\09-Apr-2025\0\\#t hf au
 g-cc-pvdz iop(5/13=1,5/36=2,99/5=2) pseudo=read geom=check guess=(read
 ,tcheck) scf=(maxcycle=1)\\title\\0,1\C,0,-0.52118756,1.4559124,0.1770
 218\C,0,-0.14140278,0.10429635,0.6938114\C,0,-1.27690558,-1.3414753,0.
 06285616\N,0,0.31629574,-0.96173968,-0.62154326\C,0,1.20442889,-0.3936
 4538,0.37590538\C,0,2.17812617,0.52117725,-0.1866002\N,0,2.96117166,1.
 25407195,-0.59687009\H,0,-0.24920586,2.17715873,0.95244754\H,0,-1.6020
 7348,1.53016928,0.03829109\H,0,-0.02708739,1.77811961,-0.74986248\H,0,

 Normal termination of Gaussian 16 at Wed Apr  9 18:04:30 2025.
