 Gaussian 16, Revision C.01,

 ----------------------------------------------------------------------
 #t hf aug-cc-pvdz symm=none int=(grid=ultrafine) guess=(read,tcheck) s
 table=(opt,rrhf)
 ----------------------------------------------------------------------
 -----
 title
 -----
 Symbolic Z-matrix:
 Charge =  0 Multiplicity = 1

 SCF Done:  E(RHF) =  -345.970438951     A.U. after   16 cycles

 1\1\GINC-SE028\Stability\RHF\Aug-CC-pVDZ\C5H12O2\OHZDE\09-Apr-2025\0\\
 #t hf aug-cc-pvdz symm=none int=(grid=ultrafine) guess=(read,tcheck) s
 table=(opt,rrhf)\\title\\0,1\C,0,2.07993867,0.97937012,0.91004118\C,0,
 1.02075123,-0.02975019,1.33344107\C,0,0.33639486,-0.70547551,0.1528890
 7\O,0,-0.63509252,-1.62546649,0.47701795\C,0,-0.54676523,0.17559932,-0
 .64166706\C,0,-0.94480531,-0.20760672,-2.00453367\O,0,-2.40204932,0.03
 543801,0.57557094\H,0,2.86971135,0.50227745,0.32409092\H,0,1.6566795,1
 .78319084,0.29970794\H,0,2.5484584,1.44876998,1.77590497\H,0,1.4638663

 Normal termination of Gaussian 16 at Wed Apr  9 18:49:05 2025.
 Gaussian 16:  ES64L-G16RevC.01  3-Jul-2019

 ----------------------------------------------------------------------
 #t hf aug-cc-pvdz iop(5/13=1,5/36=2,99/5=2) pseudo=read geom=check gue
 ss=(read,tcheck) scf=(maxcycle=1)
 ----------------------------------------------------------------------
 -----
 title
 -----
 Structure from the checkpoint file:  "Grambow2020_wb97xd3_008083_forward_mol1.chk"
 Charge =  0 Multiplicity = 1

                         Standard orientation:
 ---------------------------------------------------------------------
 Center     Atomic      Atomic             Coordinates (Angstroms)
 Number     Number       Type             X           Y           Z
 ---------------------------------------------------------------------
      1          6           0       -2.592586    0.424759   -0.508370
      2          6           0       -1.626237   -0.605589    0.060857
      3          6           0       -0.373038    0.019726    0.658455
      4          8           0        0.539629   -0.866608    1.184460
      5          6           0        0.550754    0.623763   -0.326091
      6          6           0        1.567552    1.593170    0.108722
      7          8           0        1.685920   -1.190022   -0.930220
      8          1           0       -2.930143    1.120381    0.264198
      9          1           0       -2.134288    1.016352   -1.306971
     10          1           0       -3.476741   -0.053025   -0.932115
     11          1           0       -2.102894   -1.183763    0.855340
     12          1           0       -1.321461   -1.322691   -0.707320
     13          1           0       -0.672771    0.795747    1.390442
     14          1           0        1.282548   -1.327608    0.019931
     15          1           0        0.376891    0.529172   -1.391378
     16          1           0        1.802885    1.474047    1.163789
     17          1           0        2.470801    1.564267   -0.498400
     18          1           0        1.110687    2.581475   -0.044244
     19          1           0        2.631420   -1.076286   -0.808635
 ---------------------------------------------------------------------

 SCF Done:  E(RHF) =  -346.338106989     A.U. after    2 cycles

 The electronic state is 1-A.
 Alpha  occ. eigenvalues --  -20.52697 -20.45019 -11.37280 -11.27944 -11.27535
 Alpha  occ. eigenvalues --  -11.23111 -11.22237  -1.41580  -1.34778  -1.10265
 Alpha  occ. eigenvalues --   -1.04875  -0.93400  -0.85971  -0.79742  -0.70082
 Alpha  occ. eigenvalues --   -0.67394  -0.65193  -0.62322  -0.59571  -0.58895
 Alpha  occ. eigenvalues --   -0.58266  -0.56874  -0.54338  -0.50398  -0.49522
 Alpha  occ. eigenvalues --   -0.48472  -0.46918  -0.36537  -0.35757
 Alpha virt. eigenvalues --    0.02426   0.03310   0.03459   0.04554   0.05380
 Alpha virt. eigenvalues --    0.05772   0.06220   0.06321   0.07322   0.07662
 Alpha virt. eigenvalues --    0.09054   0.09391   0.10809   0.12024   0.13698

 Mulliken charges:
               1
     1  C   -0.301603
     2  C   -0.400972
     3  C    1.250604
     4  O   -1.744195
     5  C    0.013612
     6  C   -0.434633
     7  O   -1.062117
     8  H    0.185508
     9  H    0.139838
    10  H    0.109813
    11  H    0.196092
    12  H    0.173383
    13  H    0.111316
    14  H    0.806915
    15  H   -0.105972
    16  H    0.208307
    17  H    0.147543
    18  H    0.314241
    19  H    0.392320
 Sum of Mulliken charges =   0.00000

 Dipole moment (field-independent basis, Debye):
    X=              0.3714    Y=              4.6371    Z=             -2.0073  Tot=              5.0666

 Test job not archived.
 1\1\GINC-SE028\SP\RHF\Aug-CC-pVDZ\C5H12O2\OHZDE\09-Apr-2025\0\\#t hf a
 ug-cc-pvdz iop(5/13=1,5/36=2,99/5=2) pseudo=read geom=check guess=(rea
 d,tcheck) scf=(maxcycle=1)\\title\\0,1\C,0,2.07993867,0.97937012,0.910
 04118\C,0,1.02075123,-0.02975019,1.33344107\C,0,0.33639486,-0.70547551
 ,0.15288907\O,0,-0.63509252,-1.62546649,0.47701795\C,0,-0.54676523,0.1
 7559932,-0.64166706\C,0,-0.94480531,-0.20760672,-2.00453367\O,0,-2.402
 04932,0.03543801,0.57557094\H,0,2.86971135,0.50227745,0.32409092\H,0,1
 .6566795,1.78319084,0.29970794\H,0,2.5484584,1.44876998,1.77590497\H,0

 Normal termination of Gaussian 16 at Wed Apr  9 18:49:12 2025.
