 Gaussian 16, Revision C.01,

 ----------------------------------------------------------------------
 #t hf aug-cc-pvdz symm=none int=(grid=ultrafine) guess=(read,tcheck) s
 table=(opt,rrhf)
 ----------------------------------------------------------------------
 -----
 title
 -----
 Symbolic Z-matrix:
 Charge =  0 Multiplicity = 1

 SCF Done:  E(RHF) =  -323.714829897     A.U. after   15 cycles
 Normal termination of Gaussian 16 at Wed Apr  9 03:53:48 2025.
 Gaussian 16:  ES64L-G16RevC.01  3-Jul-2019

 ----------------------------------------------------------------------
 #t hf aug-cc-pvdz iop(5/13=1,5/36=2,99/5=2) pseudo=read geom=check gue
 ss=(read,tcheck) scf=(maxcycle=1)
 ----------------------------------------------------------------------
 -----
 title
 -----
 Structure from the checkpoint file:  "Grambow2020_wb97xd3_008324_reverse_mol1.chk"
 Charge =  0 Multiplicity = 1

                         Standard orientation:
 ---------------------------------------------------------------------
 Center     Atomic      Atomic             Coordinates (Angstroms)
 Number     Number       Type             X           Y           Z
 ---------------------------------------------------------------------
      1          7           0        1.916461   -0.740531   -0.489014
      2          6           0        0.794171   -0.234621   -0.014855
      3          6           0        0.947596    1.087512    0.765075
      4          6           0       -0.088314    0.916585   -0.634659
      5          6           0       -1.530676    0.671524   -0.300804
      6          6           0       -1.500582   -0.820933    0.067091
      7          8           0       -0.227297   -1.070166    0.605088
      8          1           0        1.702350   -1.568590   -1.034867
      9          1           0        0.451736    1.123580    1.727260
     10          1           0        1.927256    1.522867    0.620828
     11          1           0        0.288220    1.382898   -1.534070
     12          1           0        0.270123    1.914201    0.165581
     13          1           0       -1.889548    1.282144    0.531819
     14          1           0       -2.160270    0.886551   -1.164408
     15          1           0       -1.665607   -1.433010   -0.829992
     16          1           0       -2.254273   -1.086007    0.809155
 ---------------------------------------------------------------------

 SCF Done:  E(RHF) =  -324.052196166     A.U. after    2 cycles

 The electronic state is 1-A.
 Alpha  occ. eigenvalues --  -20.54082 -15.37059 -11.33890 -11.32835 -11.31278
 Alpha  occ. eigenvalues --  -11.29757 -11.27915  -1.46816  -1.19947  -1.10725
 Alpha  occ. eigenvalues --   -1.03563  -0.91248  -0.84815  -0.81717  -0.71525
 Alpha  occ. eigenvalues --   -0.69751  -0.66220  -0.63576  -0.61249  -0.59938
 Alpha  occ. eigenvalues --   -0.58030  -0.54971  -0.52676  -0.49019  -0.42619
 Alpha  occ. eigenvalues --   -0.38790  -0.30240
 Alpha virt. eigenvalues --    0.01908   0.02836   0.03074   0.04394   0.05547
 Alpha virt. eigenvalues --    0.05783   0.06362   0.07260   0.08602   0.10526
 Alpha virt. eigenvalues --    0.11315   0.12345   0.12900   0.13537   0.13690

 Mulliken charges:
               1
     1  N    0.644625
     2  C    0.308509
     3  C   -0.403083
     4  C   -0.500471
     5  C   -0.147148
     6  C    0.510551
     7  O   -1.597478
     8  H    0.191274
     9  H    0.156107
    10  H    0.139487
    11  H   -0.072349
    12  H    0.345086
    13  H    0.126191
    14  H    0.139258
    15  H    0.143757
    16  H    0.015686
 Sum of Mulliken charges =  -0.00000

 Dipole moment (field-independent basis, Debye):
    X=             -5.8214    Y=              5.4578    Z=              0.1246  Tot=              7.9808

 Test job not archived.
 1\1\GINC-SE207\SP\RHF\Aug-CC-pVDZ\C5H9N1O1\OHZDE\09-Apr-2025\0\\#t hf
 aug-cc-pvdz iop(5/13=1,5/36=2,99/5=2) pseudo=read geom=check guess=(re
 ad,tcheck) scf=(maxcycle=1)\\title\\0,1\N,0,2.17941723,0.31211034,0.78
 327453\C,0,1.04528847,0.14460088,0.13058758\C,0,0.89491527,-1.21249866
 ,-0.58741974\C,0,-0.24265063,-0.63090193,0.60810177\C,0,-1.46104625,0.
 02267188,0.0247711\C,0,-0.90252671,1.40279737,-0.35862016\O,0,0.452745
 73,1.20801863,-0.67184504\H,0,2.15408522,1.20257169,1.26898817\H,0,0.5
 7286741,-1.16241566,-1.62025839\H,0,1.65057311,-1.91736944,-0.26771423

 Normal termination of Gaussian 16 at Wed Apr  9 03:53:54 2025.
