 Gaussian 16, Revision C.01,

 ----------------------------------------------------------------------
 #t hf aug-cc-pvdz symm=none int=(grid=ultrafine) guess=(read,tcheck) s
 table=(opt,rrhf)
 ----------------------------------------------------------------------
 -----
 title
 -----
 Symbolic Z-matrix:
 Charge =  0 Multiplicity = 1

 SCF Done:  E(RHF) =  -302.299870765     A.U. after   15 cycles
 Normal termination of Gaussian 16 at Wed Apr  9 15:43:35 2025.
 Gaussian 16:  ES64L-G16RevC.01  3-Jul-2019

 ----------------------------------------------------------------------
 #t hf aug-cc-pvdz iop(5/13=1,5/36=2,99/5=2) pseudo=read geom=check gue
 ss=(read,tcheck) scf=(maxcycle=1)
 ----------------------------------------------------------------------
 -----
 title
 -----
 Structure from the checkpoint file:  "Grambow2020_b97d3_006718_reverse_mol2.chk"
 Charge =  0 Multiplicity = 1

                         Standard orientation:
 ---------------------------------------------------------------------
 Center     Atomic      Atomic             Coordinates (Angstroms)
 Number     Number       Type             X           Y           Z
 ---------------------------------------------------------------------
      1          8           0       -3.106234   -0.021078    0.001596
      2          6           0       -1.925371    0.021020    0.000029
      3          6           0       -0.630260   -0.205119   -0.001819
      4          6           0        0.566586    0.411171   -0.002028
      5          6           0        1.825461   -0.382067   -0.000630
      6          8           0        2.932805    0.135475    0.002157
      7          1           0        0.693674    1.500694   -0.001908
      8          1           0        1.675266   -1.485895   -0.001422
 ---------------------------------------------------------------------

 SCF Done:  E(RHF) =  -302.589157248     A.U. after    2 cycles

 The electronic state is 1-A.
 Alpha  occ. eigenvalues --  -20.64789 -20.57932 -11.43455 -11.37151 -11.33348
 Alpha  occ. eigenvalues --  -11.29008  -1.56946  -1.49405  -1.13121  -1.00674
 Alpha  occ. eigenvalues --   -0.84604  -0.77565  -0.74352  -0.68133  -0.64799
 Alpha  occ. eigenvalues --   -0.64484  -0.63496  -0.56065  -0.46093  -0.43149
 Alpha  occ. eigenvalues --   -0.39391
 Alpha virt. eigenvalues --   -0.01600   0.03004   0.04111   0.06334   0.08399
 Alpha virt. eigenvalues --    0.08931   0.09698   0.10035   0.11702   0.12723
 Alpha virt. eigenvalues --    0.13128   0.13334   0.15097   0.16006   0.16413

 Mulliken charges:
               1
     1  O   -0.842370
     2  C    0.145428
     3  C    0.735560
     4  C    0.321420
     5  C    0.772807
     6  O   -1.136105
     7  H   -0.119426
     8  H    0.122686
 Sum of Mulliken charges =  -0.00000

 Dipole moment (field-independent basis, Debye):
    X=             -1.0298    Y=              0.3019    Z=             -0.0062  Tot=              1.0731

 Test job not archived.
 1\1\GINC-SE232\SP\RHF\Aug-CC-pVDZ\C4H2O2\OHZDE\09-Apr-2025\0\\#t hf au
 g-cc-pvdz iop(5/13=1,5/36=2,99/5=2) pseudo=read geom=check guess=(read
 ,tcheck) scf=(maxcycle=1)\\title\\0,1\O,0,-3.26892751,0.57864652,0.315
 04608\C,0,-2.12011293,0.33787976,0.17914244\C,0,-0.81733842,0.34131701
 ,0.00244771\C,0,0.25668767,-0.46628656,-0.07816033\C,0,1.61269988,0.10
 006962,-0.31154283\O,0,2.61428271,-0.59565265,-0.39443641\H,0,0.209771
 26,-1.55800317,0.01757391\H,0,1.63935134,1.20979648,-0.40529857\\Versi
 on=ES64L-G16RevC.01\State=1-A\HF=-302.5891572\RMSD=1.987e-02\Dipole=-0

 Normal termination of Gaussian 16 at Wed Apr  9 15:43:37 2025.
