 Gaussian 16, Revision C.01,

 ----------------------------------------------------------------------
 #t hf aug-cc-pvdz symm=none int=(grid=ultrafine) guess=(read,tcheck) s
 table=(opt,rrhf)
 ----------------------------------------------------------------------
 -----
 title
 -----
 Symbolic Z-matrix:
 Charge =  0 Multiplicity = 1

 SCF Done:  E(RHF) =  -317.660584185     A.U. after   15 cycles
 Normal termination of Gaussian 16 at Wed Apr  9 18:47:24 2025.
 Gaussian 16:  ES64L-G16RevC.01  3-Jul-2019

 ----------------------------------------------------------------------
 #t hf aug-cc-pvdz iop(5/13=1,5/36=2,99/5=2) pseudo=read geom=check gue
 ss=(read,tcheck) scf=(maxcycle=1)
 ----------------------------------------------------------------------
 -----
 title
 -----
 Structure from the checkpoint file:  "Grambow2020_wb97xd3_008059_reverse_mol1.chk"
 Charge =  0 Multiplicity = 1

                         Standard orientation:
 ---------------------------------------------------------------------
 Center     Atomic      Atomic             Coordinates (Angstroms)
 Number     Number       Type             X           Y           Z
 ---------------------------------------------------------------------
      1          7           0       -2.649890    0.350052   -0.067516
      2          6           0       -2.182719   -0.563342   -0.622108
      3          6           0        0.032048   -0.606621    0.621333
      4          6           0        1.279445   -1.076872   -0.019762
      5          7           0        1.935662    0.123839   -0.502645
      6          6           0        1.193606    1.090318   -0.168627
      7          7           0        0.042439    0.688853    0.550801
      8          1           0       -0.730270   -1.162442    1.139615
      9          1           0        1.919386   -1.632183    0.673194
     10          1           0        1.041672   -1.751042   -0.848471
     11          1           0        1.365462    2.136299   -0.380831
     12          1           0       -0.828013    1.209266    0.687006
 ---------------------------------------------------------------------

 SCF Done:  E(RHF) =  -317.979158653     A.U. after    2 cycles

 The electronic state is 1-A.
 Alpha  occ. eigenvalues --  -15.63415 -15.56367 -15.41294 -11.41149 -11.38529
 Alpha  occ. eigenvalues --  -11.34003 -11.16274  -1.42761  -1.26915  -1.13835
 Alpha  occ. eigenvalues --   -1.10583  -0.94483  -0.91695  -0.86473  -0.73809
 Alpha  occ. eigenvalues --   -0.72718  -0.70403  -0.64771  -0.61688  -0.56349
 Alpha  occ. eigenvalues --   -0.55604  -0.51218  -0.42285  -0.42119  -0.39850
 Alpha virt. eigenvalues --    0.00487   0.01706   0.03185   0.04275   0.05156
 Alpha virt. eigenvalues --    0.05416   0.06676   0.07610   0.09352   0.10607
 Alpha virt. eigenvalues --    0.11264   0.11707   0.12412   0.13328   0.14033

 Mulliken charges:
               1
     1  N    0.231036
     2  C   -1.152901
     3  C   -0.604449
     4  C   -0.222210
     5  N    0.634002
     6  C   -0.433754
     7  N    0.893511
     8  H    0.057548
     9  H    0.183064
    10  H    0.253482
    11  H   -0.009081
    12  H    0.169753
 Sum of Mulliken charges =   0.00000

 Dipole moment (field-independent basis, Debye):
    X=              7.7416    Y=             -0.1841    Z=              3.5407  Tot=              8.5148

 Test job not archived.
 1\1\GINC-SE035\SP\RHF\Aug-CC-pVDZ\C4H5N3\OHZDE\09-Apr-2025\0\\#t hf au
 g-cc-pvdz iop(5/13=1,5/36=2,99/5=2) pseudo=read geom=check guess=(read
 ,tcheck) scf=(maxcycle=1)\\title\\0,1\N,0,2.64798898,0.25458846,1.1343
 6397\C,0,2.18505031,-0.80752431,1.00127248\C,0,0.35879767,-0.16741676,
 -0.64441184\C,0,-0.93340676,-0.88549502,-0.69644942\N,0,-1.83769082,-0
 .10246569,0.12491461\C,0,-1.17023345,0.88648051,0.5405868\N,0,0.162308
 59,0.9022529,0.06307374\H,0,1.28922809,-0.38279548,-1.14099433\H,0,-1.
 30994928,-0.99045936,-1.71884019\H,0,-0.81536987,-1.8955435,-0.2918893

 Normal termination of Gaussian 16 at Wed Apr  9 18:47:28 2025.
