 Gaussian 16, Revision C.01,

 ----------------------------------------------------------------------
 #t hf aug-cc-pvdz symm=none int=(grid=ultrafine) guess=(read,tcheck) s
 table=(opt,rrhf)
 ----------------------------------------------------------------------
 -----
 title
 -----
 Symbolic Z-matrix:
 Charge =  0 Multiplicity = 1

 SCF Done:  E(RHF) =  -308.815419542     A.U. after   18 cycles

 1\1\GINC-SE029\Stability\RHF\Aug-CC-pVDZ\C6H12O1\OHZDE\09-Apr-2025\0\\
 #t hf aug-cc-pvdz symm=none int=(grid=ultrafine) guess=(read,tcheck) s
 table=(opt,rrhf)\\title\\0,1\C,0,1.99503622,0.28012413,-0.64887166\C,0
 ,0.77376258,-0.32255599,0.76447901\O,0,1.3441791,-0.27081241,1.9886043
 1\C,0,-0.23078204,0.725059,0.34725313\C,0,0.16229156,0.81538547,-1.081
 53604\C,0,-1.63458765,0.40141248,0.41834755\C,0,-2.24549696,-0.8625226
 8,-0.10790211\H,0,2.17322437,0.45109397,-1.72371116\H,0,2.57079597,-0.
 63932696,-0.47294114\H,0,2.46354189,1.10033785,-0.10733587\H,0,0.53454

 Normal termination of Gaussian 16 at Wed Apr  9 18:27:57 2025.
 Gaussian 16:  ES64L-G16RevC.01  3-Jul-2019

 ----------------------------------------------------------------------
 #t hf aug-cc-pvdz iop(5/13=1,5/36=2,99/5=2) pseudo=read geom=check gue
 ss=(read,tcheck) scf=(maxcycle=1)
 ----------------------------------------------------------------------
 -----
 title
 -----
 Structure from the checkpoint file:  "Grambow2020_wb97xd3_007583_forward_mol1.chk"
 Charge =  0 Multiplicity = 1

                         Standard orientation:
 ---------------------------------------------------------------------
 Center     Atomic      Atomic             Coordinates (Angstroms)
 Number     Number       Type             X           Y           Z
 ---------------------------------------------------------------------
      1          6           0        1.829690    1.026208   -0.375526
      2          6           0        0.730615   -0.594920   -0.247961
      3          8           0        1.443787   -1.663731    0.171043
      4          6           0       -0.208724    0.112909    0.699302
      5          6           0        0.019963    1.494424    0.206127
      6          6           0       -1.619228   -0.177162    0.616796
      7          6           0       -2.408742   -0.213459   -0.657186
      8          1           0        1.895689    2.095858   -0.635823
      9          1           0        2.329389    0.558316   -1.235305
     10          1           0        2.436848    0.870375    0.514746
     11          1           0        0.355174   -0.680143   -1.270566
     12          1           0        1.628740   -2.266479   -0.551934
     13          1           0        0.176306   -0.003565    1.714009
     14          1           0       -0.463134    1.737597   -0.735434
     15          1           0        0.056468    2.330795    0.902340
     16          1           0       -2.127021   -0.544904    1.502619
     17          1           0       -1.868344    0.223463   -1.501937
     18          1           0       -3.351616    0.335426   -0.565164
     19          1           0       -2.680239   -1.234891   -0.955210
 ---------------------------------------------------------------------

 SCF Done:  E(RHF) =  -309.146091147     A.U. after    2 cycles

 The electronic state is 1-A.
 Alpha  occ. eigenvalues --  -20.59958 -11.33965 -11.27307 -11.24117 -11.23710
 Alpha  occ. eigenvalues --  -11.21333 -11.19912  -1.51489  -1.11887  -0.98922
 Alpha  occ. eigenvalues --   -0.92702  -0.91150  -0.83669  -0.76670  -0.74704
 Alpha  occ. eigenvalues --   -0.65752  -0.62559  -0.61761  -0.57581  -0.56813
 Alpha  occ. eigenvalues --   -0.54927  -0.54032  -0.52843  -0.52044  -0.50200
 Alpha  occ. eigenvalues --   -0.47460  -0.38085  -0.21187
 Alpha virt. eigenvalues --    0.02385   0.03447   0.03879   0.04308   0.05714
 Alpha virt. eigenvalues --    0.06009   0.06237   0.06285   0.06637   0.08393
 Alpha virt. eigenvalues --    0.09048   0.09529   0.09846   0.12688   0.12810

 Mulliken charges:
               1
     1  C   -0.419765
     2  C    1.026438
     3  O   -1.328003
     4  C    0.192150
     5  C   -0.014529
     6  C    0.240501
     7  C   -0.559963
     8  H    0.020323
     9  H    0.128270
    10  H    0.177628
    11  H    0.041594
    12  H    0.289868
    13  H    0.024219
    14  H    0.099356
    15  H   -0.063083
    16  H   -0.243261
    17  H    0.015627
    18  H    0.159179
    19  H    0.213451
 Sum of Mulliken charges =   0.00000

 Dipole moment (field-independent basis, Debye):
    X=              2.0330    Y=             -0.5327    Z=             -2.1537  Tot=              3.0092

 Test job not archived.
 1\1\GINC-SE029\SP\RHF\Aug-CC-pVDZ\C6H12O1\OHZDE\09-Apr-2025\0\\#t hf a
 ug-cc-pvdz iop(5/13=1,5/36=2,99/5=2) pseudo=read geom=check guess=(rea
 d,tcheck) scf=(maxcycle=1)\\title\\0,1\C,0,1.99503622,0.28012413,-0.64
 887166\C,0,0.77376258,-0.32255599,0.76447901\O,0,1.3441791,-0.27081241
 ,1.98860431\C,0,-0.23078204,0.725059,0.34725313\C,0,0.16229156,0.81538
 547,-1.08153604\C,0,-1.63458765,0.40141248,0.41834755\C,0,-2.24549696,
 -0.86252268,-0.10790211\H,0,2.17322437,0.45109397,-1.72371116\H,0,2.57
 079597,-0.63932696,-0.47294114\H,0,2.46354189,1.10033785,-0.10733587\H

 Normal termination of Gaussian 16 at Wed Apr  9 18:28:05 2025.
