 Gaussian 16, Revision C.01,

 ----------------------------------------------------------------------
 #t hf aug-cc-pvdz symm=none int=(grid=ultrafine) guess=(read,tcheck) s
 table=(opt,rrhf)
 ----------------------------------------------------------------------
 -----
 title
 -----
 Symbolic Z-matrix:
 Charge =  0 Multiplicity = 1

 SCF Done:  E(RHF) =  -344.875908218     A.U. after   12 cycles

 1\1\GINC-SE402\Stability\RHF\Aug-CC-pVDZ\C5H10O2\OHZDE\09-Apr-2025\0\\
 #t hf aug-cc-pvdz symm=none int=(grid=ultrafine) guess=(read,tcheck) s
 table=(opt,rrhf)\\title\\0,1\C,0,2.05008903,1.10072918,-0.44047\O,0,0.
 65597902,0.94289008,-0.36306651\C,0,0.25508317,-0.3887067,-0.46696104\
 C,0,0.39094478,-1.27584537,0.77919583\O,0,-1.01711923,-1.53853925,0.78
 685614\C,0,-1.25612295,-0.61127945,-0.29271429\C,0,-2.08510535,0.57580
 939,0.12924736\H,0,2.56260396,0.58562573,0.38169336\H,0,2.44243953,0.7
 1663358,-1.39106258\H,0,2.26151893,2.16665128,-0.37235271\H,0,0.666266

 Normal termination of Gaussian 16 at Wed Apr  9 03:27:30 2025.
 Gaussian 16:  ES64L-G16RevC.01  3-Jul-2019

 ----------------------------------------------------------------------
 #t hf aug-cc-pvdz iop(5/13=1,5/36=2,99/5=2) pseudo=read geom=check gue
 ss=(read,tcheck) scf=(maxcycle=1)
 ----------------------------------------------------------------------
 -----
 title
 -----
 Structure from the checkpoint file:  "Grambow2020_wb97xd3_006653_forward_mol2.chk"
 Charge =  0 Multiplicity = 1

                         Standard orientation:
 ---------------------------------------------------------------------
 Center     Atomic      Atomic             Coordinates (Angstroms)
 Number     Number       Type             X           Y           Z
 ---------------------------------------------------------------------
      1          6           0        2.511571   -0.180973   -0.101526
      2          8           0        1.191964   -0.662669   -0.069080
      3          6           0        0.304267    0.229715    0.531175
      4          6           0       -0.186787    1.420947   -0.304415
      5          8           0       -1.548576    0.998268   -0.168090
      6          6           0       -1.165213   -0.221267    0.501367
      7          6           0       -1.492799   -1.455891   -0.300404
      8          1           0        2.592520    0.739857   -0.692690
      9          1           0        2.887416    0.019961    0.910137
     10          1           0        3.127805   -0.950082   -0.564408
     11          1           0        0.661293    0.507510    1.530162
     12          1           0        0.151469    1.390738   -1.345932
     13          1           0       -0.024740    2.420240    0.107434
     14          1           0       -1.630690   -0.270459    1.490813
     15          1           0       -1.141132   -2.350852    0.215796
     16          1           0       -2.574023   -1.528176   -0.428275
     17          1           0       -1.023264   -1.418714   -1.282862
 ---------------------------------------------------------------------

 SCF Done:  E(RHF) =  -345.236407654     A.U. after    2 cycles

 The electronic state is 1-A.
 Alpha  occ. eigenvalues --  -20.55379 -20.53354 -11.29018 -11.28929 -11.28550
 Alpha  occ. eigenvalues --  -11.28249 -11.21895  -1.48628  -1.45729  -1.04015
 Alpha  occ. eigenvalues --   -0.99581  -0.93007  -0.87908  -0.75956  -0.71969
 Alpha  occ. eigenvalues --   -0.68471  -0.66193  -0.63268  -0.59888  -0.59170
 Alpha  occ. eigenvalues --   -0.57030  -0.54520  -0.53450  -0.50638  -0.48661
 Alpha  occ. eigenvalues --   -0.45308  -0.41701  -0.40461
 Alpha virt. eigenvalues --    0.03311   0.03733   0.04165   0.04560   0.06073
 Alpha virt. eigenvalues --    0.06217   0.06667   0.06842   0.07825   0.09375
 Alpha virt. eigenvalues --    0.11694   0.12538   0.13250   0.14311   0.14768

 Mulliken charges:
               1
     1  C    0.066806
     2  O   -1.519281
     3  C    0.749357
     4  C    0.540680
     5  O   -1.460358
     6  C    0.925950
     7  C   -0.425494
     8  H    0.186518
     9  H    0.182848
    10  H   -0.036528
    11  H    0.089331
    12  H    0.069858
    13  H    0.023332
    14  H    0.021870
    15  H    0.222332
    16  H    0.165952
    17  H    0.196828
 Sum of Mulliken charges =  -0.00000

 Dipole moment (field-independent basis, Debye):
    X=              2.1853    Y=              0.1218    Z=              0.8721  Tot=              2.3560

 Test job not archived.
 1\1\GINC-SE402\SP\RHF\Aug-CC-pVDZ\C5H10O2\OHZDE\09-Apr-2025\0\\#t hf a
 ug-cc-pvdz iop(5/13=1,5/36=2,99/5=2) pseudo=read geom=check guess=(rea
 d,tcheck) scf=(maxcycle=1)\\title\\0,1\C,0,2.05008903,1.10072918,-0.44
 047\O,0,0.65597902,0.94289008,-0.36306651\C,0,0.25508317,-0.3887067,-0
 .46696104\C,0,0.39094478,-1.27584537,0.77919583\O,0,-1.01711923,-1.538
 53925,0.78685614\C,0,-1.25612295,-0.61127945,-0.29271429\C,0,-2.085105
 35,0.57580939,0.12924736\H,0,2.56260396,0.58562573,0.38169336\H,0,2.44
 243953,0.71663358,-1.39106258\H,0,2.26151893,2.16665128,-0.37235271\H,

 Normal termination of Gaussian 16 at Wed Apr  9 03:27:36 2025.
