 Gaussian 16, Revision C.01,

 ----------------------------------------------------------------------
 #t hf aug-cc-pvdz symm=none int=(grid=ultrafine) guess=(read,tcheck) s
 table=(opt,rrhf)
 ----------------------------------------------------------------------
 -----
 title
 -----
 Symbolic Z-matrix:
 Charge =  0 Multiplicity = 1

 SCF Done:  E(RHF) =  -344.821373923     A.U. after   14 cycles

 1\1\GINC-SE341\Stability\RHF\Aug-CC-pVDZ\C5H10O2\OHZDE\09-Apr-2025\0\\
 #t hf aug-cc-pvdz symm=none int=(grid=ultrafine) guess=(read,tcheck) s
 table=(opt,rrhf)\\title\\0,1\C,0,1.42644784,2.18369473,0.30569799\O,0,
 0.48883114,1.22917769,-0.11472517\C,0,-0.31188859,-1.74784787,-1.01243
 743\C,0,0.13877671,-1.91580089,0.41074562\O,0,-0.62095118,-3.16931242,
 0.44818731\C,0,-0.96081139,-2.89925132,-0.85770538\C,0,-0.8351264,1.66
 169813,0.05706695\H,0,1.30715121,2.41908042,1.37179366\H,0,2.41866977,
 1.76397757,0.14476809\H,0,1.33687748,3.1161995,-0.26725474\H,0,-0.1510

 Normal termination of Gaussian 16 at Wed Apr  9 03:27:26 2025.
 Gaussian 16:  ES64L-G16RevC.01  3-Jul-2019

 ----------------------------------------------------------------------
 #t hf aug-cc-pvdz iop(5/13=1,5/36=2,99/5=2) pseudo=read geom=check gue
 ss=(read,tcheck) scf=(maxcycle=1)
 ----------------------------------------------------------------------
 -----
 title
 -----
 Structure from the checkpoint file:  "Grambow2020_wb97xd3_006658_reverse_mol2.chk"
 Charge =  0 Multiplicity = 1

                         Standard orientation:
 ---------------------------------------------------------------------
 Center     Atomic      Atomic             Coordinates (Angstroms)
 Number     Number       Type             X           Y           Z
 ---------------------------------------------------------------------
      1          6           0        2.967814   -0.782351   -0.252531
      2          8           0        1.786887   -0.026177   -0.228087
      3          6           0       -1.357453    0.330701   -0.771673
      4          6           0       -1.298237   -0.748611    0.271560
      5          8           0       -2.689380   -0.428490    0.606407
      6          6           0       -2.613949    0.527779   -0.380332
      7          6           0        1.904155    1.131770    0.556041
      8          1           0        3.253009   -1.111490    0.755700
      9          1           0        2.784836   -1.659088   -0.872543
     10          1           0        3.802979   -0.211725   -0.680020
     11          1           0       -0.674754    0.728884   -1.499886
     12          1           0       -0.649687   -0.580441    1.130376
     13          1           0       -1.220342   -1.777298   -0.080638
     14          1           0       -3.462650    1.157464   -0.611944
     15          1           0        2.676043    1.806105    0.162352
     16          1           0        0.941454    1.642320    0.534715
     17          1           0        2.155068    0.886876    1.596933
 ---------------------------------------------------------------------

 SCF Done:  E(RHF) =  -345.181602733     A.U. after    2 cycles

 The electronic state is 1-A.
 Alpha  occ. eigenvalues --  -20.55085 -20.55081 -11.29431 -11.28886 -11.28597
 Alpha  occ. eigenvalues --  -11.28429 -11.22176  -1.48980  -1.47294  -1.03328
 Alpha  occ. eigenvalues --   -0.97953  -0.92322  -0.88604  -0.73644  -0.70753
 Alpha  occ. eigenvalues --   -0.67120  -0.66431  -0.65607  -0.65310  -0.61627
 Alpha  occ. eigenvalues --   -0.56322  -0.54066  -0.51495  -0.49039  -0.48774
 Alpha  occ. eigenvalues --   -0.48154  -0.42437  -0.33857
 Alpha virt. eigenvalues --    0.03444   0.03806   0.04104   0.04366   0.05512
 Alpha virt. eigenvalues --    0.06515   0.06834   0.07256   0.07727   0.08744
 Alpha virt. eigenvalues --    0.11433   0.11819   0.12553   0.13662   0.14410

 Mulliken charges:
               1
     1  C    0.282726
     2  O   -1.110431
     3  C    0.164906
     4  C    0.509777
     5  O   -1.276281
     6  C    0.688074
     7  C    0.282920
     8  H    0.181217
     9  H   -0.032059
    10  H    0.146310
    11  H   -0.240361
    12  H    0.060434
    13  H    0.097805
    14  H   -0.057520
    15  H    0.138772
    16  H   -0.028493
    17  H    0.192204
 Sum of Mulliken charges =   0.00000

 Dipole moment (field-independent basis, Debye):
    X=              2.5561    Y=              0.6893    Z=             -0.2761  Tot=              2.6618

 Test job not archived.
 1\1\GINC-SE341\SP\RHF\Aug-CC-pVDZ\C5H10O2\OHZDE\09-Apr-2025\0\\#t hf a
 ug-cc-pvdz iop(5/13=1,5/36=2,99/5=2) pseudo=read geom=check guess=(rea
 d,tcheck) scf=(maxcycle=1)\\title\\0,1\C,0,1.42644784,2.18369473,0.305
 69799\O,0,0.48883114,1.22917769,-0.11472517\C,0,-0.31188859,-1.7478478
 7,-1.01243743\C,0,0.13877671,-1.91580089,0.41074562\O,0,-0.62095118,-3
 .16931242,0.44818731\C,0,-0.96081139,-2.89925132,-0.85770538\C,0,-0.83
 51264,1.66169813,0.05706695\H,0,1.30715121,2.41908042,1.37179366\H,0,2
 .41866977,1.76397757,0.14476809\H,0,1.33687748,3.1161995,-0.26725474\H

 Normal termination of Gaussian 16 at Wed Apr  9 03:27:31 2025.
