 Gaussian 16, Revision C.01,

 ----------------------------------------------------------------------
 #t hf aug-cc-pvdz symm=none int=(grid=ultrafine) guess=(read,tcheck) s
 table=(opt,rrhf)
 ----------------------------------------------------------------------
 -----
 title
 -----
 Symbolic Z-matrix:
 Charge =  0 Multiplicity = 1

 SCF Done:  E(RHF) =  -307.773191237     A.U. after   14 cycles

 1\1\GINC-SE145\Stability\RHF\Aug-CC-pVDZ\C6H10O1\OHZDE\09-Apr-2025\0\\
 #t hf aug-cc-pvdz symm=none int=(grid=ultrafine) guess=(read,tcheck) s
 table=(opt,rrhf)\\title\\0,1\C,0,1.8969392,-1.44153518,0.25857425\C,0,
 1.22465545,-0.20530884,0.68043835\C,0,-0.39934682,2.15979262,-0.364560
 98\C,0,-1.09246289,0.95957429,0.22437842\O,0,-1.81847806,0.1930356,-0.
 76073312\C,0,-1.02993339,-0.98010801,-0.56360893\C,0,-0.21807972,-0.27
 008444,0.54573873\H,0,2.85676376,-1.60796778,0.74700526\H,0,2.14476763
 ,-1.16927986,-0.78455761\H,0,1.30360263,-2.36494886,0.21408898\H,0,0.1

 Normal termination of Gaussian 16 at Wed Apr  9 19:04:05 2025.
 Gaussian 16:  ES64L-G16RevC.01  3-Jul-2019

 ----------------------------------------------------------------------
 #t hf aug-cc-pvdz iop(5/13=1,5/36=2,99/5=2) pseudo=read geom=check gue
 ss=(read,tcheck) scf=(maxcycle=1)
 ----------------------------------------------------------------------
 -----
 title
 -----
 Structure from the checkpoint file:  "Grambow2020_wb97xd3_008494_reverse_mol2.chk"
 Charge =  0 Multiplicity = 1

                         Standard orientation:
 ---------------------------------------------------------------------
 Center     Atomic      Atomic             Coordinates (Angstroms)
 Number     Number       Type             X           Y           Z
 ---------------------------------------------------------------------
      1          6           0       -2.566768   -0.256360   -0.240910
      2          6           0       -1.336877   -0.860965    0.288250
      3          6           0        1.597880   -1.382814   -0.373558
      4          6           0        1.203552   -0.188138    0.454112
      5          8           0        1.404846    1.063264   -0.237695
      6          6           0        0.019733    1.406362   -0.211731
      7          6           0       -0.303948    0.115419    0.577313
      8          1           0       -3.464605   -0.840495   -0.040404
      9          1           0       -2.378526   -0.375058   -1.324488
     10          1           0       -2.736210    0.814277   -0.062735
     11          1           0        1.382280   -2.304207    0.169245
     12          1           0        2.664835   -1.344994   -0.599594
     13          1           0        1.041677   -1.406151   -1.313199
     14          1           0        1.746297   -0.180907    1.404876
     15          1           0       -0.410494    1.456611   -1.217915
     16          1           0       -0.161109    2.354996    0.300691
     17          1           0       -0.604345    0.318795    1.624228
 ---------------------------------------------------------------------

 SCF Done:  E(RHF) =  -308.096749125     A.U. after    2 cycles

 The electronic state is 1-A.
 Alpha  occ. eigenvalues --  -20.53673 -11.29144 -11.28799 -11.27013 -11.24988
 Alpha  occ. eigenvalues --  -11.24703 -11.22149  -1.46772  -1.09942  -1.02416
 Alpha  occ. eigenvalues --   -0.98281  -0.89251  -0.82626  -0.71314  -0.70138
 Alpha  occ. eigenvalues --   -0.64771  -0.63252  -0.59663  -0.58300  -0.57572
 Alpha  occ. eigenvalues --   -0.54561  -0.53290  -0.52980  -0.48425  -0.45779
 Alpha  occ. eigenvalues --   -0.40983  -0.34763
 Alpha virt. eigenvalues --    0.03175   0.03560   0.04156   0.04296   0.05791
 Alpha virt. eigenvalues --    0.06017   0.06593   0.06749   0.07222   0.08103
 Alpha virt. eigenvalues --    0.09650   0.11402   0.12487   0.13479   0.13891

 Mulliken charges:
               1
     1  C   -0.407284
     2  C   -0.701700
     3  C   -0.357541
     4  C    0.991232
     5  O   -1.431269
     6  C    0.726110
     7  C   -0.420915
     8  H    0.104274
     9  H    0.323481
    10  H    0.154354
    11  H    0.260502
    12  H    0.144445
    13  H    0.204653
    14  H    0.054909
    15  H    0.071921
    16  H    0.055035
    17  H    0.227793
 Sum of Mulliken charges =   0.00000

 Dipole moment (field-independent basis, Debye):
    X=             -1.7511    Y=              0.9630    Z=              0.3274  Tot=              2.0251

 Test job not archived.
 1\1\GINC-SE145\SP\RHF\Aug-CC-pVDZ\C6H10O1\OHZDE\09-Apr-2025\0\\#t hf a
 ug-cc-pvdz iop(5/13=1,5/36=2,99/5=2) pseudo=read geom=check guess=(rea
 d,tcheck) scf=(maxcycle=1)\\title\\0,1\C,0,1.8969392,-1.44153518,0.258
 57425\C,0,1.22465545,-0.20530884,0.68043835\C,0,-0.39934682,2.15979262
 ,-0.36456098\C,0,-1.09246289,0.95957429,0.22437842\O,0,-1.81847806,0.1
 930356,-0.76073312\C,0,-1.02993339,-0.98010801,-0.56360893\C,0,-0.2180
 7972,-0.27008444,0.54573873\H,0,2.85676376,-1.60796778,0.74700526\H,0,
 2.14476763,-1.16927986,-0.78455761\H,0,1.30360263,-2.36494886,0.214088

 Normal termination of Gaussian 16 at Wed Apr  9 19:04:11 2025.
