 Gaussian 16, Revision C.01,

 ----------------------------------------------------------------------
 #t hf aug-cc-pvdz symm=none int=(grid=ultrafine) guess=(read,tcheck) s
 table=(opt,rrhf)
 ----------------------------------------------------------------------
 -----
 title
 -----
 Symbolic Z-matrix:
 Charge =  0 Multiplicity = 1

 SCF Done:  E(RHF) =  -345.869003272     A.U. after   16 cycles

 1\1\GINC-SE173\Stability\RHF\Aug-CC-pVDZ\C5H12O2\OHZDE\09-Apr-2025\0\\
 #t hf aug-cc-pvdz symm=none int=(grid=ultrafine) guess=(read,tcheck) s
 table=(opt,rrhf)\\title\\0,1\C,0,2.29621308,0.28434767,1.61450282\C,0,
 0.86689014,0.47219344,1.1237776\C,0,0.70637065,0.22634356,-0.38389704\
 O,0,1.17950811,-1.07575839,-0.72005558\C,0,-0.67139157,0.48594056,-0.9
 1378781\C,0,-2.32100736,-0.49921668,-1.72201443\O,0,-1.65898891,-0.430
 02274,-0.10872596\H,0,2.64517029,-0.72577704,1.39990646\H,0,2.97389732
 ,0.98093965,1.11445444\H,0,2.37445293,0.45574426,2.69011905\H,0,0.2031

 Normal termination of Gaussian 16 at Wed Apr  9 18:48:04 2025.
 Gaussian 16:  ES64L-G16RevC.01  3-Jul-2019

 ----------------------------------------------------------------------
 #t hf aug-cc-pvdz iop(5/13=1,5/36=2,99/5=2) pseudo=read geom=check gue
 ss=(read,tcheck) scf=(maxcycle=1)
 ----------------------------------------------------------------------
 -----
 title
 -----
 Structure from the checkpoint file:  "Grambow2020_wb97xd3_008067_forward_mol1.chk"
 Charge =  0 Multiplicity = 1

                         Standard orientation:
 ---------------------------------------------------------------------
 Center     Atomic      Atomic             Coordinates (Angstroms)
 Number     Number       Type             X           Y           Z
 ---------------------------------------------------------------------
      1          6           0        2.874707   -0.255103   -0.132333
      2          6           0        1.434746   -0.734357   -0.006279
      3          6           0        0.481478    0.344506    0.529097
      4          8           0        0.547496    1.507068   -0.293351
      5          6           0       -0.926762   -0.120779    0.745370
      6          6           0       -2.860509    0.134764    0.010307
      7          8           0       -1.450203   -0.671267   -0.627742
      8          1           0        2.934799    0.606283   -0.797598
      9          1           0        3.269504    0.050490    0.839928
     10          1           0        3.523695   -1.040747   -0.524795
     11          1           0        1.077191   -1.072159   -0.985716
     12          1           0        1.388423   -1.599054    0.664567
     13          1           0        0.838369    0.665819    1.514837
     14          1           0        0.017274    1.328218   -1.073427
     15          1           0       -0.938263   -0.978836    1.425570
     16          1           0       -3.493057   -0.332536   -0.755434
     17          1           0       -3.216584   -0.082375    1.007773
     18          1           0       -2.731236    1.193109   -0.152340
     19          1           0       -1.470420   -1.638803   -0.671588
 ---------------------------------------------------------------------

 SCF Done:  E(RHF) =  -346.235587817     A.U. after    2 cycles

 The electronic state is 1-A.
 Alpha  occ. eigenvalues --  -20.59995 -20.51714 -11.35093 -11.25630 -11.21525
 Alpha  occ. eigenvalues --  -11.21047 -11.20443  -1.47583  -1.41981  -1.04177
 Alpha  occ. eigenvalues --   -0.97492  -0.94753  -0.83160  -0.78265  -0.71666
 Alpha  occ. eigenvalues --   -0.65501  -0.64510  -0.62427  -0.60728  -0.59840
 Alpha  occ. eigenvalues --   -0.55818  -0.54853  -0.51568  -0.51295  -0.50372
 Alpha  occ. eigenvalues --   -0.47211  -0.44520  -0.41407  -0.27795
 Alpha virt. eigenvalues --    0.02531   0.03268   0.03757   0.04748   0.05767
 Alpha virt. eigenvalues --    0.05845   0.06296   0.07073   0.07893   0.08924
 Alpha virt. eigenvalues --    0.09488   0.10097   0.11845   0.12809   0.13817

 Mulliken charges:
               1
     1  C   -0.357916
     2  C   -0.428535
     3  C    1.147409
     4  O   -1.438518
     5  C    0.299827
     6  C    0.049272
     7  O   -0.999364
     8  H    0.222104
     9  H    0.156446
    10  H    0.124026
    11  H    0.085555
    12  H    0.147590
    13  H    0.145171
    14  H    0.274889
    15  H   -0.275614
    16  H    0.019725
    17  H    0.304797
    18  H    0.182780
    19  H    0.340358
 Sum of Mulliken charges =  -0.00000

 Dipole moment (field-independent basis, Debye):
    X=             -3.4297    Y=             -2.9672    Z=             -0.9083  Tot=              4.6252

 Test job not archived.
 1\1\GINC-SE173\SP\RHF\Aug-CC-pVDZ\C5H12O2\OHZDE\09-Apr-2025\0\\#t hf a
 ug-cc-pvdz iop(5/13=1,5/36=2,99/5=2) pseudo=read geom=check guess=(rea
 d,tcheck) scf=(maxcycle=1)\\title\\0,1\C,0,2.29621308,0.28434767,1.614
 50282\C,0,0.86689014,0.47219344,1.1237776\C,0,0.70637065,0.22634356,-0
 .38389704\O,0,1.17950811,-1.07575839,-0.72005558\C,0,-0.67139157,0.485
 94056,-0.91378781\C,0,-2.32100736,-0.49921668,-1.72201443\O,0,-1.65898
 891,-0.43002274,-0.10872596\H,0,2.64517029,-0.72577704,1.39990646\H,0,
 2.97389732,0.98093965,1.11445444\H,0,2.37445293,0.45574426,2.69011905\

 Normal termination of Gaussian 16 at Wed Apr  9 18:48:12 2025.
