 Gaussian 16, Revision C.01,

 ----------------------------------------------------------------------
 #t hf aug-cc-pvdz symm=none int=(grid=ultrafine) guess=(read,tcheck) s
 table=(opt,rrhf)
 ----------------------------------------------------------------------
 -----
 title
 -----
 Symbolic Z-matrix:
 Charge =  0 Multiplicity = 1

 SCF Done:  E(RHF) =  -270.021715289     A.U. after   12 cycles

 1\1\GINC-SE042\Stability\RHF\Aug-CC-pVDZ\C5H10O1\OHZDE\09-Apr-2025\0\\
 #t hf aug-cc-pvdz symm=none int=(grid=ultrafine) guess=(read,tcheck) s
 table=(opt,rrhf)\\title\\0,1\C,0,-2.12673782,-0.03463707,0.16450782\C,
 0,-0.85662348,-0.36986767,-0.58185952\O,0,-0.20654877,0.69422197,-1.30
 892472\C,0,0.50568338,0.07328736,-0.20766628\C,0,1.69152713,-0.7762800
 8,-0.63048275\C,0,0.76467127,0.96721394,0.99042737\H,0,-2.96403477,0.0
 6434261,-0.5413965\H,0,-2.04049736,0.90743141,0.71740907\H,0,-2.375233
 29,-0.83776259,0.87403572\H,0,-0.91320804,-1.30951835,-1.14837924\H,0,

 Normal termination of Gaussian 16 at Wed Apr  9 15:58:57 2025.
 Gaussian 16:  ES64L-G16RevC.01  3-Jul-2019

 ----------------------------------------------------------------------
 #t hf aug-cc-pvdz iop(5/13=1,5/36=2,99/5=2) pseudo=read geom=check gue
 ss=(read,tcheck) scf=(maxcycle=1)
 ----------------------------------------------------------------------
 -----
 title
 -----
 Structure from the checkpoint file:  "Grambow2020_b97d3_007066_forward_mol2.chk"
 Charge =  0 Multiplicity = 1

                         Standard orientation:
 ---------------------------------------------------------------------
 Center     Atomic      Atomic             Coordinates (Angstroms)
 Number     Number       Type             X           Y           Z
 ---------------------------------------------------------------------
      1          6           0        2.098117    0.106746   -0.366513
      2          6           0        0.782037   -0.612193   -0.182948
      3          8           0        0.163564   -0.554437    1.119997
      4          6           0       -0.537065    0.036347   -0.005036
      5          6           0       -1.784729   -0.718276   -0.430055
      6          6           0       -0.696880    1.544247    0.042975
      7          1           0        2.910341   -0.468075    0.101500
      8          1           0        2.087181    1.103719    0.087972
      9          1           0        2.329855    0.210344   -1.436912
     10          1           0        0.762972   -1.616972   -0.626957
     11          1           0       -1.604873   -1.800811   -0.428964
     12          1           0       -2.613450   -0.506399    0.261368
     13          1           0       -2.098385   -0.415157   -1.439787
     14          1           0       -0.937716    1.938023   -0.955331
     15          1           0        0.209112    2.039993    0.407132
     16          1           0       -1.522431    1.809606    0.719460
 ---------------------------------------------------------------------

 SCF Done:  E(RHF) =  -270.309965065     A.U. after    2 cycles

 The electronic state is 1-A.
 Alpha  occ. eigenvalues --  -20.54395 -11.29505 -11.28949 -11.23602 -11.23445
 Alpha  occ. eigenvalues --  -11.23349  -1.47116  -1.04528  -1.00933  -0.94888
 Alpha  occ. eigenvalues --   -0.85396  -0.75989  -0.67286  -0.63988  -0.60642
 Alpha  occ. eigenvalues --   -0.59016  -0.56140  -0.55559  -0.54765  -0.53966
 Alpha  occ. eigenvalues --   -0.50012  -0.49113  -0.42853  -0.41216
 Alpha virt. eigenvalues --    0.03550   0.03878   0.04004   0.04717   0.05863
 Alpha virt. eigenvalues --    0.06406   0.06591   0.07341   0.09339   0.09751
 Alpha virt. eigenvalues --    0.11556   0.12994   0.13887   0.14566   0.15102

 Mulliken charges:
               1
     1  C   -0.605313
     2  C    0.350347
     3  O   -1.473017
     4  C    0.667722
     5  C   -0.490414
     6  C   -0.425385
     7  H    0.248764
     8  H    0.168087
     9  H    0.276332
    10  H   -0.133609
    11  H    0.159966
    12  H    0.246392
    13  H    0.251976
    14  H    0.282745
    15  H    0.194485
    16  H    0.280921
 Sum of Mulliken charges =  -0.00000

 Dipole moment (field-independent basis, Debye):
    X=             -0.0711    Y=              0.6219    Z=             -2.0555  Tot=              2.1487

 Test job not archived.
 1\1\GINC-SE042\SP\RHF\Aug-CC-pVDZ\C5H10O1\OHZDE\09-Apr-2025\0\\#t hf a
 ug-cc-pvdz iop(5/13=1,5/36=2,99/5=2) pseudo=read geom=check guess=(rea
 d,tcheck) scf=(maxcycle=1)\\title\\0,1\C,0,-2.12673782,-0.03463707,0.1
 6450782\C,0,-0.85662348,-0.36986767,-0.58185952\O,0,-0.20654877,0.6942
 2197,-1.30892472\C,0,0.50568338,0.07328736,-0.20766628\C,0,1.69152713,
 -0.77628008,-0.63048275\C,0,0.76467127,0.96721394,0.99042737\H,0,-2.96
 403477,0.06434261,-0.5413965\H,0,-2.04049736,0.90743141,0.71740907\H,0
 ,-2.37523329,-0.83776259,0.87403572\H,0,-0.91320804,-1.30951835,-1.148

 Normal termination of Gaussian 16 at Wed Apr  9 15:59:02 2025.
