 Gaussian 16, Revision C.01,

 ----------------------------------------------------------------------
 #t hf aug-cc-pvdz symm=none int=(grid=ultrafine) guess=(read,tcheck) s
 table=(opt,rrhf)
 ----------------------------------------------------------------------
 -----
 title
 -----
 Symbolic Z-matrix:
 Charge =  0 Multiplicity = 1

 SCF Done:  E(RHF) =  -305.728845047     A.U. after   15 cycles
 Normal termination of Gaussian 16 at Wed Apr  9 15:48:49 2025.
 Gaussian 16:  ES64L-G16RevC.01  3-Jul-2019

 ----------------------------------------------------------------------
 #t hf aug-cc-pvdz iop(5/13=1,5/36=2,99/5=2) pseudo=read geom=check gue
 ss=(read,tcheck) scf=(maxcycle=1)
 ----------------------------------------------------------------------
 -----
 title
 -----
 Structure from the checkpoint file:  "Grambow2020_b97d3_006756_forward_mol1.chk"
 Charge =  0 Multiplicity = 1

                         Standard orientation:
 ---------------------------------------------------------------------
 Center     Atomic      Atomic             Coordinates (Angstroms)
 Number     Number       Type             X           Y           Z
 ---------------------------------------------------------------------
      1          6           0        3.029175   -0.476473   -0.106366
      2          6           0        0.900171    1.310232    0.049889
      3          6           0       -0.097630    0.190175    0.019696
      4          8           0        0.235182   -0.992848    0.080922
      5          6           0       -1.580580    0.530164   -0.077560
      6          8           0       -2.392234   -0.608866    0.005724
      7          1           0        2.850728   -0.988346    0.872331
      8          1           0        1.949601    0.894333   -0.141760
      9          1           0        2.659127   -1.246975   -0.825969
     10          1           0        0.683493    2.095528   -0.688308
     11          1           0        0.915481    1.774561    1.048093
     12          1           0       -1.823835    1.254704    0.722224
     13          1           0       -1.723595    1.067723   -1.036985
     14          1           0       -1.761399   -1.362407    0.043247
 ---------------------------------------------------------------------

 SCF Done:  E(RHF) =  -306.040036153     A.U. after    2 cycles

 The electronic state is 1-A.
 Alpha  occ. eigenvalues --  -20.56371 -20.55562 -11.36618 -11.31250 -11.29325
 Alpha  occ. eigenvalues --  -11.26450  -1.49688  -1.45064  -1.05840  -0.96300
 Alpha  occ. eigenvalues --   -0.88613  -0.78121  -0.71804  -0.67036  -0.66763
 Alpha  occ. eigenvalues --   -0.60760  -0.60505  -0.59162  -0.55620  -0.53475
 Alpha  occ. eigenvalues --   -0.51433  -0.45447  -0.44300  -0.38271
 Alpha virt. eigenvalues --    0.02922   0.03333   0.03940   0.04805   0.05782
 Alpha virt. eigenvalues --    0.06625   0.07212   0.07553   0.08301   0.09786
 Alpha virt. eigenvalues --    0.11474   0.13191   0.13244   0.14519   0.14904

 Mulliken charges:
               1
     1  C   -0.575726
     2  C   -0.391618
     3  C    0.902167
     4  O   -1.376301
     5  C    0.659026
     6  O   -1.201821
     7  H    0.177159
     8  H    0.216091
     9  H    0.171722
    10  H    0.278369
    11  H    0.314925
    12  H    0.235618
    13  H    0.262196
    14  H    0.328193
 Sum of Mulliken charges =   0.00000

 Dipole moment (field-independent basis, Debye):
    X=              0.3879    Y=              1.6535    Z=              0.1904  Tot=              1.7090

 Test job not archived.
 1\1\GINC-SE037\SP\RHF\Aug-CC-pVDZ\C4H8O2\OHZDE\09-Apr-2025\0\\#t hf au
 g-cc-pvdz iop(5/13=1,5/36=2,99/5=2) pseudo=read geom=check guess=(read
 ,tcheck) scf=(maxcycle=1)\\title\\0,1\C,0,-2.62073875,0.96574553,-0.53
 184856\C,0,-0.74106556,-0.96093254,0.17817363\C,0,0.38553565,0.0162435
 5,0.01402846\O,0,0.19600781,1.21369418,-0.19631856\C,0,1.8191401,-0.49
 044978,0.12462804\O,0,2.75598501,0.54872245,0.05013054\H,0,-2.44846739
 ,1.65147318,0.33521796\H,0,-1.71642484,-0.48713796,-0.18951881\H,0,-2.
 11127304,1.52331569,-1.35525501\H,0,-0.57183401,-1.90295592,-0.3626835

 Normal termination of Gaussian 16 at Wed Apr  9 15:48:53 2025.
