 Gaussian 16, Revision C.01,

 ----------------------------------------------------------------------
 #t hf aug-cc-pvdz symm=none int=(grid=ultrafine) guess=(read,tcheck) s
 table=(opt,rrhf)
 ----------------------------------------------------------------------
 -----
 title
 -----
 Symbolic Z-matrix:
 Charge =  0 Multiplicity = 1

 SCF Done:  E(RHF) =  -265.052790384     A.U. after   14 cycles
 Normal termination of Gaussian 16 at Wed Apr  9 15:40:52 2025.
 Gaussian 16:  ES64L-G16RevC.01  3-Jul-2019

 ----------------------------------------------------------------------
 #t hf aug-cc-pvdz iop(5/13=1,5/36=2,99/5=2) pseudo=read geom=check gue
 ss=(read,tcheck) scf=(maxcycle=1)
 ----------------------------------------------------------------------
 -----
 title
 -----
 Structure from the checkpoint file:  "Grambow2020_b97d3_006624_forward_mol2.chk"
 Charge =  0 Multiplicity = 1

                         Standard orientation:
 ---------------------------------------------------------------------
 Center     Atomic      Atomic             Coordinates (Angstroms)
 Number     Number       Type             X           Y           Z
 ---------------------------------------------------------------------
      1          6           0       -2.086296    0.516642    0.105094
      2          6           0       -1.101077   -0.571214   -0.333541
      3          6           0        0.270259   -0.476687    0.367205
      4          7           0        1.116270   -1.615225   -0.018200
      5          6           0        0.910172    0.834278    0.088372
      6          7           0        1.462581    1.832400   -0.177637
      7          1           0       -1.704126    1.519444   -0.129689
      8          1           0       -2.270381    0.468905    1.188206
      9          1           0       -3.049779    0.392447   -0.406861
     10          1           0       -1.493576   -1.572762   -0.110362
     11          1           0       -0.939422   -0.519693   -1.421433
     12          1           0        0.108024   -0.536464    1.454706
     13          1           0        1.317277   -1.547893   -1.020205
     14          1           0        2.021672   -1.542325    0.453718
 ---------------------------------------------------------------------

 SCF Done:  E(RHF) =  -265.328228879     A.U. after    2 cycles

 The electronic state is 1-A.
 Alpha  occ. eigenvalues --  -15.52073 -15.52046 -11.32319 -11.28517 -11.25937
 Alpha  occ. eigenvalues --  -11.24278  -1.23809  -1.20692  -1.07063  -0.95730
 Alpha  occ. eigenvalues --   -0.85626  -0.74827  -0.71033  -0.66099  -0.62905
 Alpha  occ. eigenvalues --   -0.60689  -0.58700  -0.54033  -0.52986  -0.51138
 Alpha  occ. eigenvalues --   -0.50357  -0.48228  -0.47403
 Alpha virt. eigenvalues --    0.03221   0.03658   0.03902   0.04895   0.05786
 Alpha virt. eigenvalues --    0.06043   0.07713   0.09056   0.09224   0.10891
 Alpha virt. eigenvalues --    0.12010   0.13218   0.14500   0.14643   0.14876

 Mulliken charges:
               1
     1  C   -0.375462
     2  C    0.073488
     3  C   -1.156855
     4  N    0.528017
     5  C   -1.382486
     6  N    0.883768
     7  H    0.219465
     8  H    0.172089
     9  H    0.134881
    10  H    0.223209
    11  H    0.172070
    12  H    0.114481
    13  H    0.229930
    14  H    0.163405
 Sum of Mulliken charges =  -0.00000

 Dipole moment (field-independent basis, Debye):
    X=             -1.7758    Y=             -2.8321    Z=              0.4765  Tot=              3.3766

 Test job not archived.
 1\1\GINC-SE141\SP\RHF\Aug-CC-pVDZ\C4H8N2\OHZDE\09-Apr-2025\0\\#t hf au
 g-cc-pvdz iop(5/13=1,5/36=2,99/5=2) pseudo=read geom=check guess=(read
 ,tcheck) scf=(maxcycle=1)\\title\\0,1\C,0,-1.83251121,0.19744033,0.107
 11253\C,0,-0.5760637,-0.60441004,-0.24624839\C,0,0.71683063,-0.0182880
 3,0.35825823\N,0,1.85633477,-0.9014967,0.07187658\C,0,0.93349345,1.371
 34304,-0.11907439\N,0,1.15979657,2.44105575,-0.53939178\H,0,-1.7695975
 6,1.22611544,-0.27322693\H,0,-1.97583851,0.24678368,1.19629531\H,0,-2.
 72404251,-0.2717387,-0.32976867\H,0,-0.64940612,-1.63650536,0.12302559

 Normal termination of Gaussian 16 at Wed Apr  9 15:40:56 2025.
