 Gaussian 16, Revision C.01,

 ----------------------------------------------------------------------
 #t hf aug-cc-pvdz symm=none int=(grid=ultrafine) guess=(read,tcheck) s
 table=(opt,rrhf)
 ----------------------------------------------------------------------
 -----
 title
 -----
 Symbolic Z-matrix:
 Charge =  0 Multiplicity = 1

 SCF Done:  E(RHF) =  -359.751588945     A.U. after   14 cycles
 Normal termination of Gaussian 16 at Wed Apr  9 04:05:45 2025.
 Gaussian 16:  ES64L-G16RevC.01  3-Jul-2019

 ----------------------------------------------------------------------
 #t hf aug-cc-pvdz iop(5/13=1,5/36=2,99/5=2) pseudo=read geom=check gue
 ss=(read,tcheck) scf=(maxcycle=1)
 ----------------------------------------------------------------------
 -----
 title
 -----
 Structure from the checkpoint file:  "Grambow2020_wb97xd3_009242_reverse_mol2.chk"
 Charge =  0 Multiplicity = 1

                         Standard orientation:
 ---------------------------------------------------------------------
 Center     Atomic      Atomic             Coordinates (Angstroms)
 Number     Number       Type             X           Y           Z
 ---------------------------------------------------------------------
      1          6           0        0.886205    2.014390   -0.108969
      2          6           0        1.410573    0.640480    0.176724
      3          6           0       -1.479561   -0.026806    0.328097
      4          8           0       -2.618511    0.057618    0.006407
      5          6           0        0.774229   -0.505051   -0.057984
      6          8           0       -0.539388   -0.551526   -0.491540
      7          7           0        1.306849   -1.780541   -0.017563
      8          1           0       -0.046239    1.988618   -0.673442
      9          1           0        0.708982    2.583925    0.807458
     10          1           0        1.607371    2.581575   -0.701771
     11          1           0        2.424171    0.560657    0.554585
     12          1           0       -1.065408    0.288397    1.299761
     13          1           0        2.245363   -1.837898    0.338984
     14          1           0        0.692337   -2.488300    0.351222
 ---------------------------------------------------------------------

 SCF Done:  E(RHF) =  -360.116442685     A.U. after    2 cycles

 The electronic state is 1-A.
 Alpha  occ. eigenvalues --  -20.61202 -20.55163 -15.52592 -11.40265 -11.35003
 Alpha  occ. eigenvalues --  -11.24285 -11.23682  -1.57220  -1.48206  -1.23272
 Alpha  occ. eigenvalues --   -1.06795  -0.95186  -0.89533  -0.81947  -0.75725
 Alpha  occ. eigenvalues --   -0.73396  -0.68995  -0.68240  -0.62087  -0.59378
 Alpha  occ. eigenvalues --   -0.58342  -0.57587  -0.54353  -0.52257  -0.48222
 Alpha  occ. eigenvalues --   -0.45939  -0.34841
 Alpha virt. eigenvalues --    0.02514   0.03802   0.04269   0.04762   0.06231
 Alpha virt. eigenvalues --    0.06625   0.07985   0.09716   0.11040   0.11888
 Alpha virt. eigenvalues --    0.12353   0.13689   0.13899   0.14693   0.15008

 Mulliken charges:
               1
     1  C   -0.619596
     2  C    0.672579
     3  C    1.319020
     4  O   -1.093241
     5  C    0.030755
     6  O   -1.653412
     7  N    0.630823
     8  H    0.114937
     9  H    0.222817
    10  H    0.146928
    11  H   -0.252655
    12  H    0.230962
    13  H    0.121317
    14  H    0.128767
 Sum of Mulliken charges =   0.00000

 Dipole moment (field-independent basis, Debye):
    X=              3.6920    Y=             -0.2847    Z=              2.5530  Tot=              4.4977

 Test job not archived.
 1\1\GINC-SE342\SP\RHF\Aug-CC-pVDZ\C4H7N1O2\OHZDE\09-Apr-2025\0\\#t hf
 aug-cc-pvdz iop(5/13=1,5/36=2,99/5=2) pseudo=read geom=check guess=(re
 ad,tcheck) scf=(maxcycle=1)\\title\\0,1\C,0,-1.33329176,-1.2328406,0.2
 3389064\C,0,-0.0748707,-0.90919271,-0.51165456\C,0,-0.40509912,1.72516
 345,0.81957835\O,0,-0.69917441,2.44513998,1.71566628\C,0,0.8301644,0.0
 0229746,-0.16185245\O,0,0.64071211,0.87020974,0.89954185\N,0,2.0955459
 8,0.17065579,-0.69350773\H,0,-1.37880799,-0.7297345,1.20009954\H,0,-2.
 22719178,-0.9561961,-0.33181984\H,0,-1.39721256,-2.30640441,0.42511662

 Normal termination of Gaussian 16 at Wed Apr  9 04:05:49 2025.
