 Gaussian 16, Revision C.01,

 ----------------------------------------------------------------------
 #t hf aug-cc-pvdz symm=none int=(grid=ultrafine) guess=(read,tcheck) s
 table=(opt,rrhf)
 ----------------------------------------------------------------------
 -----
 title
 -----
 Symbolic Z-matrix:
 Charge =  0 Multiplicity = 1

 SCF Done:  E(RHF) =  -359.578873379     A.U. after   17 cycles
 Normal termination of Gaussian 16 at Wed Apr  9 19:21:06 2025.
 Gaussian 16:  ES64L-G16RevC.01  3-Jul-2019

 ----------------------------------------------------------------------
 #t hf aug-cc-pvdz iop(5/13=1,5/36=2,99/5=2) pseudo=read geom=check gue
 ss=(read,tcheck) scf=(maxcycle=1)
 ----------------------------------------------------------------------
 -----
 title
 -----
 Structure from the checkpoint file:  "Grambow2020_wb97xd3_009396_forward_mol1.chk"
 Charge =  0 Multiplicity = 1

                         Standard orientation:
 ---------------------------------------------------------------------
 Center     Atomic      Atomic             Coordinates (Angstroms)
 Number     Number       Type             X           Y           Z
 ---------------------------------------------------------------------
      1          8           0        0.965879   -0.828815    0.984686
      2          6           0       -1.026003    0.459523    0.706257
      3          6           0       -0.219919    1.492907    0.006783
      4          8           0        1.051058    0.936549   -0.361670
      5          6           0        0.887033   -0.459156   -0.418366
      6          7           0       -0.297948   -0.872714   -1.022538
      7          6           0       -1.410392   -0.646884   -0.134782
      8          1           0        0.802836   -1.776329    1.031400
      9          1           0       -1.166882    0.491012    1.781174
     10          1           0       -0.755659    1.762414   -0.915583
     11          1           0       -0.034212    2.375093    0.616360
     12          1           0        1.754568   -0.863586   -0.945899
     13          1           0       -2.240226   -0.311840   -0.780703
     14          1           0       -1.794600   -1.507970    0.427526
 ---------------------------------------------------------------------

 SCF Done:  E(RHF) =  -359.941391648     A.U. after    2 cycles

 The electronic state is 1-A.
 Alpha  occ. eigenvalues --  -20.55683 -20.55395 -15.41688 -11.37844 -11.34101
 Alpha  occ. eigenvalues --  -11.31974 -11.27629  -1.50946  -1.42632  -1.18601
 Alpha  occ. eigenvalues --   -1.08121  -0.94236  -0.89059  -0.77573  -0.74591
 Alpha  occ. eigenvalues --   -0.72611  -0.68277  -0.62641  -0.61745  -0.59253
 Alpha  occ. eigenvalues --   -0.58384  -0.55774  -0.52043  -0.47508  -0.45595
 Alpha  occ. eigenvalues --   -0.40175  -0.33465
 Alpha virt. eigenvalues --   -0.00473   0.02654   0.03681   0.04101   0.04990
 Alpha virt. eigenvalues --    0.06036   0.06220   0.07313   0.09548   0.10781
 Alpha virt. eigenvalues --    0.12927   0.13120   0.13508   0.14235   0.14517

 Mulliken charges:
               1
     1  O   -1.267554
     2  C    0.347482
     3  C    0.451603
     4  O   -1.377657
     5  C    1.115061
     6  N    0.466857
     7  C   -0.410122
     8  H    0.289888
     9  H   -0.147477
    10  H    0.213385
    11  H    0.039370
    12  H    0.088399
    13  H    0.204751
    14  H   -0.013986
 Sum of Mulliken charges =   0.00000

 Dipole moment (field-independent basis, Debye):
    X=             -3.3671    Y=              1.6990    Z=              3.9059  Tot=              5.4295

 Test job not archived.
 1\1\GINC-SE162\SP\RHF\Aug-CC-pVDZ\C4H7N1O2\OHZDE\09-Apr-2025\0\\#t hf
 aug-cc-pvdz iop(5/13=1,5/36=2,99/5=2) pseudo=read geom=check guess=(re
 ad,tcheck) scf=(maxcycle=1)\\title\\0,1\O,0,0.2301515,-0.73066823,1.56
 136679\C,0,-1.06363287,0.18573403,-0.22504279\C,0,-0.2774048,1.4405830
 8,-0.1062241\O,0,0.90269105,1.19114906,0.67212691\C,0,1.1645428,-0.188
 25299,0.58970914\N,0,0.99754961,-0.72806784,-0.68345557\C,0,-0.4055112
 6,-0.84330923,-0.9913213\H,0,0.31170114,-1.68887007,1.51958246\H,0,-1.
 97373263,0.03813512,0.34611222\H,0,0.03650507,1.73180122,-1.11966519\H

 Normal termination of Gaussian 16 at Wed Apr  9 19:21:11 2025.
