 Gaussian 16, Revision C.01,

 ----------------------------------------------------------------------
 #t hf aug-cc-pvdz symm=none int=(grid=ultrafine) guess=(read,tcheck) s
 table=(opt,rrhf)
 ----------------------------------------------------------------------
 -----
 title
 -----
 Symbolic Z-matrix:
 Charge =  0 Multiplicity = 1

 SCF Done:  E(RHF) =  -343.636909162     A.U. after   15 cycles
 Normal termination of Gaussian 16 at Wed Apr  9 03:27:55 2025.
 Gaussian 16:  ES64L-G16RevC.01  3-Jul-2019

 ----------------------------------------------------------------------
 #t hf aug-cc-pvdz iop(5/13=1,5/36=2,99/5=2) pseudo=read geom=check gue
 ss=(read,tcheck) scf=(maxcycle=1)
 ----------------------------------------------------------------------
 -----
 title
 -----
 Structure from the checkpoint file:  "Grambow2020_wb97xd3_006671_reverse_mol1.chk"
 Charge =  0 Multiplicity = 1

                         Standard orientation:
 ---------------------------------------------------------------------
 Center     Atomic      Atomic             Coordinates (Angstroms)
 Number     Number       Type             X           Y           Z
 ---------------------------------------------------------------------
      1          6           0       -1.583239   -0.943805   -0.656102
      2          6           0       -0.736680    0.002606    0.153308
      3          8           0       -1.171842    1.300614    0.095428
      4          6           0       -0.060693   -0.435136    1.323925
      5          6           0        1.584340   -1.116072   -0.215864
      6          6           0        0.934075    0.092967   -0.256228
      7          8           0        1.302294    1.255355   -0.392310
      8          1           0       -2.605546   -0.920838   -0.273652
      9          1           0       -1.603944   -0.620855   -1.696185
     10          1           0       -1.218892   -1.969428   -0.609104
     11          1           0       -0.374929    1.819675   -0.155567
     12          1           0        0.296050    0.308143    2.025355
     13          1           0       -0.041530   -1.466750    1.637652
     14          1           0        2.646087   -1.159437   -0.433972
     15          1           0        1.032275   -2.041623   -0.213708
 ---------------------------------------------------------------------

 SCF Done:  E(RHF) =  -343.990555904     A.U. after    2 cycles

 The electronic state is 1-A.
 Alpha  occ. eigenvalues --  -20.55098 -20.49586 -11.33880 -11.33626 -11.33274
 Alpha  occ. eigenvalues --  -11.26324 -11.25149  -1.48703  -1.43148  -1.13824
 Alpha  occ. eigenvalues --   -1.01193  -0.97757  -0.82942  -0.76176  -0.72489
 Alpha  occ. eigenvalues --   -0.69389  -0.66806  -0.62737  -0.61085  -0.58256
 Alpha  occ. eigenvalues --   -0.57329  -0.56433  -0.54494  -0.49985  -0.47019
 Alpha  occ. eigenvalues --   -0.38530  -0.33123
 Alpha virt. eigenvalues --    0.01900   0.03174   0.03699   0.04703   0.05871
 Alpha virt. eigenvalues --    0.06290   0.06653   0.07245   0.07911   0.09746
 Alpha virt. eigenvalues --    0.11617   0.13168   0.13540   0.14443   0.14971

 Mulliken charges:
               1
     1  C   -0.312738
     2  C    1.357509
     3  O   -1.551826
     4  C    0.183998
     5  C    0.069942
     6  C    1.235123
     7  O   -1.644868
     8  H    0.233411
     9  H    0.238185
    10  H    0.137755
    11  H    0.268303
    12  H   -0.013112
    13  H   -0.081127
    14  H   -0.071877
    15  H   -0.048677
 Sum of Mulliken charges =  -0.00000

 Dipole moment (field-independent basis, Debye):
    X=             -1.0393    Y=             -4.3097    Z=              1.8729  Tot=              4.8127

 Test job not archived.
 1\1\GINC-SE128\SP\RHF\Aug-CC-pVDZ\C5H8O2\OHZDE\09-Apr-2025\0\\#t hf au
 g-cc-pvdz iop(5/13=1,5/36=2,99/5=2) pseudo=read geom=check guess=(read
 ,tcheck) scf=(maxcycle=1)\\title\\0,1\C,0,-1.53185417,-0.77656031,-0.0
 1353741\C,0,-0.62609522,0.42500819,0.04418404\O,0,-1.16324208,1.535375
 41,-0.55255659\C,0,0.28588379,0.60596785,1.11864749\C,0,1.66626877,-0.
 78660678,-0.18366874\C,0,0.92845084,0.26034884,-0.67940604\O,0,1.17450
 792,1.19451012,-1.43574505\H,0,-2.4647727,-0.54267204,0.50305408\H,0,-
 1.76885102,-1.00891622,-1.05100607\H,0,-1.08710481,-1.65379676,0.45498

 Normal termination of Gaussian 16 at Wed Apr  9 03:28:00 2025.
