 Gaussian 16, Revision C.01,

 ----------------------------------------------------------------------
 #t hf aug-cc-pvdz symm=none int=(grid=ultrafine) guess=(read,tcheck) s
 table=(opt,rrhf)
 ----------------------------------------------------------------------
 -----
 title
 -----
 Symbolic Z-matrix:
 Charge =  0 Multiplicity = 1

 SCF Done:  E(RHF) =  -322.672077277     A.U. after   14 cycles
 Normal termination of Gaussian 16 at Wed Apr  9 18:01:06 2025.
 Gaussian 16:  ES64L-G16RevC.01  3-Jul-2019

 ----------------------------------------------------------------------
 #t hf aug-cc-pvdz iop(5/13=1,5/36=2,99/5=2) pseudo=read geom=check gue
 ss=(read,tcheck) scf=(maxcycle=1)
 ----------------------------------------------------------------------
 -----
 title
 -----
 Structure from the checkpoint file:  "Grambow2020_wb97xd3_006938_reverse_mol2.chk"
 Charge =  0 Multiplicity = 1

                         Standard orientation:
 ---------------------------------------------------------------------
 Center     Atomic      Atomic             Coordinates (Angstroms)
 Number     Number       Type             X           Y           Z
 ---------------------------------------------------------------------
      1          8           0       -1.011974   -0.735417   -0.416430
      2          6           0       -2.232906   -0.367978    0.045461
      3          7           0       -2.601613    0.725770    0.538677
      4          6           0        2.142378   -0.694862    0.559825
      5          6           0        2.514469    0.642660   -0.073841
      6          6           0        1.154413    0.115589   -0.142555
      7          6           0       -0.069178    0.259163   -0.583403
      8          1           0       -2.921567   -1.202543   -0.058317
      9          1           0       -1.844788    1.403160    0.606154
     10          1           0        2.496539   -1.599071    0.079197
     11          1           0        2.091234   -0.745903    1.641010
     12          1           0        2.710518    1.476931    0.589320
     13          1           0        3.121150    0.624516   -0.971603
     14          1           0       -0.401071    1.118434   -1.157976
 ---------------------------------------------------------------------

 SCF Done:  E(RHF) =  -323.004323878     A.U. after    2 cycles

 The electronic state is 1-A.
 Alpha  occ. eigenvalues --  -20.59806 -15.48856 -11.34904 -11.30879 -11.25864
 Alpha  occ. eigenvalues --  -11.25770 -11.25660  -1.53494  -1.21350  -1.17237
 Alpha  occ. eigenvalues --   -1.01290  -0.86500  -0.84861  -0.76695  -0.74902
 Alpha  occ. eigenvalues --   -0.70834  -0.68441  -0.66816  -0.59497  -0.57053
 Alpha  occ. eigenvalues --   -0.54187  -0.48656  -0.46838  -0.45934  -0.45233
 Alpha  occ. eigenvalues --   -0.37249
 Alpha virt. eigenvalues --    0.03428   0.03850   0.03938   0.04236   0.05761
 Alpha virt. eigenvalues --    0.06559   0.07355   0.09322   0.09693   0.11315
 Alpha virt. eigenvalues --    0.11716   0.12971   0.13145   0.13528   0.14026

 Mulliken charges:
               1
     1  O   -1.368975
     2  C   -0.013876
     3  N    0.534342
     4  C    0.053090
     5  C    0.086170
     6  C    0.126749
     7  C    0.596733
     8  H   -0.048746
     9  H    0.091932
    10  H    0.016074
    11  H    0.008863
    12  H    0.010101
    13  H    0.006157
    14  H   -0.098614
 Sum of Mulliken charges =  -0.00000

 Dipole moment (field-independent basis, Debye):
    X=              2.9284    Y=             -0.4032    Z=             -0.7089  Tot=              3.0399

 Test job not archived.
 1\1\GINC-SE220\SP\RHF\Aug-CC-pVDZ\C5H7N1O1\OHZDE\09-Apr-2025\0\\#t hf
 aug-cc-pvdz iop(5/13=1,5/36=2,99/5=2) pseudo=read geom=check guess=(re
 ad,tcheck) scf=(maxcycle=1)\\title\\0,1\O,0,-1.15712989,1.06928882,-0.
 2533707\C,0,-1.4500431,2.16535148,0.48951482\N,0,-0.79931475,2.6897189
 6,1.42604175\C,0,-0.23796658,-2.07180339,0.18632656\C,0,1.26722638,-1.
 83857289,0.0917374\C,0,0.31569248,-0.73340539,0.01781212\C,0,0.1173206
 7,0.54960553,-0.14548939\H,0,-2.40226972,2.575631,0.16323425\H,0,0.054
 06288,2.18060729,1.64682744\H,0,-0.7337994,-2.5301214,-0.66109353\H,0,

 Normal termination of Gaussian 16 at Wed Apr  9 18:01:10 2025.
