 Gaussian 16, Revision C.01,

 ----------------------------------------------------------------------
 #t hf aug-cc-pvdz symm=none int=(grid=ultrafine) guess=(read,tcheck) s
 table=(opt,rrhf)
 ----------------------------------------------------------------------
 -----
 title
 -----
 Symbolic Z-matrix:
 Charge =  0 Multiplicity = 1

 SCF Done:  E(RHF) =  -375.771518684     A.U. after   13 cycles
 Normal termination of Gaussian 16 at Wed Apr  9 03:46:40 2025.
 Gaussian 16:  ES64L-G16RevC.01  3-Jul-2019

 ----------------------------------------------------------------------
 #t hf aug-cc-pvdz iop(5/13=1,5/36=2,99/5=2) pseudo=read geom=check gue
 ss=(read,tcheck) scf=(maxcycle=1)
 ----------------------------------------------------------------------
 -----
 title
 -----
 Structure from the checkpoint file:  "Grambow2020_wb97xd3_007865_reverse_mol2.chk"
 Charge =  0 Multiplicity = 1

                         Standard orientation:
 ---------------------------------------------------------------------
 Center     Atomic      Atomic             Coordinates (Angstroms)
 Number     Number       Type             X           Y           Z
 ---------------------------------------------------------------------
      1          7           0       -2.242182   -0.531525   -0.266951
      2          6           0       -1.076183   -0.113496    0.406859
      3          8           0        0.087475   -0.939638    0.145550
      4          6           0       -0.580531    1.253759   -0.046695
      5          8           0        0.830230    1.147552   -0.008207
      6          6           0        1.179430   -0.156499   -0.013721
      7          7           0        2.366662   -0.527253   -0.150483
      8          1           0       -2.112777   -0.585528   -1.267878
      9          1           0       -2.600234   -1.409093    0.078220
     10          1           0       -0.897734    2.061334    0.609841
     11          1           0       -0.911984    1.467319   -1.068069
     12          1           0       -1.256411   -0.151963    1.483401
     13          1           0        2.429835   -1.536522   -0.090883
 ---------------------------------------------------------------------

 SCF Done:  E(RHF) =  -376.151946317     A.U. after    2 cycles

 The electronic state is 1-A.
 Alpha  occ. eigenvalues --  -20.59524 -20.59511 -15.52313 -15.46673 -11.39670
 Alpha  occ. eigenvalues --  -11.35313 -11.31883  -1.58757  -1.48003  -1.24165
 Alpha  occ. eigenvalues --   -1.20007  -1.02111  -0.89872  -0.84051  -0.77360
 Alpha  occ. eigenvalues --   -0.74986  -0.72601  -0.70472  -0.65236  -0.62551
 Alpha  occ. eigenvalues --   -0.60318  -0.55752  -0.54986  -0.50907  -0.47638
 Alpha  occ. eigenvalues --   -0.46555  -0.42071
 Alpha virt. eigenvalues --    0.02745   0.04011   0.04387   0.05211   0.05965
 Alpha virt. eigenvalues --    0.06412   0.09275   0.10853   0.11796   0.12563
 Alpha virt. eigenvalues --    0.13590   0.14258   0.14686   0.14980   0.15557

 Mulliken charges:
               1
     1  N    0.473542
     2  C   -0.191609
     3  O   -1.456020
     4  C    0.478635
     5  O   -1.371242
     6  C    0.401829
     7  N    0.815606
     8  H    0.233318
     9  H    0.190782
    10  H    0.109326
    11  H    0.107468
    12  H   -0.022773
    13  H    0.231138
 Sum of Mulliken charges =  -0.00000

 Dipole moment (field-independent basis, Debye):
    X=             -4.7056    Y=             -0.7906    Z=              0.2740  Tot=              4.7794

 Test job not archived.
 1\1\GINC-SE195\SP\RHF\Aug-CC-pVDZ\C3H6N2O2\OHZDE\09-Apr-2025\0\\#t hf
 aug-cc-pvdz iop(5/13=1,5/36=2,99/5=2) pseudo=read geom=check guess=(re
 ad,tcheck) scf=(maxcycle=1)\\title\\0,1\N,0,-2.04353457,0.06485064,-0.
 26800215\C,0,-0.70268631,-0.31586978,-0.48130605\O,0,0.22132099,0.7984
 4508,-0.5782998\C,0,-0.10934362,-1.09607979,0.68487876\O,0,1.2367177,-
 0.66369097,0.74940997\C,0,1.35992051,0.5098228,0.09351011\N,0,2.408605
 82,1.19092265,0.13873347\H,0,-2.15652347,0.6400975,0.55530804\H,0,-2.4
 5035442,0.52848994,-1.06612919\H,0,-0.13346209,-2.1732222,0.53316714\H

 Normal termination of Gaussian 16 at Wed Apr  9 03:46:47 2025.
