 Gaussian 16, Revision C.01,

 ----------------------------------------------------------------------
 #t hf aug-cc-pvdz symm=none int=(grid=ultrafine) guess=(read,tcheck) s
 table=(opt,rrhf)
 ----------------------------------------------------------------------
 -----
 title
 -----
 Symbolic Z-matrix:
 Charge =  0 Multiplicity = 1

 SCF Done:  E(RHF) =  -268.646487645     A.U. after   16 cycles
 Normal termination of Gaussian 16 at Wed Apr  9 15:56:54 2025.
 Gaussian 16:  ES64L-G16RevC.01  3-Jul-2019

 ----------------------------------------------------------------------
 #t hf aug-cc-pvdz iop(5/13=1,5/36=2,99/5=2) pseudo=read geom=check gue
 ss=(read,tcheck) scf=(maxcycle=1)
 ----------------------------------------------------------------------
 -----
 title
 -----
 Structure from the checkpoint file:  "Grambow2020_b97d3_007035_forward_mol1.chk"
 Charge =  0 Multiplicity = 1

                         Standard orientation:
 ---------------------------------------------------------------------
 Center     Atomic      Atomic             Coordinates (Angstroms)
 Number     Number       Type             X           Y           Z
 ---------------------------------------------------------------------
      1          6           0       -2.315855    0.513796    0.335896
      2          6           0       -1.575176   -0.125069   -0.644668
      3          6           0       -0.489093   -0.756605   -0.676701
      4          6           0        0.524109   -0.990461    0.246057
      5          6           0        1.814060   -0.186670    0.187615
      6          8           0        1.622355    1.175451   -0.133305
      7          1           0       -1.204024    0.205477    1.406644
      8          1           0       -2.363713    1.605879    0.357946
      9          1           0       -3.188993    0.008627    0.759683
     10          1           0       -0.368928   -0.237567    1.413456
     11          1           0        0.648372   -2.004853    0.646539
     12          1           0        2.306806   -0.221124    1.169078
     13          1           0        2.492675   -0.690277   -0.532403
     14          1           0        0.950689    1.200288   -0.843701
 ---------------------------------------------------------------------

 SCF Done:  E(RHF) =  -268.928845534     A.U. after    2 cycles

 The electronic state is 1-A.
 Alpha  occ. eigenvalues --  -20.55480 -11.30564 -11.30335 -11.29380 -11.25985
 Alpha  occ. eigenvalues --  -11.25127  -1.45344  -1.12030  -1.03215  -0.94325
 Alpha  occ. eigenvalues --   -0.85533  -0.70108  -0.69116  -0.66159  -0.64964
 Alpha  occ. eigenvalues --   -0.62381  -0.61147  -0.58176  -0.51947  -0.45812
 Alpha  occ. eigenvalues --   -0.39148  -0.38783  -0.36381
 Alpha virt. eigenvalues --    0.03262   0.03610   0.04414   0.04668   0.05815
 Alpha virt. eigenvalues --    0.06812   0.07506   0.08260   0.08974   0.10017
 Alpha virt. eigenvalues --    0.10741   0.12350   0.12734   0.13547   0.13858

 Mulliken charges:
               1
     1  C   -0.505350
     2  C   -0.080269
     3  C   -0.078401
     4  C   -0.645960
     5  C    0.776883
     6  O   -1.156855
     7  H    0.324272
     8  H    0.137177
     9  H    0.121110
    10  H    0.334654
    11  H    0.088910
    12  H    0.100585
    13  H    0.185670
    14  H    0.397574
 Sum of Mulliken charges =  -0.00000

 Dipole moment (field-independent basis, Debye):
    X=             -0.5471    Y=             -0.9725    Z=              0.8986  Tot=              1.4327

 Test job not archived.
 1\1\GINC-SE129\SP\RHF\Aug-CC-pVDZ\C5H8O1\OHZDE\09-Apr-2025\0\\#t hf au
 g-cc-pvdz iop(5/13=1,5/36=2,99/5=2) pseudo=read geom=check guess=(read
 ,tcheck) scf=(maxcycle=1)\\title\\0,1\C,0,2.19961011,0.36910243,-0.479
 20406\C,0,1.52497211,-0.74127902,0.00056426\C,0,0.33535487,-1.14573746
 ,-0.02517438\C,0,-0.86846415,-0.5910979,-0.44463202\C,0,-1.84016608,-0
 .01118333,0.57171643\O,0,-1.21191611,0.69019743,1.62456029\H,0,0.85222
 287,0.98386247,-1.0124458\H,0,2.54717627,1.13805211,0.21602055\H,0,2.7
 9004116,0.28023026,-1.39607567\H,0,-0.05691651,0.72495372,-1.02479104\

 Normal termination of Gaussian 16 at Wed Apr  9 15:56:58 2025.
