 Gaussian 16, Revision C.01,

 ----------------------------------------------------------------------
 #t hf aug-cc-pvdz symm=none int=(grid=ultrafine) guess=(read,tcheck) s
 table=(opt,rrhf)
 ----------------------------------------------------------------------
 -----
 title
 -----
 Symbolic Z-matrix:
 Charge =  0 Multiplicity = 1

 SCF Done:  E(RHF) =  -304.594529094     A.U. after   15 cycles
 Normal termination of Gaussian 16 at Wed Apr  9 03:14:50 2025.
 Gaussian 16:  ES64L-G16RevC.01  3-Jul-2019

 ----------------------------------------------------------------------
 #t hf aug-cc-pvdz iop(5/13=1,5/36=2,99/5=2) pseudo=read geom=check gue
 ss=(read,tcheck) scf=(maxcycle=1)
 ----------------------------------------------------------------------
 -----
 title
 -----
 Structure from the checkpoint file:  "Grambow2020_b97d3_006925_reverse_mol2.chk"
 Charge =  0 Multiplicity = 1

                         Standard orientation:
 ---------------------------------------------------------------------
 Center     Atomic      Atomic             Coordinates (Angstroms)
 Number     Number       Type             X           Y           Z
 ---------------------------------------------------------------------
      1          8           0       -0.913410    1.305849   -0.330932
      2          6           0       -0.850197   -0.042451   -0.101338
      3          6           0       -1.766002   -0.771969    0.561434
      4          6           0        1.680673    0.268952    0.993839
      5          8           0        1.652149   -0.156132   -0.252251
      6          6           0        0.348995   -0.644344   -0.765125
      7          1           0       -1.621990    1.679205    0.227242
      8          1           0       -2.670079   -0.327149    0.979271
      9          1           0       -1.613196   -1.835618    0.722487
     10          1           0        2.774273    0.542824    1.083817
     11          1           0        0.360050   -1.732334   -0.649640
     12          1           0        0.380208   -0.385800   -1.830568
 ---------------------------------------------------------------------

 SCF Done:  E(RHF) =  -304.899446422     A.U. after    2 cycles

 The electronic state is 1-A.
 Alpha  occ. eigenvalues --  -20.61241 -20.58681 -11.32258 -11.31621 -11.30415
 Alpha  occ. eigenvalues --  -11.23865  -1.52139  -1.49301  -1.07232  -0.97778
 Alpha  occ. eigenvalues --   -0.85559  -0.78068  -0.70312  -0.68905  -0.64627
 Alpha  occ. eigenvalues --   -0.63758  -0.60442  -0.56890  -0.55049  -0.53748
 Alpha  occ. eigenvalues --   -0.51221  -0.36415  -0.35744
 Alpha virt. eigenvalues --    0.03440   0.03986   0.04411   0.05070   0.06181
 Alpha virt. eigenvalues --    0.06887   0.08792   0.10160   0.10571   0.12599
 Alpha virt. eigenvalues --    0.13124   0.14073   0.15010   0.15159   0.16053

 Mulliken charges:
               1
     1  O   -1.569014
     2  C    1.789427
     3  C   -0.258800
     4  C    0.111255
     5  O   -0.991949
     6  C    0.427064
     7  H    0.385781
     8  H   -0.162958
     9  H   -0.072611
    10  H    0.125703
    11  H    0.090001
    12  H    0.126102
 Sum of Mulliken charges =  -0.00000

 Dipole moment (field-independent basis, Debye):
    X=             -1.2652    Y=             -0.7145    Z=             -0.6864  Tot=              1.6070

 Test job not archived.
 1\1\GINC-SE222\SP\RHF\Aug-CC-pVDZ\C4H6O2\OHZDE\09-Apr-2025\0\\#t hf au
 g-cc-pvdz iop(5/13=1,5/36=2,99/5=2) pseudo=read geom=check guess=(read
 ,tcheck) scf=(maxcycle=1)\\title\\0,1\O,0,0.02349026,-1.21830306,-1.17
 445273\C,0,-0.09213413,-0.68657761,0.0819398\C,0,-0.98220138,-1.063923
 89,1.01764868\C,0,-0.28155552,1.85444657,-1.01760818\O,0,0.90374569,1.
 53008336,-0.54421686\C,0,0.97245878,0.33564298,0.33224984\H,0,-0.76243
 688,-1.77104804,-1.34716785\H,0,-1.70671851,-1.86005645,0.84141781\H,0
 ,-1.01970396,-0.55936469,1.97923633\H,0,-0.01161543,2.78096208,-1.6073

 Normal termination of Gaussian 16 at Wed Apr  9 03:14:54 2025.
