 Gaussian 16, Revision C.01,

 ----------------------------------------------------------------------
 #t hf aug-cc-pvdz symm=none int=(grid=ultrafine) guess=(read,tcheck) s
 table=(opt,rrhf)
 ----------------------------------------------------------------------
 -----
 title
 -----
 Symbolic Z-matrix:
 Charge =  0 Multiplicity = 1

 SCF Done:  E(RHF) =  -360.964639564     A.U. after   14 cycles
 Normal termination of Gaussian 16 at Wed Apr  9 03:59:21 2025.
 Gaussian 16:  ES64L-G16RevC.01  3-Jul-2019

 ----------------------------------------------------------------------
 #t hf aug-cc-pvdz iop(5/13=1,5/36=2,99/5=2) pseudo=read geom=check gue
 ss=(read,tcheck) scf=(maxcycle=1)
 ----------------------------------------------------------------------
 -----
 title
 -----
 Structure from the checkpoint file:  "Grambow2020_wb97xd3_008722_forward_mol2.chk"
 Charge =  0 Multiplicity = 1

                         Standard orientation:
 ---------------------------------------------------------------------
 Center     Atomic      Atomic             Coordinates (Angstroms)
 Number     Number       Type             X           Y           Z
 ---------------------------------------------------------------------
      1          6           0       -2.417926   -0.785930   -0.103824
      2          6           0       -1.121928   -0.021318   -0.308696
      3          8           0       -1.224680    1.296979    0.235551
      4          6           0        0.048947   -0.709030    0.378782
      5          6           0        1.441581   -0.203922    0.029379
      6          8           0        2.372464   -0.969700   -0.117362
      7          7           0        1.571190    1.138760   -0.082676
      8          1           0       -2.636474   -0.884989    0.961300
      9          1           0       -2.352177   -1.782859   -0.542569
     10          1           0       -3.254994   -0.268202   -0.579010
     11          1           0       -0.908676    0.051648   -1.383794
     12          1           0       -1.957277    1.749312   -0.186543
     13          1           0       -0.083050   -0.617373    1.461888
     14          1           0        0.045965   -1.771454    0.138703
     15          1           0        2.481660    1.513229   -0.278973
     16          1           0        0.780378    1.742336    0.068374
 ---------------------------------------------------------------------

 SCF Done:  E(RHF) =  -361.338245223     A.U. after    2 cycles

 The electronic state is 1-A.
 Alpha  occ. eigenvalues --  -20.57000 -20.49636 -15.51106 -11.34788 -11.30920
 Alpha  occ. eigenvalues --  -11.24501 -11.24363  -1.47460  -1.44843  -1.21319
 Alpha  occ. eigenvalues --   -1.07869  -0.98139  -0.85114  -0.81289  -0.75781
 Alpha  occ. eigenvalues --   -0.73039  -0.67078  -0.64640  -0.61889  -0.59912
 Alpha  occ. eigenvalues --   -0.56848  -0.56338  -0.54886  -0.53864  -0.50184
 Alpha  occ. eigenvalues --   -0.46199  -0.42310  -0.41012
 Alpha virt. eigenvalues --    0.02683   0.03619   0.04061   0.04377   0.06112
 Alpha virt. eigenvalues --    0.06222   0.07503   0.07786   0.09430   0.10733
 Alpha virt. eigenvalues --    0.12043   0.12870   0.13781   0.14424   0.14902

 Mulliken charges:
               1
     1  C   -0.375654
     2  C    0.749053
     3  O   -1.388664
     4  C   -0.215989
     5  C    0.313320
     6  O   -1.315258
     7  N    0.775792
     8  H    0.213672
     9  H    0.183417
    10  H    0.103568
    11  H    0.125448
    12  H    0.302061
    13  H    0.253698
    14  H    0.144674
    15  H    0.064576
    16  H    0.066285
 Sum of Mulliken charges =  -0.00000

 Dipole moment (field-independent basis, Debye):
    X=             -4.2151    Y=              2.1990    Z=             -0.6939  Tot=              4.8046

 Test job not archived.
 1\1\GINC-SE060\SP\RHF\Aug-CC-pVDZ\C4H9N1O2\OHZDE\09-Apr-2025\0\\#t hf
 aug-cc-pvdz iop(5/13=1,5/36=2,99/5=2) pseudo=read geom=check guess=(re
 ad,tcheck) scf=(maxcycle=1)\\title\\0,1\C,0,-2.0391954,-0.07770826,-0.
 83328471\C,0,-0.56122353,0.24609369,-0.70302918\O,0,-0.37695438,1.4845
 9384,-0.01249902\C,0,0.18069959,-0.82781156,0.07978659\C,0,1.70136146,
 -0.76945335,0.05102154\O,0,2.37040609,-1.7793686,-0.03230668\N,0,2.246
 16727,0.46602931,0.14546266\H,0,-2.49439673,-0.17962383,0.15386817\H,0
 ,-2.18401272,-1.00848554,-1.38407439\H,0,-2.56521743,0.71347929,-1.373

 Normal termination of Gaussian 16 at Wed Apr  9 03:59:26 2025.
