 Gaussian 16, Revision C.01,

 ----------------------------------------------------------------------
 #t hf aug-cc-pvdz symm=none int=(grid=ultrafine) guess=(read,tcheck) s
 table=(opt,rrhf)
 ----------------------------------------------------------------------
 -----
 title
 -----
 Symbolic Z-matrix:
 Charge =  0 Multiplicity = 1

 SCF Done:  E(RHF) =  -307.696511566     A.U. after   16 cycles

 1\1\GINC-SE168\Stability\RHF\Aug-CC-pVDZ\C6H10O1\OHZDE\09-Apr-2025\0\\
 #t hf aug-cc-pvdz symm=none int=(grid=ultrafine) guess=(read,tcheck) s
 table=(opt,rrhf)\\title\\0,1\C,0,2.31278694,0.55417325,0.33747409\C,0,
 0.40075873,-0.29396815,-0.26210643\C,0,-0.05640869,-1.22083545,0.53924
 823\C,0,-1.5481711,-1.03094929,0.47266773\C,0,-1.71371507,0.03267953,-
 0.63977347\C,0,-0.37938442,0.91744402,-0.77684842\O,0,-0.22365638,1.91
 727084,0.02673428\H,0,2.66215454,0.4993074,1.36774147\H,0,3.0031715,1.
 09371991,-0.31011442\H,0,2.31861999,-0.47877016,-0.04614536\H,0,0.4929

 Normal termination of Gaussian 16 at Wed Apr  9 18:35:02 2025.
 Gaussian 16:  ES64L-G16RevC.01  3-Jul-2019

 ----------------------------------------------------------------------
 #t hf aug-cc-pvdz iop(5/13=1,5/36=2,99/5=2) pseudo=read geom=check gue
 ss=(read,tcheck) scf=(maxcycle=1)
 ----------------------------------------------------------------------
 -----
 title
 -----
 Structure from the checkpoint file:  "Grambow2020_wb97xd3_007733_forward_mol1.chk"
 Charge =  0 Multiplicity = 1

                         Standard orientation:
 ---------------------------------------------------------------------
 Center     Atomic      Atomic             Coordinates (Angstroms)
 Number     Number       Type             X           Y           Z
 ---------------------------------------------------------------------
      1          6           0       -2.438809   -0.507802    0.014306
      2          6           0       -0.311922   -0.455230    0.470686
      3          6           0        0.378275   -1.437671   -0.047669
      4          6           0        1.710850   -0.804571   -0.346452
      5          6           0        1.578075    0.600785    0.288830
      6          6           0        0.033299    1.032849    0.383823
      7          8           0       -0.520785    1.554770   -0.660322
      8          1           0       -2.823201   -1.053094   -0.846751
      9          1           0       -3.223423    0.007792    0.567167
     10          1           0       -2.055557   -1.267076    0.714871
     11          1           0        0.052736   -2.434685   -0.298394
     12          1           0        1.818917   -0.746732   -1.432303
     13          1           0        2.564882   -1.357756    0.047431
     14          1           0        1.974047    0.585670    1.304631
     15          1           0        2.076475    1.378094   -0.285858
     16          1           0       -0.110312    1.542553    1.354748
     17          1           0       -1.806890    0.336919   -0.424105
 ---------------------------------------------------------------------

 SCF Done:  E(RHF) =  -308.020824050     A.U. after    2 cycles

 The electronic state is 1-A.
 Alpha  occ. eigenvalues --  -20.42923 -11.34670 -11.29725 -11.29116 -11.27289
 Alpha  occ. eigenvalues --  -11.24814 -11.24315  -1.35883  -1.17485  -1.00919
 Alpha  occ. eigenvalues --   -0.97157  -0.94252  -0.80590  -0.75233  -0.66784
 Alpha  occ. eigenvalues --   -0.66374  -0.63909  -0.59701  -0.58111  -0.56640
 Alpha  occ. eigenvalues --   -0.53998  -0.53323  -0.51691  -0.48799  -0.42246
 Alpha  occ. eigenvalues --   -0.34745  -0.33590
 Alpha virt. eigenvalues --    0.02314   0.02806   0.03616   0.04836   0.04988
 Alpha virt. eigenvalues --    0.05524   0.05844   0.06799   0.07171   0.08662
 Alpha virt. eigenvalues --    0.09440   0.10599   0.11813   0.12841   0.13491

 Mulliken charges:
               1
     1  C   -0.383608
     2  C   -0.256825
     3  C    0.409136
     4  C   -0.490373
     5  C   -0.259238
     6  C    0.977622
     7  O   -1.638710
     8  H    0.121946
     9  H    0.115098
    10  H    0.284004
    11  H   -0.133495
    12  H    0.238052
    13  H    0.183772
    14  H    0.158192
    15  H    0.136895
    16  H    0.192798
    17  H    0.344737
 Sum of Mulliken charges =   0.00000

 Dipole moment (field-independent basis, Debye):
    X=              1.2583    Y=             -5.1380    Z=              1.7763  Tot=              5.5801

 Test job not archived.
 1\1\GINC-SE168\SP\RHF\Aug-CC-pVDZ\C6H10O1\OHZDE\09-Apr-2025\0\\#t hf a
 ug-cc-pvdz iop(5/13=1,5/36=2,99/5=2) pseudo=read geom=check guess=(rea
 d,tcheck) scf=(maxcycle=1)\\title\\0,1\C,0,2.31278694,0.55417325,0.337
 47409\C,0,0.40075873,-0.29396815,-0.26210643\C,0,-0.05640869,-1.220835
 45,0.53924823\C,0,-1.5481711,-1.03094929,0.47266773\C,0,-1.71371507,0.
 03267953,-0.63977347\C,0,-0.37938442,0.91744402,-0.77684842\O,0,-0.223
 65638,1.91727084,0.02673428\H,0,2.66215454,0.4993074,1.36774147\H,0,3.
 0031715,1.09371991,-0.31011442\H,0,2.31861999,-0.47877016,-0.04614536\

 Normal termination of Gaussian 16 at Wed Apr  9 18:35:08 2025.
