 Gaussian 16, Revision C.01,

 ----------------------------------------------------------------------
 #t hf aug-cc-pvdz symm=none int=(grid=ultrafine) guess=(read,tcheck) s
 table=(opt,rrhf)
 ----------------------------------------------------------------------
 -----
 title
 -----
 Symbolic Z-matrix:
 Charge =  0 Multiplicity = 1

 SCF Done:  E(RHF) =  -358.422521709     A.U. after   17 cycles
 Normal termination of Gaussian 16 at Wed Apr  9 17:42:20 2025.
 Gaussian 16:  ES64L-G16RevC.01  3-Jul-2019

 ----------------------------------------------------------------------
 #t hf aug-cc-pvdz iop(5/13=1,5/36=2,99/5=2) pseudo=read geom=check gue
 ss=(read,tcheck) scf=(maxcycle=1)
 ----------------------------------------------------------------------
 -----
 title
 -----
 Structure from the checkpoint file:  "Grambow2020_wb97xd3_006782_forward_mol1.chk"
 Charge =  0 Multiplicity = 1

                         Standard orientation:
 ---------------------------------------------------------------------
 Center     Atomic      Atomic             Coordinates (Angstroms)
 Number     Number       Type             X           Y           Z
 ---------------------------------------------------------------------
      1          8           0        1.860412   -0.736128   -0.424760
      2          6           0        0.941250   -0.652363    0.334330
      3          6           0       -0.590621   -0.744441   -0.398700
      4          6           0       -1.619658   -0.967705    0.508167
      5          7           0       -0.942401    0.619870   -0.847693
      6          6           0       -0.228770    1.466582   -0.150676
      7          8           0        0.579768    1.114296    0.754615
      8          1           0        0.950903   -0.993980    1.376285
      9          1           0       -0.483213   -1.453898   -1.212981
     10          1           0       -1.765823   -0.249483    1.308115
     11          1           0       -2.308709   -1.806423    0.456699
     12          1           0       -0.331001    2.526907   -0.391841
 ---------------------------------------------------------------------

 SCF Done:  E(RHF) =  -358.777771128     A.U. after    2 cycles

 The electronic state is 1-A.
 Alpha  occ. eigenvalues --  -20.54012 -20.50782 -15.50417 -11.39857 -11.37362
 Alpha  occ. eigenvalues --  -11.34370 -11.29730  -1.48662  -1.45010  -1.23765
 Alpha  occ. eigenvalues --   -1.09329  -0.92261  -0.83828  -0.80287  -0.73802
 Alpha  occ. eigenvalues --   -0.71202  -0.67654  -0.64922  -0.62647  -0.59391
 Alpha  occ. eigenvalues --   -0.56185  -0.52553  -0.49013  -0.41604  -0.40567
 Alpha  occ. eigenvalues --   -0.37297
 Alpha virt. eigenvalues --   -0.04204   0.01592   0.03489   0.04561   0.04842
 Alpha virt. eigenvalues --    0.05900   0.09312   0.09759   0.10280   0.10507
 Alpha virt. eigenvalues --    0.12402   0.13054   0.14288   0.14620   0.15198

 Mulliken charges:
               1
     1  O   -1.256879
     2  C    1.543818
     3  C   -0.388613
     4  C    0.220513
     5  N    0.428503
     6  C    0.422874
     7  O   -1.166551
     8  H    0.119325
     9  H   -0.083685
    10  H    0.049187
    11  H    0.060615
    12  H    0.050894
 Sum of Mulliken charges =  -0.00000

 Dipole moment (field-independent basis, Debye):
    X=             -5.6021    Y=             -2.8220    Z=              3.1797  Tot=              7.0326

 Test job not archived.
 1\1\GINC-SE135\SP\RHF\Aug-CC-pVDZ\C4H5N1O2\OHZDE\09-Apr-2025\0\\#t hf
 aug-cc-pvdz iop(5/13=1,5/36=2,99/5=2) pseudo=read geom=check guess=(re
 ad,tcheck) scf=(maxcycle=1)\\title\\0,1\O,0,2.04049207,-0.99890136,-0.
 3738768\C,0,1.0928009,-0.3615451,-0.7256592\C,0,0.34960507,0.53967868,
 0.51042175\C,0,-0.5286403,1.50491431,0.03274099\N,0,-0.60876858,-0.358
 54614,1.18968687\C,0,-0.89812968,-1.33194211,0.36458446\O,0,-0.4285410
 8,-1.41390559,-0.80595362\H,0,0.95857133,0.06943206,-1.7250123\H,0,1.1
 5692523,0.87667256,1.15275195\H,0,-1.36329657,1.182964,-0.58111546\H,0

 Normal termination of Gaussian 16 at Wed Apr  9 17:42:25 2025.
