 Gaussian 16, Revision C.01,

 ----------------------------------------------------------------------
 #t hf aug-cc-pvdz symm=none int=(grid=ultrafine) guess=(read,tcheck) s
 table=(opt,rrhf)
 ----------------------------------------------------------------------
 -----
 title
 -----
 Symbolic Z-matrix:
 Charge =  0 Multiplicity = 1

 SCF Done:  E(RHF) =  -343.577226803     A.U. after   16 cycles
 Normal termination of Gaussian 16 at Wed Apr  9 18:51:50 2025.
 Gaussian 16:  ES64L-G16RevC.01  3-Jul-2019

 ----------------------------------------------------------------------
 #t hf aug-cc-pvdz iop(5/13=1,5/36=2,99/5=2) pseudo=read geom=check gue
 ss=(read,tcheck) scf=(maxcycle=1)
 ----------------------------------------------------------------------
 -----
 title
 -----
 Structure from the checkpoint file:  "Grambow2020_wb97xd3_008132_forward_mol1.chk"
 Charge =  0 Multiplicity = 1

                         Standard orientation:
 ---------------------------------------------------------------------
 Center     Atomic      Atomic             Coordinates (Angstroms)
 Number     Number       Type             X           Y           Z
 ---------------------------------------------------------------------
      1          6           0        1.453749   -0.010102   -0.620947
      2          8           0        0.244523   -0.671071   -0.971943
      3          6           0       -1.023748    0.308006   -0.556859
      4          6           0       -0.233793    1.314395    0.310873
      5          6           0        0.926156    0.406814    0.738128
      6          6           0        0.293862   -0.923867    1.033943
      7          8           0       -1.789025   -0.463618    0.093731
      8          1           0        1.715007    0.793827   -1.313555
      9          1           0        2.268282   -0.737726   -0.582154
     10          1           0       -1.338580    0.660758   -1.552838
     11          1           0       -0.874746    1.631873    1.131260
     12          1           0        0.140935    2.192417   -0.219787
     13          1           0        1.576753    0.802146    1.521074
     14          1           0        0.876866   -1.819358    0.858746
     15          1           0       -0.505867   -1.017894    1.752123
 ---------------------------------------------------------------------

 SCF Done:  E(RHF) =  -343.931679439     A.U. after    2 cycles

 The electronic state is 1-A.
 Alpha  occ. eigenvalues --  -20.54891 -20.44410 -11.38088 -11.32189 -11.29808
 Alpha  occ. eigenvalues --  -11.27952 -11.24003  -1.46071  -1.36553  -1.12119
 Alpha  occ. eigenvalues --   -0.99297  -0.94430  -0.81572  -0.78494  -0.72208
 Alpha  occ. eigenvalues --   -0.70958  -0.66984  -0.61737  -0.58651  -0.56324
 Alpha  occ. eigenvalues --   -0.54119  -0.52346  -0.52082  -0.48580  -0.43744
 Alpha  occ. eigenvalues --   -0.36288  -0.34846
 Alpha virt. eigenvalues --    0.01918   0.02932   0.03532   0.04592   0.05419
 Alpha virt. eigenvalues --    0.06086   0.06352   0.06574   0.08639   0.10658
 Alpha virt. eigenvalues --    0.11599   0.12086   0.13287   0.13750   0.14328

 Mulliken charges:
               1
     1  C    0.711268
     2  O   -1.308213
     3  C    1.786411
     4  C   -0.197849
     5  C   -0.210115
     6  C    0.488485
     7  O   -1.509815
     8  H    0.032713
     9  H   -0.021740
    10  H    0.107093
    11  H    0.061320
    12  H    0.046216
    13  H    0.034347
    14  H   -0.030854
    15  H    0.010730
 Sum of Mulliken charges =  -0.00000

 Dipole moment (field-independent basis, Debye):
    X=              5.1772    Y=              1.3803    Z=              2.4503  Tot=              5.8917

 Test job not archived.
 1\1\GINC-SE173\SP\RHF\Aug-CC-pVDZ\C5H8O2\OHZDE\09-Apr-2025\0\\#t hf au
 g-cc-pvdz iop(5/13=1,5/36=2,99/5=2) pseudo=read geom=check guess=(read
 ,tcheck) scf=(maxcycle=1)\\title\\0,1\C,0,-1.21053428,0.59813959,0.442
 3924\O,0,-0.18020984,1.3399961,-0.19822097\C,0,0.58891851,0.34288097,-
 1.27227943\C,0,-0.01055984,-0.99434334,-0.7800774\C,0,-0.31431727,-0.6
 0337388,0.67133711\C,0,0.86801095,0.21216325,1.11294188\O,0,1.81456612
 ,0.50533566,-0.9971127\H,0,-2.0835695,0.44435806,-0.19668837\H,0,-1.51
 409652,1.11238914,1.35770905\H,0,0.196755,0.73471268,-2.22527686\H,0,0

 Normal termination of Gaussian 16 at Wed Apr  9 18:51:55 2025.
