 Gaussian 16, Revision C.01,

 ----------------------------------------------------------------------
 #t hf aug-cc-pvdz symm=none int=(grid=ultrafine) guess=(read,tcheck) s
 table=(opt,rrhf)
 ----------------------------------------------------------------------
 -----
 title
 -----
 Symbolic Z-matrix:
 Charge =  0 Multiplicity = 1

 SCF Done:  E(RHF) =  -376.891921633     A.U. after   15 cycles
 Normal termination of Gaussian 16 at Wed Apr  9 03:59:45 2025.
 Gaussian 16:  ES64L-G16RevC.01  3-Jul-2019

 ----------------------------------------------------------------------
 #t hf aug-cc-pvdz iop(5/13=1,5/36=2,99/5=2) pseudo=read geom=check gue
 ss=(read,tcheck) scf=(maxcycle=1)
 ----------------------------------------------------------------------
 -----
 title
 -----
 Structure from the checkpoint file:  "Grambow2020_wb97xd3_008739_reverse_mol2.chk"
 Charge =  0 Multiplicity = 1

                         Standard orientation:
 ---------------------------------------------------------------------
 Center     Atomic      Atomic             Coordinates (Angstroms)
 Number     Number       Type             X           Y           Z
 ---------------------------------------------------------------------
      1          7           0       -2.292428   -0.818406    0.424640
      2          6           0       -1.182439   -0.298445   -0.308951
      3          8           0       -0.240291   -1.312097   -0.399925
      4          7           0       -0.571890    0.857198    0.366240
      5          6           0       -0.637129    1.961981   -0.232220
      6          6           0        2.575245   -0.063838    0.643597
      7          8           0        2.427588   -0.282246   -0.529186
      8          1           0       -1.990937   -1.078649    1.355598
      9          1           0       -3.030352   -0.132381    0.498958
     10          1           0       -1.542850    0.010438   -1.306111
     11          1           0       -0.214736    2.852739    0.229778
     12          1           0       -1.108288    2.081327   -1.216372
     13          1           0        1.736919   -0.145800    1.354879
     14          1           0        3.559050    0.235540    1.045998
     15          1           0        0.608979   -0.938201   -0.680556
 ---------------------------------------------------------------------

 SCF Done:  E(RHF) =  -377.276141614     A.U. after    2 cycles

 The electronic state is 1-A.
 Alpha  occ. eigenvalues --  -20.57427 -20.53323 -15.50924 -15.48338 -11.35828
 Alpha  occ. eigenvalues --  -11.33948 -11.29554  -1.50437  -1.45886  -1.24769
 Alpha  occ. eigenvalues --   -1.17095  -0.92276  -0.88190  -0.82705  -0.75162
 Alpha  occ. eigenvalues --   -0.72151  -0.70818  -0.66963  -0.66227  -0.64181
 Alpha  occ. eigenvalues --   -0.60904  -0.55006  -0.54001  -0.49841  -0.48100
 Alpha  occ. eigenvalues --   -0.44652  -0.44416  -0.42762
 Alpha virt. eigenvalues --    0.03092   0.03935   0.04519   0.04995   0.05915
 Alpha virt. eigenvalues --    0.06632   0.07027   0.07539   0.08858   0.09273
 Alpha virt. eigenvalues --    0.11596   0.12319   0.14189   0.14963   0.15306

 Mulliken charges:
               1
     1  N    0.396429
     2  C   -0.155199
     3  O   -1.415006
     4  N    0.678645
     5  C   -0.395293
     6  C    0.648557
     7  O   -0.890118
     8  H    0.215603
     9  H    0.185806
    10  H   -0.049460
    11  H   -0.013129
    12  H    0.094897
    13  H    0.191583
    14  H    0.068243
    15  H    0.438442
 Sum of Mulliken charges =   0.00000

 Dipole moment (field-independent basis, Debye):
    X=              0.7770    Y=              4.0144    Z=              1.3853  Tot=              4.3172

 Test job not archived.
 1\1\GINC-SE126\SP\RHF\Aug-CC-pVDZ\C3H8N2O2\OHZDE\09-Apr-2025\0\\#t hf
 aug-cc-pvdz iop(5/13=1,5/36=2,99/5=2) pseudo=read geom=check guess=(re
 ad,tcheck) scf=(maxcycle=1)\\title\\0,1\N,0,2.21549684,0.93209409,-0.1
 3245501\C,0,0.81889224,0.77651893,-0.38912706\O,0,0.14236437,1.550024,
 0.54222131\N,0,0.38767751,-0.62270799,-0.24636131\C,0,-0.03141458,-1.1
 9479462,-1.28560957\C,0,-2.05391307,-0.39274159,1.94805061\O,0,-2.4242
 1683,0.45365094,1.17901263\H,0,2.42811947,0.59572381,0.79864833\H,0,2.
 76642153,0.41352837,-0.80197514\H,0,0.61825621,1.11644173,-1.42054912\

 Normal termination of Gaussian 16 at Wed Apr  9 03:59:50 2025.
