 Gaussian 16, Revision C.01,

 ----------------------------------------------------------------------
 #t hf aug-cc-pvdz symm=none int=(grid=ultrafine) guess=(read,tcheck) s
 table=(opt,rrhf)
 ----------------------------------------------------------------------
 -----
 title
 -----
 Symbolic Z-matrix:
 Charge =  0 Multiplicity = 1

 SCF Done:  E(RHF) =  -317.685168148     A.U. after   16 cycles
 Normal termination of Gaussian 16 at Wed Apr  9 18:41:20 2025.
 Gaussian 16:  ES64L-G16RevC.01  3-Jul-2019

 ----------------------------------------------------------------------
 #t hf aug-cc-pvdz iop(5/13=1,5/36=2,99/5=2) pseudo=read geom=check gue
 ss=(read,tcheck) scf=(maxcycle=1)
 ----------------------------------------------------------------------
 -----
 title
 -----
 Structure from the checkpoint file:  "Grambow2020_wb97xd3_007979_reverse_mol2.chk"
 Charge =  0 Multiplicity = 1

                         Standard orientation:
 ---------------------------------------------------------------------
 Center     Atomic      Atomic             Coordinates (Angstroms)
 Number     Number       Type             X           Y           Z
 ---------------------------------------------------------------------
      1          7           0       -2.208480   -0.015824   -0.054102
      2          6           0       -0.840601   -0.050328   -0.004346
      3          7           0       -0.217658   -1.205480    0.017732
      4          6           0        1.125517   -1.167292   -0.014102
      5          6           0        1.973948   -0.038694    0.027993
      6          6           0        1.220691    1.103127    0.018113
      7          7           0       -0.158724    1.102400   -0.038011
      8          1           0       -2.684229    0.749633    0.391165
      9          1           0       -2.627055   -0.918754    0.096556
     10          1           0        1.562187   -2.163948   -0.066271
     11          1           0       -0.662584    1.973280   -0.119313
     12          1           0        1.628380    2.111234    0.052580
 ---------------------------------------------------------------------

 SCF Done:  E(RHF) =  -318.008138956     A.U. after    2 cycles

 The electronic state is 1-A.
 Alpha  occ. eigenvalues --  -15.59516 -15.55419 -15.50694 -11.38889 -11.29492
 Alpha  occ. eigenvalues --  -11.29428 -11.16245  -1.37220  -1.25155  -1.22688
 Alpha  occ. eigenvalues --   -1.05149  -0.94078  -0.92159  -0.82719  -0.76946
 Alpha  occ. eigenvalues --   -0.75287  -0.70507  -0.67502  -0.64927  -0.58619
 Alpha  occ. eigenvalues --   -0.53921  -0.48925  -0.47709  -0.34398  -0.30845
 Alpha virt. eigenvalues --    0.01221   0.03367   0.04481   0.05489   0.05788
 Alpha virt. eigenvalues --    0.06486   0.09373   0.09549   0.11348   0.11688
 Alpha virt. eigenvalues --    0.11893   0.12405   0.13355   0.14504   0.14700

 Mulliken charges:
               1
     1  N    0.527389
     2  C   -1.420751
     3  N    0.722041
     4  C   -0.218873
     5  C   -0.256227
     6  C   -0.107027
     7  N    0.457934
     8  H    0.120847
     9  H    0.241110
    10  H   -0.077939
    11  H    0.153540
    12  H   -0.142043
 Sum of Mulliken charges =   0.00000

 Dipole moment (field-independent basis, Debye):
    X=             -6.3992    Y=              3.1653    Z=              0.6773  Tot=              7.1713

 Test job not archived.
 1\1\GINC-SE113\SP\RHF\Aug-CC-pVDZ\C4H5N3\OHZDE\09-Apr-2025\0\\#t hf au
 g-cc-pvdz iop(5/13=1,5/36=2,99/5=2) pseudo=read geom=check guess=(read
 ,tcheck) scf=(maxcycle=1)\\title\\0,1\N,0,2.05592263,-0.05608355,0.214
 8802\C,0,0.69513637,-0.1398797,0.08839679\N,0,0.10683687,-1.3123848,0.
 13373478\C,0,-1.23630638,-1.3158155,0.08328704\C,0,-2.11139011,-0.2238
 691,-0.10964335\C,0,-1.39195603,0.93858381,-0.15827949\N,0,-0.01907689
 ,0.98824565,-0.0216239\H,0,2.53675096,0.6824683,-0.26872051\H,0,2.5077
 039,-0.95448795,0.17072075\H,0,-1.64767775,-2.31785527,0.19911594\H,0,

 Normal termination of Gaussian 16 at Wed Apr  9 18:41:24 2025.
