 Gaussian 16, Revision C.01,

 ----------------------------------------------------------------------
 #t hf aug-cc-pvdz symm=none int=(grid=ultrafine) guess=(read,tcheck) s
 table=(opt,rrhf)
 ----------------------------------------------------------------------
 -----
 title
 -----
 Symbolic Z-matrix:
 Charge =  0 Multiplicity = 1

 SCF Done:  E(RHF) =  -268.684703514     A.U. after   15 cycles
 Normal termination of Gaussian 16 at Wed Apr  9 16:56:09 2025.
 Gaussian 16:  ES64L-G16RevC.01  3-Jul-2019

 ----------------------------------------------------------------------
 #t hf aug-cc-pvdz iop(5/13=1,5/36=2,99/5=2) pseudo=read geom=check gue
 ss=(read,tcheck) scf=(maxcycle=1)
 ----------------------------------------------------------------------
 -----
 title
 -----
 Structure from the checkpoint file:  "Grambow2020_wb97xd3_006195_reverse_mol1.chk"
 Charge =  0 Multiplicity = 1

                         Standard orientation:
 ---------------------------------------------------------------------
 Center     Atomic      Atomic             Coordinates (Angstroms)
 Number     Number       Type             X           Y           Z
 ---------------------------------------------------------------------
      1          6           0       -1.725718    0.764631    0.071655
      2          6           0       -1.825541   -0.727804    0.110358
      3          6           0       -0.595772   -0.073498   -0.449309
      4          6           0        0.668587   -0.159773    0.325405
      5          6           0        1.865221   -0.827010   -0.219500
      6          8           0        1.642762    0.877998    0.061843
      7          1           0       -1.572675    1.287487    1.007485
      8          1           0       -2.326017    1.302868   -0.648974
      9          1           0       -2.492363   -1.221390   -0.583165
     10          1           0       -1.743437   -1.216737    1.073292
     11          1           0       -0.458533   -0.117605   -1.523389
     12          1           0        0.519284   -0.201706    1.404464
     13          1           0        2.543143   -1.132322    0.583687
     14          1           0        2.067836    0.416150   -0.839803
 ---------------------------------------------------------------------

 SCF Done:  E(RHF) =  -268.967082811     A.U. after    2 cycles

 The electronic state is 1-A.
 Alpha  occ. eigenvalues --  -20.60030 -11.30686 -11.27432 -11.24450 -11.24381
 Alpha  occ. eigenvalues --  -11.24115  -1.49964  -1.16393  -0.98800  -0.87810
 Alpha  occ. eigenvalues --   -0.83464  -0.80622  -0.70339  -0.69447  -0.63856
 Alpha  occ. eigenvalues --   -0.60549  -0.56012  -0.53184  -0.52147  -0.48443
 Alpha  occ. eigenvalues --   -0.44123  -0.42498  -0.37399
 Alpha virt. eigenvalues --    0.03452   0.03755   0.04117   0.04581   0.06242
 Alpha virt. eigenvalues --    0.06427   0.06730   0.07581   0.10044   0.11186
 Alpha virt. eigenvalues --    0.12474   0.13536   0.13636   0.14542   0.15087

 Mulliken charges:
               1
     1  C    0.244350
     2  C    0.207807
     3  C    0.506188
     4  C    0.893571
     5  C   -0.461080
     6  O   -1.354862
     7  H   -0.115739
     8  H   -0.112315
     9  H   -0.125547
    10  H   -0.126741
    11  H   -0.161179
    12  H   -0.107666
    13  H    0.076568
    14  H    0.636645
 Sum of Mulliken charges =  -0.00000

 Dipole moment (field-independent basis, Debye):
    X=             -1.3423    Y=             -0.2736    Z=              0.8542  Tot=              1.6145

 Test job not archived.
 1\1\GINC-SE454\SP\RHF\Aug-CC-pVDZ\C5H8O1\OHZDE\09-Apr-2025\0\\#t hf au
 g-cc-pvdz iop(5/13=1,5/36=2,99/5=2) pseudo=read geom=check guess=(read
 ,tcheck) scf=(maxcycle=1)\\title\\0,1\C,0,-1.66341789,-0.30911977,-0.1
 0856994\C,0,-1.22130041,1.10520895,-0.31600665\C,0,-0.39521083,0.17816
 834,0.5277023\C,0,0.91328704,-0.28536435,-0.00069373\C,0,2.17920223,0.
 02474891,0.68876071\O,0,1.40890368,-1.53137729,0.54452598\H,0,-1.57543
 274,-0.99568536,-0.94131596\H,0,-2.51061061,-0.49487573,0.53728125\H,0
 ,-1.76047534,1.89639459,0.18655684\H,0,-0.83648024,1.37842688,-1.29084

 Normal termination of Gaussian 16 at Wed Apr  9 16:56:13 2025.
