 Gaussian 16, Revision C.01,

 ----------------------------------------------------------------------
 #t hf aug-cc-pvdz symm=none int=(grid=ultrafine) guess=(read,tcheck) s
 table=(opt,rrhf)
 ----------------------------------------------------------------------
 -----
 title
 -----
 Symbolic Z-matrix:
 Charge =  0 Multiplicity = 1

 SCF Done:  E(RHF) =  -271.823370047     A.U. after   15 cycles
 Normal termination of Gaussian 16 at Wed Apr  9 18:22:46 2025.
 Gaussian 16:  ES64L-G16RevC.01  3-Jul-2019

 ----------------------------------------------------------------------
 #t hf aug-cc-pvdz iop(5/13=1,5/36=2,99/5=2) pseudo=read geom=check gue
 ss=(read,tcheck) scf=(maxcycle=1)
 ----------------------------------------------------------------------
 -----
 title
 -----
 Structure from the checkpoint file:  "Grambow2020_wb97xd3_007424_reverse_mol1.chk"
 Charge =  0 Multiplicity = 1

                         Standard orientation:
 ---------------------------------------------------------------------
 Center     Atomic      Atomic             Coordinates (Angstroms)
 Number     Number       Type             X           Y           Z
 ---------------------------------------------------------------------
      1          6           0       -1.609630    1.228223   -0.192578
      2          6           0        0.714611    1.126395    0.373150
      3          6           0        0.597535   -0.037138    1.297295
      4          6           0        0.607039   -1.172583    0.328630
      5          6           0       -1.686564   -1.128657   -0.181082
      6          6           0        1.143125   -0.725747   -0.856939
      7          6           0        1.203197    0.680224   -0.830579
      8          1           0       -1.627444    1.252258   -1.276416
      9          1           0       -2.549089    0.921935    0.249748
     10          1           0       -1.309302    2.189765    0.208919
     11          1           0        0.747366    2.151697    0.711305
     12          1           0        1.525026   -0.096089    1.886670
     13          1           0       -0.240601   -0.009629    1.987788
     14          1           0        0.561090   -2.206279    0.638350
     15          1           0       -2.223288   -0.784357   -1.055260
     16          1           0       -2.269502   -1.068673    0.731270
     17          1           0       -1.331947   -2.138334   -0.348826
     18          1           0        1.395623   -1.347129   -1.705244
     19          1           0        1.506193    1.310536   -1.655679
 ---------------------------------------------------------------------

 SCF Done:  E(RHF) =  -272.118941335     A.U. after    2 cycles

 The electronic state is 1-A.
 Alpha  occ. eigenvalues --  -11.25091 -11.24860 -11.24566 -11.24138 -11.23498
 Alpha  occ. eigenvalues --  -11.22968 -11.22855  -1.16479  -0.96769  -0.96664
 Alpha  occ. eigenvalues --   -0.93535  -0.87009  -0.76986  -0.73480  -0.71479
 Alpha  occ. eigenvalues --   -0.61367  -0.58423  -0.57670  -0.56485  -0.54287
 Alpha  occ. eigenvalues --   -0.53530  -0.53230  -0.52215  -0.50072  -0.42981
 Alpha  occ. eigenvalues --   -0.30223  -0.28165
 Alpha virt. eigenvalues --    0.03124   0.03508   0.03631   0.04560   0.04749
 Alpha virt. eigenvalues --    0.05593   0.05737   0.06045   0.06931   0.08755
 Alpha virt. eigenvalues --    0.09190   0.09472   0.10502   0.11060   0.12870

 Mulliken charges:
               1
     1  C   -0.286994
     2  C    0.361849
     3  C   -0.598904
     4  C    0.253785
     5  C   -0.262584
     6  C    0.284729
     7  C    0.257977
     8  H    0.164080
     9  H    0.117602
    10  H   -0.098468
    11  H   -0.148289
    12  H    0.211127
    13  H    0.103678
    14  H   -0.134931
    15  H    0.136261
    16  H    0.121091
    17  H   -0.115398
    18  H   -0.172860
    19  H   -0.193750
 Sum of Mulliken charges =  -0.00000

 Dipole moment (field-independent basis, Debye):
    X=              0.5590    Y=             -0.1236    Z=              0.3998  Tot=              0.6983

 Test job not archived.
 1\1\GINC-SE131\SP\RHF\Aug-CC-pVDZ\C7H12\OHZDE\09-Apr-2025\0\\#t hf aug
 -cc-pvdz iop(5/13=1,5/36=2,99/5=2) pseudo=read geom=check guess=(read,
 tcheck) scf=(maxcycle=1)\\title\\0,1\C,0,-1.26125818,-1.33905695,-0.09
 935203\C,0,-1.09662058,1.04703377,0.01009203\C,0,-0.06270464,1.0811993
 7,1.08313065\C,0,1.18080273,0.85992233,0.28791792\C,0,1.06847661,-1.48
 675188,0.23449976\C,0,0.9127775,1.16077954,-1.02748019\C,0,-0.48023251
 ,1.26944021,-1.19711503\H,0,-1.15427333,-1.57348121,-1.15253791\H,0,-1
 .06511475,-2.17972149,0.55399182\H,0,-2.24579062,-0.93387812,0.1067674

 Normal termination of Gaussian 16 at Wed Apr  9 18:22:54 2025.
