 Gaussian 16, Revision C.01,

 ----------------------------------------------------------------------
 #t hf aug-cc-pvdz symm=none int=(grid=ultrafine) guess=(read,tcheck) s
 table=(opt,rrhf)
 ----------------------------------------------------------------------
 -----
 title
 -----
 Symbolic Z-matrix:
 Charge =  0 Multiplicity = 1

 SCF Done:  E(RHF) =  -306.614295176     A.U. after   15 cycles
 Normal termination of Gaussian 16 at Wed Apr  9 19:16:02 2025.
 Gaussian 16:  ES64L-G16RevC.01  3-Jul-2019

 ----------------------------------------------------------------------
 #t hf aug-cc-pvdz iop(5/13=1,5/36=2,99/5=2) pseudo=read geom=check gue
 ss=(read,tcheck) scf=(maxcycle=1)
 ----------------------------------------------------------------------
 -----
 title
 -----
 Structure from the checkpoint file:  "Grambow2020_wb97xd3_009015_reverse_mol2.chk"
 Charge =  0 Multiplicity = 1

                         Standard orientation:
 ---------------------------------------------------------------------
 Center     Atomic      Atomic             Coordinates (Angstroms)
 Number     Number       Type             X           Y           Z
 ---------------------------------------------------------------------
      1          6           0       -2.880439    0.013364   -0.323847
      2          6           0       -1.518596    0.523881    0.017465
      3          8           0       -0.761892   -0.497249    0.276230
      4          6           0        0.605516   -0.237253    0.647181
      5          6           0        1.636531   -0.962461   -0.254375
      6          6           0        2.181920    0.427583   -0.497753
      7          6           0        1.241480    1.052168    0.208747
      8          1           0       -3.578173    0.447501    0.398732
      9          1           0       -3.164902    0.438960   -1.289786
     10          1           0       -2.980221   -1.076819   -0.338640
     11          1           0        0.682516   -0.474544    1.709393
     12          1           0        2.292435   -1.678988    0.244099
     13          1           0        1.171023   -1.437661   -1.119343
     14          1           0        3.052113    0.773455   -1.041445
     15          1           0        1.021885    2.082393    0.442648
 ---------------------------------------------------------------------

 SCF Done:  E(RHF) =  -306.930833795     A.U. after    2 cycles

 The electronic state is 1-A.
 Alpha  occ. eigenvalues --  -20.59904 -11.30388 -11.28911 -11.24986 -11.24478
 Alpha  occ. eigenvalues --  -11.24128 -11.22259  -1.52989  -1.17187  -1.01606
 Alpha  occ. eigenvalues --   -0.92071  -0.89518  -0.79442  -0.71661  -0.70624
 Alpha  occ. eigenvalues --   -0.67690  -0.62143  -0.59883  -0.57992  -0.55090
 Alpha  occ. eigenvalues --   -0.54580  -0.52570  -0.48511  -0.46306  -0.37724
 Alpha  occ. eigenvalues --   -0.34483
 Alpha virt. eigenvalues --    0.03619   0.03908   0.04270   0.04367   0.05744
 Alpha virt. eigenvalues --    0.06193   0.06695   0.06908   0.10341   0.10710
 Alpha virt. eigenvalues --    0.11918   0.12047   0.12569   0.14002   0.14384

 Mulliken charges:
               1
     1  C   -0.459572
     2  C    0.070580
     3  O   -1.203383
     4  C    1.176449
     5  C   -0.418702
     6  C    0.294292
     7  C    0.038514
     8  H    0.217143
     9  H    0.213346
    10  H    0.051816
    11  H    0.056297
    12  H    0.073552
    13  H    0.111448
    14  H   -0.087068
    15  H   -0.134712
 Sum of Mulliken charges =  -0.00000

 Dipole moment (field-independent basis, Debye):
    X=              1.0026    Y=             -1.0262    Z=              0.0878  Tot=              1.4374

 Test job not archived.
 1\1\GINC-SE231\SP\RHF\Aug-CC-pVDZ\C6H8O1\OHZDE\09-Apr-2025\0\\#t hf au
 g-cc-pvdz iop(5/13=1,5/36=2,99/5=2) pseudo=read geom=check guess=(read
 ,tcheck) scf=(maxcycle=1)\\title\\0,1\C,0,2.5250206,0.78440851,-0.9983
 7759\C,0,1.42814982,0.62559506,0.00331604\O,0,0.30562254,0.54746691,-0
 .64173981\C,0,-0.90031038,0.40378528,0.13291473\C,0,-1.73711088,-0.841
 33062,-0.25589308\C,0,-1.59808083,-1.20917345,1.20502013\C,0,-0.807673
 53,-0.18271543,1.51375421\H,0,3.03036673,1.72926482,-0.77634298\H,0,3.
 26961787,0.00767041,-0.80514013\H,0,2.20752795,0.7618443,-2.0459295\H,

 Normal termination of Gaussian 16 at Wed Apr  9 19:16:07 2025.
