 Gaussian 16, Revision C.01,

 ----------------------------------------------------------------------
 #t hf aug-cc-pvdz symm=none int=(grid=ultrafine) guess=(read,tcheck) s
 table=(opt,rrhf)
 ----------------------------------------------------------------------
 -----
 title
 -----
 Symbolic Z-matrix:
 Charge =  0 Multiplicity = 1

 SCF Done:  E(RHF) =  -245.693711918     A.U. after   15 cycles
 Normal termination of Gaussian 16 at Wed Apr  9 16:28:40 2025.
 Gaussian 16:  ES64L-G16RevC.01  3-Jul-2019

 ----------------------------------------------------------------------
 #t hf aug-cc-pvdz iop(5/13=1,5/36=2,99/5=2) pseudo=read geom=check gue
 ss=(read,tcheck) scf=(maxcycle=1)
 ----------------------------------------------------------------------
 -----
 title
 -----
 Structure from the checkpoint file:  "Grambow2020_wb97xd3_006108_reverse_mol1.chk"
 Charge =  0 Multiplicity = 1

                         Standard orientation:
 ---------------------------------------------------------------------
 Center     Atomic      Atomic             Coordinates (Angstroms)
 Number     Number       Type             X           Y           Z
 ---------------------------------------------------------------------
      1          6           0        1.034358    0.457239    0.213186
      2          6           0       -0.305962    1.127700   -0.148912
      3          7           0       -1.310600    0.066334    0.071357
      4          6           0       -0.930709   -1.058076    0.066576
      5          8           0        1.043186   -0.851114   -0.210803
      6          1           0        1.826283    1.014758   -0.302514
      7          1           0        1.200905    0.552531    1.298273
      8          1           0       -0.545410    1.998283    0.460229
      9          1           0       -0.368918    1.400550   -1.203922
     10          1           0       -0.070265   -1.782727    0.149760
 ---------------------------------------------------------------------

 SCF Done:  E(RHF) =  -245.946989585     A.U. after    2 cycles

 The electronic state is 1-A.
 Alpha  occ. eigenvalues --  -20.49992 -15.55951 -11.35969 -11.30089 -11.27877
 Alpha  occ. eigenvalues --   -1.39691  -1.30188  -1.03904  -0.86987  -0.81792
 Alpha  occ. eigenvalues --   -0.71087  -0.68466  -0.64703  -0.58400  -0.55515
 Alpha  occ. eigenvalues --   -0.52318  -0.51232  -0.39858  -0.38206
 Alpha virt. eigenvalues --    0.03545   0.04664   0.04882   0.05298   0.06223
 Alpha virt. eigenvalues --    0.07050   0.08643   0.09685   0.11609   0.12138
 Alpha virt. eigenvalues --    0.13467   0.14585   0.14886   0.15839   0.16285

 Mulliken charges:
               1
     1  C    0.672658
     2  C   -0.495933
     3  N    0.673650
     4  C   -0.464834
     5  O   -1.310699
     6  H    0.095799
     7  H    0.112009
     8  H    0.113943
     9  H    0.122302
    10  H    0.481105
 Sum of Mulliken charges =   0.00000

 Dipole moment (field-independent basis, Debye):
    X=             -0.8204    Y=              1.1597    Z=              0.4749  Tot=              1.4979

 Test job not archived.
 1\1\GINC-SE131\SP\RHF\Aug-CC-pVDZ\C3H5N1O1\OHZDE\09-Apr-2025\0\\#t hf
 aug-cc-pvdz iop(5/13=1,5/36=2,99/5=2) pseudo=read geom=check guess=(re
 ad,tcheck) scf=(maxcycle=1)\\title\\0,1\C,0,-0.50516814,-0.75675997,-0
 .0487966\C,0,-0.56359614,0.75876408,0.22844629\N,0,0.74852069,1.259825
 1,-0.23155544\C,0,1.63665623,0.47679775,-0.31353596\O,0,0.753873,-1.24
 220753,0.21726492\H,0,-1.23161062,-1.23734839,0.61846296\H,0,-0.820723
 7,-0.94321501,-1.08797435\H,0,-1.36439554,1.27568125,-0.29863893\H,0,-
 0.62818038,0.98993447,1.29326812\H,0,1.9663136,-0.59999276,-0.37874702

 Normal termination of Gaussian 16 at Wed Apr  9 16:28:43 2025.
