 Gaussian 16, Revision C.01,

 ----------------------------------------------------------------------
 #t hf aug-cc-pvdz symm=none int=(grid=ultrafine) guess=(read,tcheck) s
 table=(opt,rrhf)
 ----------------------------------------------------------------------
 -----
 title
 -----
 Symbolic Z-matrix:
 Charge =  0 Multiplicity = 1

 SCF Done:  E(RHF) =  -308.975793887     A.U. after   14 cycles

 1\1\GINC-SE118\Stability\RHF\Aug-CC-pVDZ\C6H12O1\OHZDE\09-Apr-2025\0\\
 #t hf aug-cc-pvdz symm=none int=(grid=ultrafine) guess=(read,tcheck) s
 table=(opt,rrhf)\\title\\0,1\C,0,2.28564982,0.28459105,-0.38698292\C,0
 ,2.15988853,1.37390354,0.63147938\O,0,1.35476635,1.39110521,1.52389215
 \C,0,-0.86416947,-1.180604,1.25846361\C,0,-2.23034343,-1.61998706,0.81
 617737\C,0,-0.92952563,-2.36134982,0.75255049\C,0,-1.07999305,1.240608
 23,-1.44774653\H,0,1.53362778,-0.48688563,-0.23152467\H,0,3.28830749,-
 0.14751661,-0.32873195\H,0,2.18219792,0.71310794,-1.38718308\H,0,-0.85

 Normal termination of Gaussian 16 at Wed Apr  9 19:21:25 2025.
 Gaussian 16:  ES64L-G16RevC.01  3-Jul-2019

 ----------------------------------------------------------------------
 #t hf aug-cc-pvdz iop(5/13=1,5/36=2,99/5=2) pseudo=read geom=check gue
 ss=(read,tcheck) scf=(maxcycle=1)
 ----------------------------------------------------------------------
 -----
 title
 -----
 Structure from the checkpoint file:  "Grambow2020_wb97xd3_009427_reverse_mol2.chk"
 Charge =  0 Multiplicity = 1

                         Standard orientation:
 ---------------------------------------------------------------------
 Center     Atomic      Atomic             Coordinates (Angstroms)
 Number     Number       Type             X           Y           Z
 ---------------------------------------------------------------------
      1          6           0       -1.967137   -0.374107    1.158544
      2          6           0       -2.448401   -0.474268   -0.254975
      3          8           0       -1.749778   -0.711747   -1.203894
      4          6           0        1.546505   -0.784278   -0.345362
      5          6           0        2.850775   -0.041000   -0.306366
      6          6           0        2.278034   -1.003078    0.689709
      7          6           0       -0.000995    2.488064    0.014428
      8          1           0       -0.890227   -0.521143    1.217917
      9          1           0       -2.484767   -1.119909    1.767864
     10          1           0       -2.234632    0.606147    1.561382
     11          1           0        0.448832    1.985273    0.869886
     12          1           0       -3.536814   -0.312563   -0.399330
     13          1           0        0.636341   -0.948441   -0.898542
     14          1           0        2.853625    1.026341   -0.086703
     15          1           0        3.667505   -0.356920   -0.954048
     16          1           0        2.432943   -1.501663    1.630092
     17          1           0       -0.932542    2.965328    0.317616
     18          1           0        0.684787    3.245465   -0.361830
     19          1           0       -0.199517    1.758062   -0.769016
 ---------------------------------------------------------------------

 SCF Done:  E(RHF) =  -309.307237713     A.U. after    2 cycles

 The electronic state is 1-A.
 Alpha  occ. eigenvalues --  -20.55336 -11.35046 -11.25222 -11.24225 -11.23966
 Alpha  occ. eigenvalues --  -11.23826 -11.21636  -1.48796  -1.15829  -1.03166
 Alpha  occ. eigenvalues --   -0.94444  -0.82046  -0.81227  -0.76021  -0.68890
 Alpha  occ. eigenvalues --   -0.68525  -0.63764  -0.61499  -0.59906  -0.56882
 Alpha  occ. eigenvalues --   -0.54879  -0.54762  -0.54712  -0.51138  -0.49700
 Alpha  occ. eigenvalues --   -0.43147  -0.41710  -0.35843
 Alpha virt. eigenvalues --    0.02865   0.03427   0.03973   0.04626   0.05474
 Alpha virt. eigenvalues --    0.05982   0.06072   0.07314   0.08143   0.08799
 Alpha virt. eigenvalues --    0.09329   0.09675   0.10834   0.11611   0.12273

 Mulliken charges:
               1
     1  C   -0.482052
     2  C    1.016805
     3  O   -1.120092
     4  C    0.527990
     5  C    0.003391
     6  C    0.105529
     7  C   -0.312810
     8  H    0.040011
     9  H    0.193821
    10  H    0.263111
    11  H    0.072598
    12  H    0.095413
    13  H   -0.282691
    14  H   -0.079944
    15  H   -0.023002
    16  H   -0.245246
    17  H    0.031440
    18  H    0.046259
    19  H    0.149467
 Sum of Mulliken charges =   0.00000

 Dipole moment (field-independent basis, Debye):
    X=             -2.0007    Y=              0.2254    Z=              2.5814  Tot=              3.2737

 Test job not archived.
 1\1\GINC-SE118\SP\RHF\Aug-CC-pVDZ\C6H12O1\OHZDE\09-Apr-2025\0\\#t hf a
 ug-cc-pvdz iop(5/13=1,5/36=2,99/5=2) pseudo=read geom=check guess=(rea
 d,tcheck) scf=(maxcycle=1)\\title\\0,1\C,0,2.28564982,0.28459105,-0.38
 698292\C,0,2.15988853,1.37390354,0.63147938\O,0,1.35476635,1.39110521,
 1.52389215\C,0,-0.86416947,-1.180604,1.25846361\C,0,-2.23034343,-1.619
 98706,0.81617737\C,0,-0.92952563,-2.36134982,0.75255049\C,0,-1.0799930
 5,1.24060823,-1.44774653\H,0,1.53362778,-0.48688563,-0.23152467\H,0,3.
 28830749,-0.14751661,-0.32873195\H,0,2.18219792,0.71310794,-1.38718308

 Normal termination of Gaussian 16 at Wed Apr  9 19:21:32 2025.
