 Gaussian 16, Revision C.01,

 ----------------------------------------------------------------------
 #t hf aug-cc-pvdz symm=none int=(grid=ultrafine) guess=(read,tcheck) s
 table=(opt,rrhf)
 ----------------------------------------------------------------------
 -----
 title
 -----
 Symbolic Z-matrix:
 Charge =  0 Multiplicity = 1

 SCF Done:  E(RHF) =  -357.093255896     A.U. after   18 cycles
 Normal termination of Gaussian 16 at Wed Apr  9 03:59:23 2025.
 Gaussian 16:  ES64L-G16RevC.01  3-Jul-2019

 ----------------------------------------------------------------------
 #t hf aug-cc-pvdz iop(5/13=1,5/36=2,99/5=2) pseudo=read geom=check gue
 ss=(read,tcheck) scf=(maxcycle=1)
 ----------------------------------------------------------------------
 -----
 title
 -----
 Structure from the checkpoint file:  "Grambow2020_wb97xd3_008750_forward_mol1.chk"
 Charge =  0 Multiplicity = 1

                         Standard orientation:
 ---------------------------------------------------------------------
 Center     Atomic      Atomic             Coordinates (Angstroms)
 Number     Number       Type             X           Y           Z
 ---------------------------------------------------------------------
      1          8           0        2.390248    0.005270   -0.364862
      2          6           0        1.273994   -0.185219   -0.128037
      3          6           0        0.178964   -0.087740    0.875518
      4          7           0       -0.545156   -1.146980    0.346596
      5          8           0       -1.532975   -0.623273   -0.325945
      6          6           0       -1.176075    0.715195   -0.550677
      7          6           0       -0.465930    1.122075    0.596118
      8          1           0        0.037382    0.253344   -1.266116
      9          1           0       -1.912958    1.238823   -1.146466
     10          1           0       -0.032228    2.094849    0.755326
 ---------------------------------------------------------------------

 SCF Done:  E(RHF) =  -357.439901808     A.U. after    2 cycles

 The electronic state is 1-A.
 Alpha  occ. eigenvalues --  -20.70067 -20.62110 -15.68086 -11.42989 -11.36813
 Alpha  occ. eigenvalues --  -11.31030 -11.25291  -1.66699  -1.56787  -1.23816
 Alpha  occ. eigenvalues --   -1.13451  -0.91737  -0.89139  -0.81947  -0.77975
 Alpha  occ. eigenvalues --   -0.74717  -0.67910  -0.64652  -0.64077  -0.61272
 Alpha  occ. eigenvalues --   -0.60717  -0.56312  -0.48489  -0.41314  -0.32740
 Alpha virt. eigenvalues --   -0.00917   0.03083   0.04242   0.05623   0.06777
 Alpha virt. eigenvalues --    0.07837   0.09358   0.09725   0.09953   0.10295
 Alpha virt. eigenvalues --    0.11713   0.12309   0.14312   0.15002   0.15391

 Mulliken charges:
               1
     1  O   -0.981948
     2  C    0.937777
     3  C   -1.190832
     4  N    1.344003
     5  O   -1.222131
     6  C    0.250084
     7  C    0.496578
     8  H    0.460602
     9  H    0.002000
    10  H   -0.096133
 Sum of Mulliken charges =  -0.00000

 Dipole moment (field-independent basis, Debye):
    X=             -1.7245    Y=              2.2461    Z=             -0.9526  Tot=              2.9877

 Test job not archived.
 1\1\GINC-SE247\SP\RHF\Aug-CC-pVDZ\C4H3N1O2\OHZDE\09-Apr-2025\0\\#t hf
 aug-cc-pvdz iop(5/13=1,5/36=2,99/5=2) pseudo=read geom=check guess=(re
 ad,tcheck) scf=(maxcycle=1)\\title\\0,1\O,0,-2.53490567,0.25404983,-0.
 50929038\C,0,-1.40647963,0.0254455,-0.62238012\C,0,-0.05974545,0.54650
 474,-0.98365395\N,0,0.43504873,-0.69249548,-1.36595461\O,0,1.19663504,
 -1.10601368,-0.39057986\C,0,0.83827452,-0.33714753,0.72736495\C,0,0.51
 669463,0.94072649,0.22874537\H,0,-0.5490941,-0.84639627,0.61113352\H,0
 ,1.38327694,-0.63089341,1.61552735\H,0,0.18586199,1.78037882,0.8163397

 Normal termination of Gaussian 16 at Wed Apr  9 03:59:27 2025.
