 Gaussian 16, Revision C.01,

 ----------------------------------------------------------------------
 #t hf aug-cc-pvdz symm=none int=(grid=ultrafine) guess=(read,tcheck) s
 table=(opt,rrhf)
 ----------------------------------------------------------------------
 -----
 title
 -----
 Symbolic Z-matrix:
 Charge =  0 Multiplicity = 1

 SCF Done:  E(RHF) =  -353.433958307     A.U. after   16 cycles
 Normal termination of Gaussian 16 at Wed Apr  9 18:36:11 2025.
 Gaussian 16:  ES64L-G16RevC.01  3-Jul-2019

 ----------------------------------------------------------------------
 #t hf aug-cc-pvdz iop(5/13=1,5/36=2,99/5=2) pseudo=read geom=check gue
 ss=(read,tcheck) scf=(maxcycle=1)
 ----------------------------------------------------------------------
 -----
 title
 -----
 Structure from the checkpoint file:  "Grambow2020_wb97xd3_007769_forward_mol1.chk"
 Charge =  0 Multiplicity = 1

                         Standard orientation:
 ---------------------------------------------------------------------
 Center     Atomic      Atomic             Coordinates (Angstroms)
 Number     Number       Type             X           Y           Z
 ---------------------------------------------------------------------
      1          8           0        2.653436    0.566247   -0.000165
      2          6           0        1.825992   -0.307003    0.001092
      3          7           0        0.474957   -0.045494   -0.002684
      4          6           0       -1.317920    1.428977    0.000720
      5          7           0       -2.208660    0.687858    0.000263
      6          6           0       -1.492307   -1.232463    0.001468
      7          7           0       -0.323688   -1.055433   -0.000654
      8          1           0        2.091857   -1.381279    0.006294
      9          1           0       -0.658682    2.269698    0.000815
     10          1           0       -2.353514   -1.863972   -0.003934
 ---------------------------------------------------------------------

 SCF Done:  E(RHF) =  -353.780372993     A.U. after    2 cycles

 The electronic state is 1-A.
 Alpha  occ. eigenvalues --  -20.51114 -15.63356 -15.54986 -15.53114 -11.37344
 Alpha  occ. eigenvalues --  -11.34787 -11.33760  -1.46041  -1.39790  -1.27395
 Alpha  occ. eigenvalues --   -1.19405  -0.92819  -0.83601  -0.82193  -0.77519
 Alpha  occ. eigenvalues --   -0.71996  -0.68090  -0.65335  -0.61949  -0.55413
 Alpha  occ. eigenvalues --   -0.53269  -0.53196  -0.48580  -0.41485  -0.38950
 Alpha virt. eigenvalues --    0.02640   0.03729   0.05170   0.06119   0.06168
 Alpha virt. eigenvalues --    0.08130   0.08493   0.08728   0.09204   0.10196
 Alpha virt. eigenvalues --    0.13069   0.13100   0.14077   0.15141   0.15448

 Mulliken charges:
               1
     1  O   -1.045659
     2  C    0.778539
     3  N   -0.114402
     4  C   -0.735967
     5  N    0.680168
     6  C   -0.335898
     7  N    0.531000
     8  H    0.065245
     9  H    0.139935
    10  H    0.037038
 Sum of Mulliken charges =  -0.00000

 Dipole moment (field-independent basis, Debye):
    X=             -4.3357    Y=             -1.8473    Z=              0.0063  Tot=              4.7129

 Test job not archived.
 1\1\GINC-SE113\SP\RHF\Aug-CC-pVDZ\C3H3N3O1\OHZDE\09-Apr-2025\0\\#t hf
 aug-cc-pvdz iop(5/13=1,5/36=2,99/5=2) pseudo=read geom=check guess=(re
 ad,tcheck) scf=(maxcycle=1)\\title\\0,1\O,0,2.85687942,0.0610456,0.147
 52248\C,0,1.8533982,-0.57848365,0.32432716\N,0,0.5999459,-0.07558708,0
 .06041578\C,0,-0.80686724,1.62976119,-0.64750054\N,0,-1.8416557,1.1233
 2215,-0.52337246\C,0,-1.58318951,-0.77931769,0.19353081\N,0,-0.4067466
 ,-0.84597184,0.28600982\H,0,1.86662613,-1.61493958,0.71209488\H,0,0.02
 561617,2.2727743,-0.83434894\H,0,-2.56400478,-1.19260339,0.28132203\\V

 Normal termination of Gaussian 16 at Wed Apr  9 18:36:15 2025.
