 Gaussian 16, Revision C.01,

 ----------------------------------------------------------------------
 #t hf aug-cc-pvdz symm=none int=(grid=ultrafine) guess=(read,tcheck) s
 table=(opt,rrhf)
 ----------------------------------------------------------------------
 -----
 title
 -----
 Symbolic Z-matrix:
 Charge =  0 Multiplicity = 1

 SCF Done:  E(RHF) =  -307.807561555     A.U. after   15 cycles

 1\1\GINC-SE128\Stability\RHF\Aug-CC-pVDZ\C6H10O1\OHZDE\09-Apr-2025\0\\
 #t hf aug-cc-pvdz symm=none int=(grid=ultrafine) guess=(read,tcheck) s
 table=(opt,rrhf)\\title\\0,1\C,0,1.90507093,-0.75442906,-0.29955709\C,
 0,0.00389228,1.76816658,-0.7208154\C,0,0.58861702,-1.17653664,0.341720
 68\C,0,-0.64940877,-0.7994331,-0.4735976\C,0,-1.03730775,0.67331598,-0
 .45471978\C,0,-1.26805844,1.41241134,0.86768981\O,0,-0.28853796,2.3841
 1908,0.41407199\H,0,2.75362115,-1.03888849,0.32516991\H,0,2.02990582,-
 1.23291345,-1.27402012\H,0,1.95277265,0.32466375,-0.46319203\H,0,0.587

 Normal termination of Gaussian 16 at Wed Apr  9 03:34:36 2025.
 Gaussian 16:  ES64L-G16RevC.01  3-Jul-2019

 ----------------------------------------------------------------------
 #t hf aug-cc-pvdz iop(5/13=1,5/36=2,99/5=2) pseudo=read geom=check gue
 ss=(read,tcheck) scf=(maxcycle=1)
 ----------------------------------------------------------------------
 -----
 title
 -----
 Structure from the checkpoint file:  "Grambow2020_wb97xd3_007040_reverse_mol2.chk"
 Charge =  0 Multiplicity = 1

                         Standard orientation:
 ---------------------------------------------------------------------
 Center     Atomic      Atomic             Coordinates (Angstroms)
 Number     Number       Type             X           Y           Z
 ---------------------------------------------------------------------
      1          6           0       -2.093311   -0.992788   -0.010492
      2          6           0        0.984709   -0.844339   -0.822393
      3          6           0       -1.629239    0.344168    0.554884
      4          6           0       -0.732373    1.142494   -0.392726
      5          6           0        0.696244    0.636422   -0.543578
      6          6           0        1.596070    0.434686    0.680306
      7          8           0        1.794320   -0.929083    0.221748
      8          1           0       -2.721221   -1.524243    0.706810
      9          1           0       -2.676884   -0.843895   -0.922294
     10          1           0       -1.253009   -1.641166   -0.269319
     11          1           0       -2.503782    0.956688    0.791035
     12          1           0       -1.117094    0.184209    1.509679
     13          1           0       -0.683396    2.183523   -0.057546
     14          1           0       -1.191285    1.163038   -1.385950
     15          1           0        1.203706    1.214465   -1.323039
     16          1           0        1.114903    0.438518    1.657987
     17          1           0        2.540894    0.977667    0.722648
 ---------------------------------------------------------------------

 SCF Done:  E(RHF) =  -308.131393751     A.U. after    2 cycles

 The electronic state is 1-A.
 Alpha  occ. eigenvalues --  -20.60196 -11.30848 -11.30108 -11.24757 -11.24473
 Alpha  occ. eigenvalues --  -11.23535 -11.22005  -1.54356  -1.10105  -1.02491
 Alpha  occ. eigenvalues --   -0.94720  -0.91619  -0.82018  -0.72333  -0.69358
 Alpha  occ. eigenvalues --   -0.68076  -0.64165  -0.61908  -0.58758  -0.55931
 Alpha  occ. eigenvalues --   -0.54536  -0.51237  -0.50134  -0.49189  -0.47939
 Alpha  occ. eigenvalues --   -0.46582  -0.35737
 Alpha virt. eigenvalues --    0.02926   0.03422   0.03617   0.04528   0.05744
 Alpha virt. eigenvalues --    0.06039   0.06454   0.07856   0.08143   0.09493
 Alpha virt. eigenvalues --    0.10449   0.10913   0.12997   0.13659   0.14149

 Mulliken charges:
               1
     1  C   -0.308811
     2  C    0.506157
     3  C   -0.262515
     4  C   -0.349647
     5  C   -0.307489
     6  C    0.691955
     7  O   -1.112870
     8  H    0.129220
     9  H    0.155204
    10  H    0.134580
    11  H    0.131771
    12  H    0.132266
    13  H    0.130205
    14  H    0.168916
    15  H    0.040420
    16  H    0.054510
    17  H    0.066127
 Sum of Mulliken charges =  -0.00000

 Dipole moment (field-independent basis, Debye):
    X=             -0.4126    Y=              3.3569    Z=              1.5175  Tot=              3.7070

 Test job not archived.
 1\1\GINC-SE128\SP\RHF\Aug-CC-pVDZ\C6H10O1\OHZDE\09-Apr-2025\0\\#t hf a
 ug-cc-pvdz iop(5/13=1,5/36=2,99/5=2) pseudo=read geom=check guess=(rea
 d,tcheck) scf=(maxcycle=1)\\title\\0,1\C,0,1.90507093,-0.75442906,-0.2
 9955709\C,0,0.00389228,1.76816658,-0.7208154\C,0,0.58861702,-1.1765366
 4,0.34172068\C,0,-0.64940877,-0.7994331,-0.4735976\C,0,-1.03730775,0.6
 7331598,-0.45471978\C,0,-1.26805844,1.41241134,0.86768981\O,0,-0.28853
 796,2.38411908,0.41407199\H,0,2.75362115,-1.03888849,0.32516991\H,0,2.
 02990582,-1.23291345,-1.27402012\H,0,1.95277265,0.32466375,-0.46319203

 Normal termination of Gaussian 16 at Wed Apr  9 03:34:43 2025.
