 Gaussian 16, Revision C.01,

 ----------------------------------------------------------------------
 #t hf aug-cc-pvdz symm=none int=(grid=ultrafine) guess=(read,tcheck) s
 table=(opt,rrhf)
 ----------------------------------------------------------------------
 -----
 title
 -----
 Symbolic Z-matrix:
 Charge =  0 Multiplicity = 1

 SCF Done:  E(RHF) =  -305.472268096     A.U. after   15 cycles
 Normal termination of Gaussian 16 at Wed Apr  9 18:44:45 2025.
 Gaussian 16:  ES64L-G16RevC.01  3-Jul-2019

 ----------------------------------------------------------------------
 #t hf aug-cc-pvdz iop(5/13=1,5/36=2,99/5=2) pseudo=read geom=check gue
 ss=(read,tcheck) scf=(maxcycle=1)
 ----------------------------------------------------------------------
 -----
 title
 -----
 Structure from the checkpoint file:  "Grambow2020_wb97xd3_008026_reverse_mol2.chk"
 Charge =  0 Multiplicity = 1

                         Standard orientation:
 ---------------------------------------------------------------------
 Center     Atomic      Atomic             Coordinates (Angstroms)
 Number     Number       Type             X           Y           Z
 ---------------------------------------------------------------------
      1          8           0        1.538653   -0.676781   -0.387690
      2          6           0        0.413124   -1.507127   -0.032658
      3          6           0       -0.298697   -0.291929    0.600802
      4          6           0        0.906534    0.455576    0.061953
      5          6           0        1.303774    1.709157   -0.014284
      6          6           0       -1.611841    0.074524    0.103461
      7          6           0       -2.695388    0.370067   -0.309840
      8          1           0        2.244864    1.968850   -0.479022
      9          1           0       -0.077661   -1.909985   -0.918767
     10          1           0        0.703255   -2.305271    0.650180
     11          1           0       -0.303480   -0.329895    1.691264
     12          1           0        0.674762    2.492182    0.383804
     13          1           0       -3.655993    0.636755   -0.682550
 ---------------------------------------------------------------------

 SCF Done:  E(RHF) =  -305.785655941     A.U. after    2 cycles

 The electronic state is 1-A.
 Alpha  occ. eigenvalues --  -20.57332 -11.31335 -11.31221 -11.28692 -11.25509
 Alpha  occ. eigenvalues --  -11.24643 -11.22074  -1.51531  -1.10203  -1.03489
 Alpha  occ. eigenvalues --   -1.01196  -0.89041  -0.79333  -0.73205  -0.70782
 Alpha  occ. eigenvalues --   -0.69094  -0.66503  -0.60132  -0.56958  -0.53966
 Alpha  occ. eigenvalues --   -0.51955  -0.51346  -0.40911  -0.40782  -0.34826
 Alpha virt. eigenvalues --    0.03216   0.03560   0.04250   0.04764   0.06051
 Alpha virt. eigenvalues --    0.06413   0.08418   0.09969   0.10000   0.11401
 Alpha virt. eigenvalues --    0.12297   0.12595   0.13692   0.13840   0.14423

 Mulliken charges:
               1
     1  O   -1.475147
     2  C    0.651866
     3  C   -0.929896
     4  C    1.317381
     5  C    0.153114
     6  C    0.411948
     7  C    0.390603
     8  H   -0.117710
     9  H    0.023986
    10  H    0.069152
    11  H    0.045001
    12  H   -0.097181
    13  H   -0.443117
 Sum of Mulliken charges =  -0.00000

 Dipole moment (field-independent basis, Debye):
    X=             -1.4436    Y=             -0.7712    Z=              0.7846  Tot=              1.8150

 Test job not archived.
 1\1\GINC-SE173\SP\RHF\Aug-CC-pVDZ\C6H6O1\OHZDE\09-Apr-2025\0\\#t hf au
 g-cc-pvdz iop(5/13=1,5/36=2,99/5=2) pseudo=read geom=check guess=(read
 ,tcheck) scf=(maxcycle=1)\\title\\0,1\O,0,1.43771189,-1.10184588,0.343
 93156\C,0,1.60243129,0.31870516,0.15095714\C,0,0.13484367,0.43763498,-
 0.3145639\C,0,0.09998977,-1.03619703,0.04363645\C,0,-0.80645789,-1.990
 48064,0.09628082\C,0,-0.74587138,1.33938035,0.4045873\C,0,-1.4662798,2
 .08635417,1.00064022\H,0,-0.54455742,-2.99206129,0.40823597\H,0,1.8230
 2794,0.82376908,1.09148989\H,0,2.36425622,0.53604017,-0.59728484\H,0,0

 Normal termination of Gaussian 16 at Wed Apr  9 18:44:49 2025.
