 Gaussian 16, Revision C.01,

 ----------------------------------------------------------------------
 #t hf aug-cc-pvdz symm=none int=(grid=ultrafine) guess=(read,tcheck) s
 table=(opt,rrhf)
 ----------------------------------------------------------------------
 -----
 title
 -----
 Symbolic Z-matrix:
 Charge =  0 Multiplicity = 1

 SCF Done:  E(RHF) =  -231.661841770     A.U. after   15 cycles
 Normal termination of Gaussian 16 at Wed Apr  9 03:21:07 2025.
 Gaussian 16:  ES64L-G16RevC.01  3-Jul-2019

 ----------------------------------------------------------------------
 #t hf aug-cc-pvdz iop(5/13=1,5/36=2,99/5=2) pseudo=read geom=check gue
 ss=(read,tcheck) scf=(maxcycle=1)
 ----------------------------------------------------------------------
 -----
 title
 -----
 Structure from the checkpoint file:  "Grambow2020_wb97xd3_006054_forward_mol1.chk"
 Charge =  0 Multiplicity = 1

                         Standard orientation:
 ---------------------------------------------------------------------
 Center     Atomic      Atomic             Coordinates (Angstroms)
 Number     Number       Type             X           Y           Z
 ---------------------------------------------------------------------
      1          6           0       -1.395982   -0.167813    0.696950
      2          6           0       -0.761199   -0.602928   -0.602557
      3          6           0       -0.709631    0.835508   -0.159236
      4          6           0        0.816007    0.891596   -0.068942
      5          6           0        1.339471   -0.346889    0.615339
      6          6           0        0.766162   -0.824562   -0.685092
      7          1           0       -1.017845   -0.466173    1.665355
      8          1           0       -2.476600   -0.119686    0.655190
      9          1           0       -1.384243   -0.979788   -1.400646
     10          1           0       -1.254445    1.639598   -0.634024
     11          1           0        1.412039    1.799211   -0.076546
     12          1           0        2.423035   -0.383744    0.673561
     13          1           0        0.866583   -0.633135    1.544352
     14          1           0        1.102510    0.434251   -1.206009
 ---------------------------------------------------------------------

 SCF Done:  E(RHF) =  -231.909461263     A.U. after    2 cycles

 The electronic state is 1-A.
 Alpha  occ. eigenvalues --  -11.27959 -11.25926 -11.25375 -11.24342 -11.24075
 Alpha  occ. eigenvalues --  -11.23681  -1.23054  -1.07896  -0.90138  -0.87874
 Alpha  occ. eigenvalues --   -0.77822  -0.73814  -0.70605  -0.66264  -0.58382
 Alpha  occ. eigenvalues --   -0.56024  -0.53999  -0.51382  -0.48752  -0.46493
 Alpha  occ. eigenvalues --   -0.39504  -0.31597
 Alpha virt. eigenvalues --    0.03195   0.03451   0.03838   0.04683   0.05720
 Alpha virt. eigenvalues --    0.06162   0.06953   0.09137   0.09203   0.10298
 Alpha virt. eigenvalues --    0.12639   0.13830   0.14102   0.14376   0.14810

 Mulliken charges:
               1
     1  C    0.358660
     2  C    0.288230
     3  C    0.303246
     4  C   -0.426166
     5  C    0.258921
     6  C   -0.618871
     7  H   -0.160507
     8  H   -0.151622
     9  H   -0.164993
    10  H   -0.180599
    11  H   -0.082199
    12  H   -0.051662
    13  H   -0.014171
    14  H    0.641734
 Sum of Mulliken charges =  -0.00000

 Dipole moment (field-independent basis, Debye):
    X=             -0.8143    Y=              1.9868    Z=              1.3029  Tot=              2.5116

 Test job not archived.
 1\1\GINC-SE108\SP\RHF\Aug-CC-pVDZ\C6H8\OHZDE\09-Apr-2025\0\\#t hf aug-
 cc-pvdz iop(5/13=1,5/36=2,99/5=2) pseudo=read geom=check guess=(read,t
 check) scf=(maxcycle=1)\\title\\0,1\C,0,1.22884563,-0.81057711,-0.4259
 7442\C,0,0.93680827,0.0729266,0.76361689\C,0,0.65566165,0.54477332,-0.
 63874118\C,0,-0.8512493,0.69774597,-0.42734093\C,0,-1.39373087,-0.4993
 8052,0.3134038\C,0,-0.50810261,0.20691319,1.29563867\H,0,0.67774421,-1
 .71752578,-0.634654\H,0,2.28315317,-0.88655847,-0.65933582\H,0,1.75156
 765,0.42394795,1.38014178\H,0,1.21362189,1.32066529,-1.14419044\H,0,-1

 Normal termination of Gaussian 16 at Wed Apr  9 03:21:11 2025.
