 Gaussian 16, Revision C.01,

 ----------------------------------------------------------------------
 #t hf aug-cc-pvdz symm=none int=(grid=ultrafine) guess=(read,tcheck) s
 table=(opt,rrhf)
 ----------------------------------------------------------------------
 -----
 title
 -----
 Symbolic Z-matrix:
 Charge =  0 Multiplicity = 1

 SCF Done:  E(RHF) =  -359.578640311     A.U. after   15 cycles
 Normal termination of Gaussian 16 at Wed Apr  9 17:26:30 2025.
 Gaussian 16:  ES64L-G16RevC.01  3-Jul-2019

 ----------------------------------------------------------------------
 #t hf aug-cc-pvdz iop(5/13=1,5/36=2,99/5=2) pseudo=read geom=check gue
 ss=(read,tcheck) scf=(maxcycle=1)
 ----------------------------------------------------------------------
 -----
 title
 -----
 Structure from the checkpoint file:  "Grambow2020_wb97xd3_006598_forward_mol1.chk"
 Charge =  0 Multiplicity = 1

                         Standard orientation:
 ---------------------------------------------------------------------
 Center     Atomic      Atomic             Coordinates (Angstroms)
 Number     Number       Type             X           Y           Z
 ---------------------------------------------------------------------
      1          6           0        2.562561   -0.289797    0.020237
      2          7           0        1.505593    0.692239   -0.092140
      3          6           0        0.316308    0.319738   -0.058027
      4          6           0       -0.910412    1.180241   -0.199609
      5          8           0       -1.925950    0.327390   -0.247247
      6          6           0       -1.502974   -0.985237    0.131914
      7          8           0       -0.112384   -0.991961    0.024904
      8          1           0        2.843429   -0.636101   -0.978176
      9          1           0        3.437875    0.184503    0.462333
     10          1           0        2.283700   -1.163350    0.616202
     11          1           0       -0.989854    2.041931    0.813224
     12          1           0       -0.840099    1.567460    1.528808
     13          1           0       -1.944801   -1.707663   -0.553152
     14          1           0       -1.815635   -1.165544    1.167392
 ---------------------------------------------------------------------

 SCF Done:  E(RHF) =  -359.942847765     A.U. after    2 cycles

 The electronic state is 1-A.
 Alpha  occ. eigenvalues --  -20.61652 -20.60412 -15.49936 -11.37730 -11.35136
 Alpha  occ. eigenvalues --  -11.33749 -11.25904  -1.59787  -1.49833  -1.24595
 Alpha  occ. eigenvalues --   -1.03716  -0.96397  -0.90258  -0.81956  -0.75970
 Alpha  occ. eigenvalues --   -0.73031  -0.68782  -0.67242  -0.62288  -0.62071
 Alpha  occ. eigenvalues --   -0.57632  -0.57105  -0.54345  -0.51654  -0.45913
 Alpha  occ. eigenvalues --   -0.42544  -0.36458
 Alpha virt. eigenvalues --    0.03092   0.03924   0.04347   0.04715   0.06015
 Alpha virt. eigenvalues --    0.06481   0.07090   0.08774   0.09199   0.09939
 Alpha virt. eigenvalues --    0.12126   0.13137   0.13462   0.14352   0.15345

 Mulliken charges:
               1
     1  C   -0.330565
     2  N    0.776728
     3  C   -0.210133
     4  C    0.478946
     5  O   -1.225578
     6  C    1.059097
     7  O   -1.401543
     8  H    0.152730
     9  H    0.059927
    10  H    0.117564
    11  H    0.158934
    12  H    0.158455
    13  H    0.060830
    14  H    0.144609
 Sum of Mulliken charges =  -0.00000

 Dipole moment (field-independent basis, Debye):
    X=             -1.2282    Y=             -2.9428    Z=              1.3779  Tot=              3.4738

 Test job not archived.
 1\1\GINC-SE029\SP\RHF\Aug-CC-pVDZ\C4H7N1O2\OHZDE\09-Apr-2025\0\\#t hf
 aug-cc-pvdz iop(5/13=1,5/36=2,99/5=2) pseudo=read geom=check guess=(re
 ad,tcheck) scf=(maxcycle=1)\\title\\0,1\C,0,2.31030604,-0.34470523,-0.
 68603215\N,0,1.31311245,0.6998495,-0.59267414\C,0,0.11038286,0.3912024
 2,-0.48087968\C,0,-1.06601529,1.32754775,-0.41233564\O,0,-2.13459026,0
 .54153118,-0.44794318\C,0,-1.76432452,-0.82561017,-0.24922451\O,0,-0.3
 9271467,-0.896423,-0.49193865\H,0,2.47565896,-0.59524543,-1.73747357\H
 ,0,3.25120186,0.03034262,-0.28523464\H,0,2.03134587,-1.26134865,-0.158

 Normal termination of Gaussian 16 at Wed Apr  9 17:26:34 2025.
