 Gaussian 16, Revision C.01,

 ----------------------------------------------------------------------
 #t hf aug-cc-pvdz symm=none int=(grid=ultrafine) guess=(read,tcheck) s
 table=(opt,rrhf)
 ----------------------------------------------------------------------
 -----
 title
 -----
 Symbolic Z-matrix:
 Charge =  0 Multiplicity = 1

 SCF Done:  E(RHF) =  -342.585056572     A.U. after   14 cycles
 Normal termination of Gaussian 16 at Wed Apr  9 19:04:49 2025.
 Gaussian 16:  ES64L-G16RevC.01  3-Jul-2019

 ----------------------------------------------------------------------
 #t hf aug-cc-pvdz iop(5/13=1,5/36=2,99/5=2) pseudo=read geom=check gue
 ss=(read,tcheck) scf=(maxcycle=1)
 ----------------------------------------------------------------------
 -----
 title
 -----
 Structure from the checkpoint file:  "Grambow2020_wb97xd3_008521_reverse_mol2.chk"
 Charge =  0 Multiplicity = 1

                         Standard orientation:
 ---------------------------------------------------------------------
 Center     Atomic      Atomic             Coordinates (Angstroms)
 Number     Number       Type             X           Y           Z
 ---------------------------------------------------------------------
      1          8           0        0.348996    1.994957    0.000325
      2          6           0       -0.065558    0.860999   -0.000356
      3          6           0       -1.532633    0.449316   -0.000109
      4          8           0       -1.532428   -0.978108    0.000758
      5          6           0       -0.244893   -1.368134   -0.000367
      6          6           0        2.164528   -0.503093    0.000103
      7          6           0        0.679675   -0.397458   -0.000640
      8          1           0       -2.046504    0.808110   -0.892596
      9          1           0       -2.049374    0.810073    0.889842
     10          1           0       -0.105787   -2.441917   -0.000430
     11          1           0        2.586807   -0.006237   -0.875291
     12          1           0        2.491495   -1.543266   -0.001685
     13          1           0        2.584100   -0.011335    0.879710
 ---------------------------------------------------------------------

 SCF Done:  E(RHF) =  -342.931815703     A.U. after    2 cycles

 The electronic state is 1-A.
 Alpha  occ. eigenvalues --  -20.59943 -20.53104 -11.34101 -11.33607 -11.31063
 Alpha  occ. eigenvalues --  -11.24519 -11.24465  -1.53884  -1.46745  -1.11127
 Alpha  occ. eigenvalues --   -1.02397  -0.96440  -0.83132  -0.77364  -0.71340
 Alpha  occ. eigenvalues --   -0.69741  -0.64499  -0.60973  -0.59494  -0.59039
 Alpha  occ. eigenvalues --   -0.56583  -0.55247  -0.54472  -0.51221  -0.40854
 Alpha  occ. eigenvalues --   -0.35709
 Alpha virt. eigenvalues --    0.03128   0.03902   0.04283   0.04597   0.06512
 Alpha virt. eigenvalues --    0.06585   0.08555   0.08612   0.10312   0.11980
 Alpha virt. eigenvalues --    0.12555   0.12994   0.14203   0.14467   0.15171

 Mulliken charges:
               1
     1  O   -1.506684
     2  C    0.634114
     3  C    0.459730
     4  O   -1.388580
     5  C    0.949305
     6  C   -0.670039
     7  C    0.690806
     8  H    0.185444
     9  H    0.184087
    10  H   -0.159875
    11  H    0.245530
    12  H    0.129413
    13  H    0.246749
 Sum of Mulliken charges =   0.00000

 Dipole moment (field-independent basis, Debye):
    X=             -0.4347    Y=             -2.9401    Z=             -0.0013  Tot=              2.9720

 Test job not archived.
 1\1\GINC-SE207\SP\RHF\Aug-CC-pVDZ\C5H6O2\OHZDE\09-Apr-2025\0\\#t hf au
 g-cc-pvdz iop(5/13=1,5/36=2,99/5=2) pseudo=read geom=check guess=(read
 ,tcheck) scf=(maxcycle=1)\\title\\0,1\O,0,1.02298932,1.32659774,1.3743
 3656\C,0,0.79416474,0.53429125,0.49251642\C,0,1.83183935,-0.10224323,-
 0.42391523\O,0,1.09918693,-0.95980907,-1.2987538\C,0,-0.19688871,-0.85
 361129,-0.95411175\C,0,-1.80425608,0.30604291,0.66612768\C,0,-0.485913
 05,-0.02490439,0.059174\H,0,2.55127685,-0.69551591,0.1415635\H,0,2.359
 23182,0.64836373,-1.0135125\H,0,-0.86623985,-1.46239548,-1.54884846\H,

 Normal termination of Gaussian 16 at Wed Apr  9 19:04:53 2025.
