 Gaussian 16, Revision C.01,

 ----------------------------------------------------------------------
 #t hf aug-cc-pvdz symm=none int=(grid=ultrafine) guess=(read,tcheck) s
 table=(opt,rrhf)
 ----------------------------------------------------------------------
 -----
 title
 -----
 Symbolic Z-matrix:
 Charge =  0 Multiplicity = 1

 SCF Done:  E(RHF) =  -360.897546626     A.U. after   12 cycles
 Normal termination of Gaussian 16 at Wed Apr  9 03:59:17 2025.
 Gaussian 16:  ES64L-G16RevC.01  3-Jul-2019

 ----------------------------------------------------------------------
 #t hf aug-cc-pvdz iop(5/13=1,5/36=2,99/5=2) pseudo=read geom=check gue
 ss=(read,tcheck) scf=(maxcycle=1)
 ----------------------------------------------------------------------
 -----
 title
 -----
 Structure from the checkpoint file:  "Grambow2020_wb97xd3_008730_reverse_mol2.chk"
 Charge =  0 Multiplicity = 1

                         Standard orientation:
 ---------------------------------------------------------------------
 Center     Atomic      Atomic             Coordinates (Angstroms)
 Number     Number       Type             X           Y           Z
 ---------------------------------------------------------------------
      1          6           0        1.638077    1.033439   -0.347994
      2          6           0        0.730588   -0.084753    0.077109
      3          8           0        1.228124   -1.372950   -0.190395
      4          6           0       -0.039981    0.015064    1.367341
      5          6           0       -0.765955    0.086196    0.054741
      6          8           0       -1.299161    1.337325   -0.248072
      7          7           0       -1.554670   -0.982959   -0.459366
      8          1           0        2.591125    0.966320    0.179564
      9          1           0        1.183546    2.000519   -0.140088
     10          1           0        1.835926    0.985415   -1.423681
     11          1           0       -1.598762    1.286269   -1.160737
     12          1           0        1.493204   -1.403362   -1.113147
     13          1           0       -0.147421   -0.897782    1.939154
     14          1           0        0.068228    0.925244    1.943447
     15          1           0       -0.998562   -1.823266   -0.540436
     16          1           0       -2.352667   -1.173324    0.132037
 ---------------------------------------------------------------------

 SCF Done:  E(RHF) =  -361.273666525     A.U. after    2 cycles

 The electronic state is 1-A.
 Alpha  occ. eigenvalues --  -20.56157 -20.55116 -15.49276 -11.31431 -11.29093
 Alpha  occ. eigenvalues --  -11.23082 -11.22577  -1.47335  -1.46172  -1.19964
 Alpha  occ. eigenvalues --   -1.11180  -0.97628  -0.82305  -0.79931  -0.72841
 Alpha  occ. eigenvalues --   -0.71819  -0.67480  -0.65865  -0.62126  -0.59488
 Alpha  occ. eigenvalues --   -0.56431  -0.54916  -0.54223  -0.51027  -0.49853
 Alpha  occ. eigenvalues --   -0.49031  -0.41482  -0.37005
 Alpha virt. eigenvalues --    0.03269   0.04035   0.04646   0.04713   0.06179
 Alpha virt. eigenvalues --    0.06293   0.06809   0.07132   0.08642   0.11151
 Alpha virt. eigenvalues --    0.12210   0.13481   0.14154   0.14893   0.15263

 Mulliken charges:
               1
     1  C   -0.456944
     2  C    1.253196
     3  O   -1.566247
     4  C    0.067700
     5  C    0.175491
     6  O   -1.378088
     7  N    0.580469
     8  H    0.223028
     9  H    0.151884
    10  H    0.174344
    11  H    0.210346
    12  H    0.262638
    13  H   -0.082437
    14  H   -0.087413
    15  H    0.265996
    16  H    0.206038
 Sum of Mulliken charges =   0.00000

 Dipole moment (field-independent basis, Debye):
    X=              0.4673    Y=             -0.4912    Z=             -0.9317  Tot=              1.1522

 Test job not archived.
 1\1\GINC-SE150\SP\RHF\Aug-CC-pVDZ\C4H9N1O2\OHZDE\09-Apr-2025\0\\#t hf
 aug-cc-pvdz iop(5/13=1,5/36=2,99/5=2) pseudo=read geom=check guess=(re
 ad,tcheck) scf=(maxcycle=1)\\title\\0,1\C,0,-1.64808971,-0.11162783,-1
 .03971891\C,0,-0.52408371,0.23374643,-0.10594708\O,0,-0.59861499,1.526
 74312,0.44282992\C,0,0.01436967,-0.80201885,0.84573341\C,0,0.85307977,
 -0.34117282,-0.31150598\O,0,1.04529674,-1.29639759,-1.30746082\N,0,1.9
 7104077,0.52982446,-0.16660106\H,0,-2.6028869,-0.06574302,-0.51304895\
 H,0,-1.51603217,-1.11097024,-1.45074472\H,0,-1.68433346,0.58937851,-1.

 Normal termination of Gaussian 16 at Wed Apr  9 03:59:23 2025.
