 Gaussian 16, Revision C.01,

 ----------------------------------------------------------------------
 #t hf aug-cc-pvdz symm=none int=(grid=ultrafine) guess=(read,tcheck) s
 table=(opt,rrhf)
 ----------------------------------------------------------------------
 -----
 title
 -----
 Symbolic Z-matrix:
 Charge =  0 Multiplicity = 1

 SCF Done:  E(RHF) =  -354.618926569     A.U. after   15 cycles
 Normal termination of Gaussian 16 at Wed Apr  9 18:20:03 2025.
 Gaussian 16:  ES64L-G16RevC.01  3-Jul-2019

 ----------------------------------------------------------------------
 #t hf aug-cc-pvdz iop(5/13=1,5/36=2,99/5=2) pseudo=read geom=check gue
 ss=(read,tcheck) scf=(maxcycle=1)
 ----------------------------------------------------------------------
 -----
 title
 -----
 Structure from the checkpoint file:  "Grambow2020_wb97xd3_007323_reverse_mol2.chk"
 Charge =  0 Multiplicity = 1

                         Standard orientation:
 ---------------------------------------------------------------------
 Center     Atomic      Atomic             Coordinates (Angstroms)
 Number     Number       Type             X           Y           Z
 ---------------------------------------------------------------------
      1          8           0        2.144553    0.739339    0.783516
      2          6           0        2.117242    0.115177   -0.462135
      3          6           0       -0.108523   -0.648913   -0.111046
      4          7           0       -1.142090   -0.826343    0.540732
      5          7           0       -2.231629    0.018752    0.271006
      6          6           0       -2.209579    0.999581   -0.565918
      7          7           0        0.923639   -0.665027   -0.725988
      8          1           0        2.296685    0.082511    1.466463
      9          1           0        2.968197   -0.556454   -0.604195
     10          1           0        2.160391    0.902543   -1.214142
     11          1           0       -3.009871   -0.275695    0.849220
     12          1           0       -3.216101    1.445642   -0.531128
 ---------------------------------------------------------------------

 SCF Done:  E(RHF) =  -354.976149896     A.U. after    2 cycles

 The electronic state is 1-A.
 Alpha  occ. eigenvalues --  -20.57375 -15.60329 -15.54674 -15.53186 -11.36630
 Alpha  occ. eigenvalues --  -11.34843 -11.26118  -1.48787  -1.36186  -1.28063
 Alpha  occ. eigenvalues --   -1.18136  -0.99267  -0.94415  -0.80211  -0.77698
 Alpha  occ. eigenvalues --   -0.71409  -0.68028  -0.67206  -0.64338  -0.61031
 Alpha  occ. eigenvalues --   -0.57739  -0.53865  -0.50217  -0.46436  -0.42481
 Alpha  occ. eigenvalues --   -0.37900
 Alpha virt. eigenvalues --    0.02994   0.04206   0.04845   0.05646   0.06046
 Alpha virt. eigenvalues --    0.07600   0.08483   0.10396   0.11197   0.12055
 Alpha virt. eigenvalues --    0.12240   0.12509   0.13451   0.14389   0.15589

 Mulliken charges:
               1
     1  O   -1.012825
     2  C    0.664636
     3  C   -1.462039
     4  N    0.399925
     5  N    0.401696
     6  C   -0.439487
     7  N    0.765861
     8  H    0.305985
     9  H    0.116998
    10  H    0.101637
    11  H    0.090116
    12  H    0.067496
 Sum of Mulliken charges =  -0.00000

 Dipole moment (field-independent basis, Debye):
    X=              0.0239    Y=             -0.7257    Z=              1.4028  Tot=              1.5795

 Test job not archived.
 1\1\GINC-SE035\SP\RHF\Aug-CC-pVDZ\C3H5N3O1\OHZDE\09-Apr-2025\0\\#t hf
 aug-cc-pvdz iop(5/13=1,5/36=2,99/5=2) pseudo=read geom=check guess=(re
 ad,tcheck) scf=(maxcycle=1)\\title\\0,1\O,0,-2.09764303,0.78481792,0.4
 5892116\C,0,-2.0472603,-0.482908,-0.1175371\C,0,0.16307111,-0.11120299
 ,-0.91590799\N,0,1.17982333,0.5564643,-1.12802477\N,0,2.28264189,0.343
 99671,-0.28381983\C,0,2.288404,-0.45500032,0.72836794\N,0,-0.8548202,-
 0.74945661,-0.89860311\H,0,-2.27115864,1.43847796,-0.22196503\H,0,-2.9
 0060082,-0.66978292,-0.77501854\H,0,-2.06623676,-1.20496449,0.69830364

 Normal termination of Gaussian 16 at Wed Apr  9 18:20:07 2025.
