 Gaussian 16, Revision C.01,

 ----------------------------------------------------------------------
 #t hf aug-cc-pvdz symm=none int=(grid=ultrafine) guess=(read,tcheck) s
 table=(opt,rrhf)
 ----------------------------------------------------------------------
 -----
 title
 -----
 Symbolic Z-matrix:
 Charge =  0 Multiplicity = 1

 SCF Done:  E(RHF) =  -380.624356948     A.U. after   15 cycles
 Normal termination of Gaussian 16 at Wed Apr  9 19:02:53 2025.
 Gaussian 16:  ES64L-G16RevC.01  3-Jul-2019

 ----------------------------------------------------------------------
 #t hf aug-cc-pvdz iop(5/13=1,5/36=2,99/5=2) pseudo=read geom=check gue
 ss=(read,tcheck) scf=(maxcycle=1)
 ----------------------------------------------------------------------
 -----
 title
 -----
 Structure from the checkpoint file:  "Grambow2020_wb97xd3_008485_forward_mol1.chk"
 Charge =  0 Multiplicity = 1

                         Standard orientation:
 ---------------------------------------------------------------------
 Center     Atomic      Atomic             Coordinates (Angstroms)
 Number     Number       Type             X           Y           Z
 ---------------------------------------------------------------------
      1          6           0        2.838992   -0.251247   -0.484345
      2          8           0        1.607354   -0.738005    0.041152
      3          6           0        0.696236    0.202871    0.348521
      4          8           0        0.892654    1.382508    0.194683
      5          6           0       -0.569053   -0.394165    0.818381
      6          6           0       -2.120040   -0.039600   -0.760139
      7          8           0       -3.286414   -0.003935   -0.118694
      8          1           0        3.342046    0.385629    0.243716
      9          1           0        3.439768   -1.132372   -0.695128
     10          1           0        2.669183    0.322395   -1.395701
     11          1           0       -0.467819   -1.401457    1.217506
     12          1           0       -1.122223    0.269494    1.471079
     13          1           0       -1.732357    0.980061   -0.837024
     14          1           0       -1.224055   -0.779404   -0.326428
     15          1           0       -3.690106   -0.876047   -0.149645
 ---------------------------------------------------------------------

 SCF Done:  E(RHF) =  -381.010103557     A.U. after    2 cycles

 The electronic state is 1-A.
 Alpha  occ. eigenvalues --  -20.60884 -20.58721 -20.52670 -11.38411 -11.32567
 Alpha  occ. eigenvalues --  -11.29215 -11.25698  -1.54423  -1.52617  -1.44647
 Alpha  occ. eigenvalues --   -1.04777  -0.95914  -0.90246  -0.78432  -0.73422
 Alpha  occ. eigenvalues --   -0.70041  -0.68265  -0.67123  -0.65757  -0.60887
 Alpha  occ. eigenvalues --   -0.59978  -0.58105  -0.54699  -0.52721  -0.51068
 Alpha  occ. eigenvalues --   -0.45325  -0.44149  -0.32968
 Alpha virt. eigenvalues --    0.03056   0.03863   0.04557   0.04961   0.05956
 Alpha virt. eigenvalues --    0.06559   0.07064   0.07905   0.08662   0.10539
 Alpha virt. eigenvalues --    0.12234   0.13014   0.13789   0.14546   0.15104

 Mulliken charges:
               1
     1  C    0.273239
     2  O   -1.330489
     3  C    2.366843
     4  O   -1.282730
     5  C   -1.187278
     6  C    0.374156
     7  O   -0.992530
     8  H    0.162852
     9  H   -0.000651
    10  H    0.158972
    11  H    0.044341
    12  H    0.212398
    13  H    0.081291
    14  H    0.765126
    15  H    0.354462
 Sum of Mulliken charges =  -0.00000

 Dipole moment (field-independent basis, Debye):
    X=             -0.6665    Y=             -2.6446    Z=              0.2515  Tot=              2.7389

 Test job not archived.
 1\1\GINC-SE162\SP\RHF\Aug-CC-pVDZ\C4H8O3\OHZDE\09-Apr-2025\0\\#t hf au
 g-cc-pvdz iop(5/13=1,5/36=2,99/5=2) pseudo=read geom=check guess=(read
 ,tcheck) scf=(maxcycle=1)\\title\\0,1\C,0,-2.75076119,0.36661527,-0.31
 911414\O,0,-1.54564444,0.30753372,0.43865499\C,0,-0.5985341,-0.5180189
 6,-0.04228709\O,0,-0.74360659,-1.17003826,-1.04608829\C,0,0.63606586,-
 0.46255969,0.7644739\C,0,2.2151163,0.54011616,-0.47012764\O,0,3.375991
 43,0.05265659,-0.03664859\H,0,-3.23320464,-0.61065075,-0.34989987\H,0,
 -3.38618972,1.08623957,0.19089943\H,0,-2.54851581,0.69146154,-1.339917

 Normal termination of Gaussian 16 at Wed Apr  9 19:02:58 2025.
