 Gaussian 16, Revision C.01,

 ----------------------------------------------------------------------
 #t hf aug-cc-pvdz symm=none int=(grid=ultrafine) guess=(read,tcheck) s
 table=(opt,rrhf)
 ----------------------------------------------------------------------
 -----
 title
 -----
 Symbolic Z-matrix:
 Charge =  0 Multiplicity = 1

 SCF Done:  E(RHF) =  -343.715887201     A.U. after   13 cycles
 Normal termination of Gaussian 16 at Wed Apr  9 04:04:48 2025.
 Gaussian 16:  ES64L-G16RevC.01  3-Jul-2019

 ----------------------------------------------------------------------
 #t hf aug-cc-pvdz iop(5/13=1,5/36=2,99/5=2) pseudo=read geom=check gue
 ss=(read,tcheck) scf=(maxcycle=1)
 ----------------------------------------------------------------------
 -----
 title
 -----
 Structure from the checkpoint file:  "Grambow2020_wb97xd3_009103_reverse_mol2.chk"
 Charge =  0 Multiplicity = 1

                         Standard orientation:
 ---------------------------------------------------------------------
 Center     Atomic      Atomic             Coordinates (Angstroms)
 Number     Number       Type             X           Y           Z
 ---------------------------------------------------------------------
      1          6           0        0.316305    1.522696   -0.069406
      2          6           0       -0.986030    1.263758    0.006342
      3          8           0       -1.633485    0.090263    0.180059
      4          6           0       -1.026512   -1.107570   -0.269472
      5          6           0        0.338643   -1.415124    0.310993
      6          8           0        1.368600   -0.707845   -0.327993
      7          6           0        1.506166    0.621994    0.108473
      8          1           0        2.350402    1.026889   -0.451029
      9          1           0        0.557835    2.572466   -0.195742
     10          1           0       -1.698868    2.079319   -0.048412
     11          1           0       -0.936023   -1.075201   -1.361432
     12          1           0       -1.728722   -1.895894    0.005645
     13          1           0        0.345009   -1.232408    1.395435
     14          1           0        0.544719   -2.475005    0.144155
     15          1           0        1.793290    0.625961    1.173263
 ---------------------------------------------------------------------

 SCF Done:  E(RHF) =  -344.069282427     A.U. after    2 cycles

 The electronic state is 1-A.
 Alpha  occ. eigenvalues --  -20.56852 -20.54811 -11.29819 -11.29275 -11.29209
 Alpha  occ. eigenvalues --  -11.28908 -11.22910  -1.50105  -1.47172  -1.07618
 Alpha  occ. eigenvalues --   -1.00938  -0.95753  -0.83876  -0.76444  -0.72098
 Alpha  occ. eigenvalues --   -0.70759  -0.66378  -0.63679  -0.61948  -0.60401
 Alpha  occ. eigenvalues --   -0.57125  -0.53638  -0.51011  -0.49026  -0.47360
 Alpha  occ. eigenvalues --   -0.41993  -0.34458
 Alpha virt. eigenvalues --    0.03777   0.03849   0.04223   0.04490   0.05979
 Alpha virt. eigenvalues --    0.06148   0.06759   0.07443   0.11077   0.12288
 Alpha virt. eigenvalues --    0.12440   0.13829   0.14016   0.14381   0.15302

 Mulliken charges:
               1
     1  C    0.449069
     2  C    0.894857
     3  O   -1.511061
     4  C    0.440653
     5  C    0.388916
     6  O   -1.294237
     7  C    0.204237
     8  H   -0.021374
     9  H   -0.183074
    10  H   -0.111067
    11  H    0.199401
    12  H    0.023206
    13  H    0.239998
    14  H    0.008502
    15  H    0.271974
 Sum of Mulliken charges =  -0.00000

 Dipole moment (field-independent basis, Debye):
    X=              0.0416    Y=             -0.1078    Z=              0.4941  Tot=              0.5075

 Test job not archived.
 1\1\GINC-SE051\SP\RHF\Aug-CC-pVDZ\C5H8O2\OHZDE\09-Apr-2025\0\\#t hf au
 g-cc-pvdz iop(5/13=1,5/36=2,99/5=2) pseudo=read geom=check guess=(read
 ,tcheck) scf=(maxcycle=1)\\title\\0,1\C,0,-1.5022749,-0.23484251,0.303
 49513\C,0,-1.34226354,0.51220584,-0.78516389\O,0,-0.21461672,0.8786928
 1,-1.433673\C,0,0.99592156,0.98941961,-0.70728753\C,0,1.4465378,-0.260
 31015,0.02092636\O,0,0.7829226,-0.441048,1.24416288\C,0,-0.50120616,-1
 .00128065,1.12148484\H,0,-0.87350854,-1.10380779,2.14158142\H,0,-2.535
 72887,-0.38310506,0.59727367\H,0,-2.21320239,0.90301862,-1.29995347\H,

 Normal termination of Gaussian 16 at Wed Apr  9 04:04:53 2025.
