 Gaussian 16, Revision C.01,

 ----------------------------------------------------------------------
 #t hf aug-cc-pvdz symm=none int=(grid=ultrafine) guess=(read,tcheck) s
 table=(opt,rrhf)
 ----------------------------------------------------------------------
 -----
 title
 -----
 Symbolic Z-matrix:
 Charge =  0 Multiplicity = 1

 SCF Done:  E(RHF) =  -304.598419631     A.U. after   17 cycles
 Normal termination of Gaussian 16 at Wed Apr  9 15:55:43 2025.
 Gaussian 16:  ES64L-G16RevC.01  3-Jul-2019

 ----------------------------------------------------------------------
 #t hf aug-cc-pvdz iop(5/13=1,5/36=2,99/5=2) pseudo=read geom=check gue
 ss=(read,tcheck) scf=(maxcycle=1)
 ----------------------------------------------------------------------
 -----
 title
 -----
 Structure from the checkpoint file:  "Grambow2020_b97d3_007019_reverse_mol1.chk"
 Charge =  0 Multiplicity = 1

                         Standard orientation:
 ---------------------------------------------------------------------
 Center     Atomic      Atomic             Coordinates (Angstroms)
 Number     Number       Type             X           Y           Z
 ---------------------------------------------------------------------
      1          8           0        1.665076   -1.032648    0.280387
      2          6           0        1.656787    0.186965   -0.215716
      3          6           0        0.433963    0.912882   -0.499799
      4          6           0       -0.484488    0.739001    0.692801
      5          6           0       -1.600658   -0.063447    0.421388
      6          8           0       -1.825788   -0.630979   -0.688482
      7          1           0        0.712595   -1.263834    0.465726
      8          1           0        2.668714    0.576709   -0.348706
      9          1           0        0.642878    1.935103   -0.841830
     10          1           0       -0.154037    0.361321   -1.295509
     11          1           0       -0.263392    1.186749    1.658344
     12          1           0       -2.354684   -0.139438    1.234693
 ---------------------------------------------------------------------

 SCF Done:  E(RHF) =  -304.906630715     A.U. after    2 cycles

 The electronic state is 1-A.
 Alpha  occ. eigenvalues --  -20.68872 -20.45524 -11.45737 -11.28063 -11.27593
 Alpha  occ. eigenvalues --  -11.19700  -1.60222  -1.37198  -1.11271  -0.97999
 Alpha  occ. eigenvalues --   -0.90285  -0.77019  -0.76378  -0.71990  -0.67141
 Alpha  occ. eigenvalues --   -0.64323  -0.61210  -0.56849  -0.54032  -0.50816
 Alpha  occ. eigenvalues --   -0.47940  -0.36071  -0.28212
 Alpha virt. eigenvalues --    0.00861   0.01519   0.03938   0.04196   0.05238
 Alpha virt. eigenvalues --    0.06415   0.06887   0.09928   0.11265   0.11651
 Alpha virt. eigenvalues --    0.12364   0.13778   0.14449   0.14615   0.15127

 Mulliken charges:
               1
     1  O   -1.313862
     2  C    1.318965
     3  C   -0.563873
     4  C    0.155989
     5  C    0.774265
     6  O   -1.376236
     7  H    0.540793
     8  H    0.119091
     9  H    0.110965
    10  H    0.355086
    11  H   -0.224690
    12  H    0.103508
 Sum of Mulliken charges =   0.00000

 Dipole moment (field-independent basis, Debye):
    X=              6.9591    Y=              1.4818    Z=              0.7600  Tot=              7.1556

 Test job not archived.
 1\1\GINC-SE043\SP\RHF\Aug-CC-pVDZ\C4H6O2\OHZDE\09-Apr-2025\0\\#t hf au
 g-cc-pvdz iop(5/13=1,5/36=2,99/5=2) pseudo=read geom=check guess=(read
 ,tcheck) scf=(maxcycle=1)\\title\\0,1\O,0,-1.92267675,0.46170894,0.243
 06693\C,0,-1.32210697,-0.11884309,-0.77473406\C,0,0.11874125,-0.256156
 72,-0.86449653\C,0,0.61361805,-0.73764402,0.48433581\C,0,1.3459826,0.2
 301777,1.18461121\O,0,1.55673363,1.40963691,0.77345685\H,0,-1.20544032
 ,0.68139996,0.90058109\H,0,-2.04015628,-0.50043444,-1.50437583\H,0,0.4
 1392086,-0.82874955,-1.75363816\H,0,0.5923479,0.77210011,-0.90326492\H

 Normal termination of Gaussian 16 at Wed Apr  9 15:55:47 2025.
