 Gaussian 16, Revision C.01,

 ----------------------------------------------------------------------
 #t hf aug-cc-pvdz symm=none int=(grid=ultrafine) guess=(read,tcheck) s
 table=(opt,rrhf)
 ----------------------------------------------------------------------
 -----
 title
 -----
 Symbolic Z-matrix:
 Charge =  0 Multiplicity = 1

 SCF Done:  E(RHF) =  -322.454629466     A.U. after   16 cycles
 Normal termination of Gaussian 16 at Wed Apr  9 17:18:33 2025.
 Gaussian 16:  ES64L-G16RevC.01  3-Jul-2019

 ----------------------------------------------------------------------
 #t hf aug-cc-pvdz iop(5/13=1,5/36=2,99/5=2) pseudo=read geom=check gue
 ss=(read,tcheck) scf=(maxcycle=1)
 ----------------------------------------------------------------------
 -----
 title
 -----
 Structure from the checkpoint file:  "Grambow2020_wb97xd3_006562_reverse_mol1.chk"
 Charge =  0 Multiplicity = 1

                         Standard orientation:
 ---------------------------------------------------------------------
 Center     Atomic      Atomic             Coordinates (Angstroms)
 Number     Number       Type             X           Y           Z
 ---------------------------------------------------------------------
      1          8           0        2.460076    0.395976   -0.136187
      2          6           0        0.909301   -0.814995    0.074152
      3          6           0       -0.118637   -0.167976    0.945942
      4          6           0       -0.481553    0.921321   -0.100141
      5          6           0       -1.927014    0.476620   -0.040227
      6          7           0       -1.219736   -0.856330    0.097716
      7          6           0       -0.130977   -0.362510   -0.896450
      8          1           0        2.634849    0.706638    0.758632
      9          1           0        2.206260   -0.722699    0.002817
     10          1           0       -0.200043   -0.121596    2.029842
     11          1           0       -0.020682    1.900644   -0.213775
     12          1           0       -2.517046    0.742299    0.839585
     13          1           0       -2.529925    0.551457   -0.947499
     14          1           0       -0.222590   -0.545007   -1.963778
 ---------------------------------------------------------------------

 SCF Done:  E(RHF) =  -322.788224307     A.U. after    2 cycles

 The electronic state is 1-A.
 Alpha  occ. eigenvalues --  -20.54414 -15.53396 -11.29796 -11.29609 -11.29304
 Alpha  occ. eigenvalues --  -11.27893 -11.27399  -1.41047  -1.35222  -1.05646
 Alpha  occ. eigenvalues --   -0.95991  -0.91401  -0.84003  -0.73371  -0.72091
 Alpha  occ. eigenvalues --   -0.68371  -0.64954  -0.60239  -0.59260  -0.53008
 Alpha  occ. eigenvalues --   -0.51460  -0.50987  -0.47706  -0.47436  -0.42970
 Alpha  occ. eigenvalues --   -0.36433
 Alpha virt. eigenvalues --    0.03114   0.03767   0.04011   0.04515   0.05514
 Alpha virt. eigenvalues --    0.05925   0.07197   0.08636   0.09934   0.11499
 Alpha virt. eigenvalues --    0.11962   0.12718   0.13650   0.13778   0.14581

 Mulliken charges:
               1
     1  O   -1.056245
     2  C   -0.246317
     3  C   -0.046820
     4  C    0.629940
     5  C    0.036770
     6  N    0.370464
     7  C   -0.003496
     8  H    0.385310
     9  H    0.655509
    10  H   -0.208416
    11  H   -0.192222
    12  H   -0.058218
    13  H   -0.055078
    14  H   -0.211181
 Sum of Mulliken charges =  -0.00000

 Dipole moment (field-independent basis, Debye):
    X=             -1.0370    Y=              2.4039    Z=              1.0709  Tot=              2.8286

 Test job not archived.
 1\1\GINC-SE232\SP\RHF\Aug-CC-pVDZ\C5H7N1O1\OHZDE\09-Apr-2025\0\\#t hf
 aug-cc-pvdz iop(5/13=1,5/36=2,99/5=2) pseudo=read geom=check guess=(re
 ad,tcheck) scf=(maxcycle=1)\\title\\0,1\O,0,2.53421675,0.14415358,0.35
 969065\C,0,0.97377973,0.6163676,-0.7617583\C,0,0.01930676,-0.53362685,
 -0.80420135\C,0,-0.38642289,-0.39623232,0.68880547\C,0,-1.83448994,-0.
 26610578,0.26824018\N,0,-1.14962228,0.48454651,-0.85581668\C,0,-0.1169
 9968,1.03880064,0.16600134\H,0,2.77361595,-0.7405182,0.06337686\H,0,2.
 26510197,0.70068872,-0.61653805\H,0,0.00952411,-1.42292599,-1.43083559

 Normal termination of Gaussian 16 at Wed Apr  9 17:18:38 2025.
