 Gaussian 16, Revision C.01,

 ----------------------------------------------------------------------
 #t hf aug-cc-pvdz symm=none int=(grid=ultrafine) guess=(read,tcheck) s
 table=(opt,rrhf)
 ----------------------------------------------------------------------
 -----
 title
 -----
 Symbolic Z-matrix:
 Charge =  0 Multiplicity = 1

 SCF Done:  E(RHF) =  -269.997646927     A.U. after   12 cycles

 1\1\GINC-SE220\Stability\RHF\Aug-CC-pVDZ\C5H10O1\OHZDE\09-Apr-2025\0\\
 #t hf aug-cc-pvdz symm=none int=(grid=ultrafine) guess=(read,tcheck) s
 table=(opt,rrhf)\\title\\0,1\O,0,1.92131828,0.0500147,-0.44147888\C,0,
 1.47140512,-0.96726874,0.42957733\C,0,0.23453958,-1.64781335,-0.075374
 99\C,0,-0.87460527,-1.8056131,0.63046195\C,0,-0.95234704,1.8252922,-1.
 02677523\C,0,-0.74270562,2.07361266,0.25646474\H,0,1.22811503,0.715426
 29,-0.50587111\H,0,2.29137396,-1.68732267,0.49203009\H,0,1.29766394,-0
 .58228917,1.44332582\H,0,0.2902638,-2.018359,-1.09617049\H,0,-0.951522

 Normal termination of Gaussian 16 at Wed Apr  9 16:47:07 2025.
 Gaussian 16:  ES64L-G16RevC.01  3-Jul-2019

 ----------------------------------------------------------------------
 #t hf aug-cc-pvdz iop(5/13=1,5/36=2,99/5=2) pseudo=read geom=check gue
 ss=(read,tcheck) scf=(maxcycle=1)
 ----------------------------------------------------------------------
 -----
 title
 -----
 Structure from the checkpoint file:  "Grambow2020_wb97xd3_006151_reverse_mol2.chk"
 Charge =  0 Multiplicity = 1

                         Standard orientation:
 ---------------------------------------------------------------------
 Center     Atomic      Atomic             Coordinates (Angstroms)
 Number     Number       Type             X           Y           Z
 ---------------------------------------------------------------------
      1          8           0       -0.437628   -1.713490   -0.200764
      2          6           0       -1.378317   -0.818954    0.356853
      3          6           0       -1.476311    0.463064   -0.414369
      4          6           0       -1.366774    1.669240    0.120841
      5          6           0        2.305352    0.296862   -0.632833
      6          6           0        2.218731    0.244732    0.687053
      7          1           0        0.427328   -1.290846   -0.174826
      8          1           0       -2.337322   -1.342637    0.328720
      9          1           0       -1.154954   -0.604108    1.410433
     10          1           0       -1.643900    0.352367   -1.483056
     11          1           0       -1.194731    1.800524    1.184951
     12          1           0       -1.453949    2.569319   -0.475499
     13          1           0        3.073988   -0.242573   -1.174474
     14          1           0        1.607794    0.883382   -1.220488
     15          1           0        1.449163    0.790849    1.221792
     16          1           0        2.911520   -0.338019    1.283286
 ---------------------------------------------------------------------

 SCF Done:  E(RHF) =  -270.287009072     A.U. after    2 cycles

 The electronic state is 1-A.
 Alpha  occ. eigenvalues --  -20.53812 -11.28505 -11.25066 -11.24920 -11.24372
 Alpha  occ. eigenvalues --  -11.23951  -1.44282  -1.06883  -1.05138  -0.92219
 Alpha  occ. eigenvalues --   -0.80441  -0.77835  -0.70350  -0.66275  -0.63074
 Alpha  occ. eigenvalues --   -0.62023  -0.61238  -0.60439  -0.53216  -0.52080
 Alpha  occ. eigenvalues --   -0.49264  -0.44180  -0.40093  -0.38097
 Alpha virt. eigenvalues --    0.03594   0.03779   0.04067   0.04620   0.05850
 Alpha virt. eigenvalues --    0.06559   0.06725   0.07130   0.08201   0.08786
 Alpha virt. eigenvalues --    0.10340   0.11857   0.12715   0.13817   0.14838

 Mulliken charges:
               1
     1  O   -1.141109
     2  C    0.374756
     3  C    0.528659
     4  C   -0.000039
     5  C    0.070064
     6  C    0.117552
     7  H    0.485066
     8  H    0.088488
     9  H    0.045113
    10  H   -0.156601
    11  H   -0.076787
    12  H   -0.109431
    13  H   -0.074884
    14  H   -0.024310
    15  H   -0.058560
    16  H   -0.067979
 Sum of Mulliken charges =  -0.00000

 Dipole moment (field-independent basis, Debye):
    X=              0.6239    Y=              1.5598    Z=              0.4640  Tot=              1.7429

 Test job not archived.
 1\1\GINC-SE220\SP\RHF\Aug-CC-pVDZ\C5H10O1\OHZDE\09-Apr-2025\0\\#t hf a
 ug-cc-pvdz iop(5/13=1,5/36=2,99/5=2) pseudo=read geom=check guess=(rea
 d,tcheck) scf=(maxcycle=1)\\title\\0,1\O,0,1.92131828,0.0500147,-0.441
 47888\C,0,1.47140512,-0.96726874,0.42957733\C,0,0.23453958,-1.64781335
 ,-0.07537499\C,0,-0.87460527,-1.8056131,0.63046195\C,0,-0.95234704,1.8
 252922,-1.02677523\C,0,-0.74270562,2.07361266,0.25646474\H,0,1.2281150
 3,0.71542629,-0.50587111\H,0,2.29137396,-1.68732267,0.49203009\H,0,1.2
 9766394,-0.58228917,1.44332582\H,0,0.2902638,-2.018359,-1.09617049\H,0

 Normal termination of Gaussian 16 at Wed Apr  9 16:47:11 2025.
