 Gaussian 16, Revision C.01,

 ----------------------------------------------------------------------
 #t hf aug-cc-pvdz symm=none int=(grid=ultrafine) guess=(read,tcheck) s
 table=(opt,rrhf)
 ----------------------------------------------------------------------
 -----
 title
 -----
 Symbolic Z-matrix:
 Charge =  0 Multiplicity = 1

 SCF Done:  E(RHF) =  -307.715152543     A.U. after   17 cycles

 1\1\GINC-SE041\Stability\RHF\Aug-CC-pVDZ\C6H10O1\OHZDE\09-Apr-2025\0\\
 #t hf aug-cc-pvdz symm=none int=(grid=ultrafine) guess=(read,tcheck) s
 table=(opt,rrhf)\\title\\0,1\C,0,-2.27508869,-0.42430633,0.14650199\C,
 0,-0.93351091,0.0197194,-0.29230728\O,0,-0.61963505,1.29259476,-0.0954
 6287\C,0,0.80521876,1.47709575,-0.28404964\C,0,1.4336242,0.07612036,-0
 .19198242\C,0,1.70152628,-0.4504265,1.13364346\C,0,0.21617605,-0.76112
 961,-0.60837402\H,0,-3.02865,0.33524253,-0.05517091\H,0,-2.22927414,-0
 .59740035,1.22910271\H,0,-2.55656004,-1.35970292,-0.33338265\H,0,-0.45

 Normal termination of Gaussian 16 at Wed Apr  9 17:58:56 2025.
 Gaussian 16:  ES64L-G16RevC.01  3-Jul-2019

 ----------------------------------------------------------------------
 #t hf aug-cc-pvdz iop(5/13=1,5/36=2,99/5=2) pseudo=read geom=check gue
 ss=(read,tcheck) scf=(maxcycle=1)
 ----------------------------------------------------------------------
 -----
 title
 -----
 Structure from the checkpoint file:  "Grambow2020_wb97xd3_006910_reverse_mol1.chk"
 Charge =  0 Multiplicity = 1

                         Standard orientation:
 ---------------------------------------------------------------------
 Center     Atomic      Atomic             Coordinates (Angstroms)
 Number     Number       Type             X           Y           Z
 ---------------------------------------------------------------------
      1          6           0        2.296627   -0.482153   -0.280919
      2          6           0        0.972953   -0.011947    0.184199
      3          8           0        0.534841    1.143487   -0.295912
      4          6           0       -0.874512    1.292801    0.006152
      5          6           0       -1.388659   -0.114593    0.353996
      6          6           0       -1.742269   -0.988595   -0.749357
      7          6           0       -0.069510   -0.742672    0.825071
      8          1           0        2.999857    0.343948   -0.372930
      9          1           0        2.157683   -0.939139   -1.268817
     10          1           0        2.702436   -1.239309    0.387300
     11          1           0        0.661262   -0.073045    1.609553
     12          1           0       -0.950383    1.980116    0.852787
     13          1           0       -1.349916    1.718013   -0.876579
     14          1           0       -2.139729   -0.075919    1.141619
     15          1           0       -1.120180   -1.010165   -1.636665
     16          1           0       -2.454249   -1.787843   -0.604983
     17          1           0        0.046705   -1.781597    1.101151
 ---------------------------------------------------------------------

 SCF Done:  E(RHF) =  -308.040366283     A.U. after    2 cycles

 The electronic state is 1-A.
 Alpha  occ. eigenvalues --  -20.61555 -11.39123 -11.29853 -11.29232 -11.28124
 Alpha  occ. eigenvalues --  -11.24819 -11.13783  -1.55643  -1.14170  -1.08692
 Alpha  occ. eigenvalues --   -0.98535  -0.91181  -0.80360  -0.76690  -0.72881
 Alpha  occ. eigenvalues --   -0.70798  -0.65264  -0.62896  -0.60129  -0.59880
 Alpha  occ. eigenvalues --   -0.56786  -0.54549  -0.53879  -0.51164  -0.46654
 Alpha  occ. eigenvalues --   -0.44714  -0.19937
 Alpha virt. eigenvalues --    0.02318   0.03006   0.03601   0.04657   0.05746
 Alpha virt. eigenvalues --    0.06114   0.06335   0.06812   0.07201   0.09155
 Alpha virt. eigenvalues --    0.09679   0.10804   0.12098   0.13178   0.13564

 Mulliken charges:
               1
     1  C   -0.419856
     2  C    0.894783
     3  O   -1.545982
     4  C    0.516005
     5  C   -0.230284
     6  C    0.005029
     7  C   -0.176749
     8  H    0.191205
     9  H    0.344532
    10  H    0.208180
    11  H    0.548104
    12  H    0.106881
    13  H    0.063088
    14  H    0.015317
    15  H   -0.164845
    16  H   -0.209996
    17  H   -0.145412
 Sum of Mulliken charges =   0.00000

 Dipole moment (field-independent basis, Debye):
    X=              4.9529    Y=              1.1546    Z=              3.0953  Tot=              5.9536

 Test job not archived.
 1\1\GINC-SE041\SP\RHF\Aug-CC-pVDZ\C6H10O1\OHZDE\09-Apr-2025\0\\#t hf a
 ug-cc-pvdz iop(5/13=1,5/36=2,99/5=2) pseudo=read geom=check guess=(rea
 d,tcheck) scf=(maxcycle=1)\\title\\0,1\C,0,-2.27508869,-0.42430633,0.1
 4650199\C,0,-0.93351091,0.0197194,-0.29230728\O,0,-0.61963505,1.292594
 76,-0.09546287\C,0,0.80521876,1.47709575,-0.28404964\C,0,1.4336242,0.0
 7612036,-0.19198242\C,0,1.70152628,-0.4504265,1.13364346\C,0,0.2161760
 5,-0.76112961,-0.60837402\H,0,-3.02865,0.33524253,-0.05517091\H,0,-2.2
 2927414,-0.59740035,1.22910271\H,0,-2.55656004,-1.35970292,-0.33338265

 Normal termination of Gaussian 16 at Wed Apr  9 17:59:03 2025.
