 Gaussian 16, Revision C.01,

 ----------------------------------------------------------------------
 #t hf aug-cc-pvdz symm=none int=(grid=ultrafine) guess=(read,tcheck) s
 table=(opt,rrhf)
 ----------------------------------------------------------------------
 -----
 title
 -----
 Symbolic Z-matrix:
 Charge =  0 Multiplicity = 1

 SCF Done:  E(RHF) =  -268.682774604     A.U. after   16 cycles
 Normal termination of Gaussian 16 at Wed Apr  9 15:56:54 2025.
 Gaussian 16:  ES64L-G16RevC.01  3-Jul-2019

 ----------------------------------------------------------------------
 #t hf aug-cc-pvdz iop(5/13=1,5/36=2,99/5=2) pseudo=read geom=check gue
 ss=(read,tcheck) scf=(maxcycle=1)
 ----------------------------------------------------------------------
 -----
 title
 -----
 Structure from the checkpoint file:  "Grambow2020_b97d3_007037_forward_mol1.chk"
 Charge =  0 Multiplicity = 1

                         Standard orientation:
 ---------------------------------------------------------------------
 Center     Atomic      Atomic             Coordinates (Angstroms)
 Number     Number       Type             X           Y           Z
 ---------------------------------------------------------------------
      1          6           0        2.263201   -0.232162   -0.008677
      2          6           0        0.762573   -0.206105   -0.002704
      3          6           0       -0.123773   -1.192574    0.000720
      4          6           0       -1.635841   -0.800657    0.034436
      5          6           0       -1.679499    0.662622   -0.033496
      6          8           0        0.244552    1.211280   -0.082855
      7          1           0        2.688226    0.262260    0.882192
      8          1           0        2.607586   -1.271019   -0.015727
      9          1           0        2.669896    0.281576   -0.893035
     10          1           0       -2.137250   -1.263792   -0.826779
     11          1           0       -2.087087   -1.196167    0.954972
     12          1           0       -1.835543    1.167457   -0.984258
     13          1           0       -1.879367    1.262848    0.854545
     14          1           0        0.497159    1.679858    0.749265
 ---------------------------------------------------------------------

 SCF Done:  E(RHF) =  -268.962636277     A.U. after    2 cycles

 The electronic state is 1-A.
 Alpha  occ. eigenvalues --  -20.59847 -11.37493 -11.25469 -11.25033 -11.22102
 Alpha  occ. eigenvalues --  -11.17351  -1.46308  -1.09144  -1.01245  -0.91326
 Alpha  occ. eigenvalues --   -0.85380  -0.72090  -0.69504  -0.65861  -0.62985
 Alpha  occ. eigenvalues --   -0.58743  -0.56207  -0.55273  -0.53732  -0.50642
 Alpha  occ. eigenvalues --   -0.49501  -0.31840  -0.28503
 Alpha virt. eigenvalues --    0.02086   0.02985   0.03909   0.04612   0.05719
 Alpha virt. eigenvalues --    0.06385   0.07043   0.07095   0.08511   0.10405
 Alpha virt. eigenvalues --    0.11629   0.12352   0.13603   0.14798   0.15359

 Mulliken charges:
               1
     1  C   -0.574579
     2  C    1.323906
     3  C   -0.826232
     4  C   -0.397400
     5  C    0.342256
     6  O   -1.372777
     7  H    0.186916
     8  H    0.199701
     9  H    0.205704
    10  H    0.248098
    11  H    0.225187
    12  H    0.052848
    13  H    0.027323
    14  H    0.359049
 Sum of Mulliken charges =  -0.00000

 Dipole moment (field-independent basis, Debye):
    X=             -3.0737    Y=              4.9631    Z=              1.1197  Tot=              5.9442

 Test job not archived.
 1\1\GINC-SE131\SP\RHF\Aug-CC-pVDZ\C5H8O1\OHZDE\09-Apr-2025\0\\#t hf au
 g-cc-pvdz iop(5/13=1,5/36=2,99/5=2) pseudo=read geom=check guess=(read
 ,tcheck) scf=(maxcycle=1)\\title\\0,1\C,0,2.18131908,0.59247028,-0.041
 41837\C,0,0.76032078,0.1160635,-0.12142104\C,0,0.21245319,-0.87087248,
 -0.81751013\C,0,-1.32120663,-1.11082477,-0.64031492\C,0,-1.79921317,-0
 .05172165,0.25272284\O,0,-0.15344679,0.99533252,0.70056644\H,0,2.58443
 472,0.5185086,0.98365392\H,0,2.80698071,-0.0220765,-0.69621076\H,0,2.2
 6990537,1.64451303,-0.35250676\H,0,-1.80054794,-1.05850221,-1.62778124

 Normal termination of Gaussian 16 at Wed Apr  9 15:56:58 2025.
