 Gaussian 16, Revision C.01,

 ----------------------------------------------------------------------
 #t hf aug-cc-pvdz symm=none int=(grid=ultrafine) guess=(read,tcheck) s
 table=(opt,rrhf)
 ----------------------------------------------------------------------
 -----
 title
 -----
 Symbolic Z-matrix:
 Charge =  0 Multiplicity = 1

 SCF Done:  E(RHF) =  -375.692517340     A.U. after   14 cycles
 Normal termination of Gaussian 16 at Wed Apr  9 03:46:43 2025.
 Gaussian 16:  ES64L-G16RevC.01  3-Jul-2019

 ----------------------------------------------------------------------
 #t hf aug-cc-pvdz iop(5/13=1,5/36=2,99/5=2) pseudo=read geom=check gue
 ss=(read,tcheck) scf=(maxcycle=1)
 ----------------------------------------------------------------------
 -----
 title
 -----
 Structure from the checkpoint file:  "Grambow2020_wb97xd3_007915_forward_mol1.chk"
 Charge =  0 Multiplicity = 1

                         Standard orientation:
 ---------------------------------------------------------------------
 Center     Atomic      Atomic             Coordinates (Angstroms)
 Number     Number       Type             X           Y           Z
 ---------------------------------------------------------------------
      1          6           0       -2.735981   -0.025150    0.148386
      2          8           0       -1.510350   -0.738927    0.040618
      3          6           0       -0.390795   -0.041843   -0.131991
      4          7           0       -0.294969    1.267806   -0.170034
      5          7           0        0.744952   -0.704009   -0.254177
      6          6           0        1.983862    0.316286    0.094443
      7          8           0        3.046960   -0.177616    0.172794
      8          1           0       -3.515148   -0.781080    0.188194
      9          1           0       -2.892016    0.615864   -0.721527
     10          1           0       -2.763714    0.568304    1.065127
     11          1           0       -1.059068    1.833380    0.155364
     12          1           0        0.741663   -1.704432   -0.122611
     13          1           0        0.903001    1.357969    0.032600
 ---------------------------------------------------------------------

 SCF Done:  E(RHF) =  -376.070862621     A.U. after    2 cycles

 The electronic state is 1-A.
 Alpha  occ. eigenvalues --  -20.62406 -20.52987 -15.51472 -15.51153 -11.41497
 Alpha  occ. eigenvalues --  -11.33188 -11.31932  -1.56646  -1.47847  -1.29329
 Alpha  occ. eigenvalues --   -1.18182  -1.00996  -0.86051  -0.84237  -0.76664
 Alpha  occ. eigenvalues --   -0.74473  -0.71210  -0.67328  -0.65783  -0.63073
 Alpha  occ. eigenvalues --   -0.61195  -0.56252  -0.53274  -0.53052  -0.49313
 Alpha  occ. eigenvalues --   -0.44214  -0.35326
 Alpha virt. eigenvalues --    0.02338   0.03595   0.04360   0.04743   0.06563
 Alpha virt. eigenvalues --    0.07395   0.09007   0.10423   0.11290   0.12125
 Alpha virt. eigenvalues --    0.12372   0.13828   0.14377   0.14389   0.15220

 Mulliken charges:
               1
     1  C    0.191724
     2  O   -1.359714
     3  C   -0.372517
     4  N    0.364134
     5  N    0.642212
     6  C    0.475734
     7  O   -0.985808
     8  H   -0.052518
     9  H    0.185720
    10  H    0.161230
    11  H    0.084023
    12  H    0.056040
    13  H    0.609739
 Sum of Mulliken charges =  -0.00000

 Dipole moment (field-independent basis, Debye):
    X=             -6.7382    Y=              0.4259    Z=              0.7974  Tot=              6.7986

 Test job not archived.
 1\1\GINC-SE166\SP\RHF\Aug-CC-pVDZ\C3H6N2O2\OHZDE\09-Apr-2025\0\\#t hf
 aug-cc-pvdz iop(5/13=1,5/36=2,99/5=2) pseudo=read geom=check guess=(re
 ad,tcheck) scf=(maxcycle=1)\\title\\0,1\C,0,-1.72822713,0.08015512,-1.
 09528608\O,0,-1.26454195,-0.04282146,0.24379396\C,0,0.04345193,-0.1750
 5733,0.44575381\N,0,0.97330793,-0.15940405,-0.48211142\N,0,0.47342293,
 -0.31134566,1.68666677\C,0,2.06492099,0.09148361,1.73460851\O,0,2.5430
 3476,0.16152504,2.80547581\H,0,-2.81277558,0.08105498,-1.03307667\H,0,
 -1.39711562,-0.76495301,-1.70204115\H,0,-1.39292719,1.01964155,-1.5406

 Normal termination of Gaussian 16 at Wed Apr  9 03:46:47 2025.
