 Gaussian 16, Revision C.01,

 ----------------------------------------------------------------------
 #t hf aug-cc-pvdz symm=none int=(grid=ultrafine) guess=(read,tcheck) s
 table=(opt,rrhf)
 ----------------------------------------------------------------------
 -----
 title
 -----
 Symbolic Z-matrix:
 Charge =  0 Multiplicity = 1

 SCF Done:  E(RHF) =  -315.425875721     A.U. after   23 cycles
 Normal termination of Gaussian 16 at Wed Apr  9 15:42:37 2025.
 Gaussian 16:  ES64L-G16RevC.01  3-Jul-2019

 ----------------------------------------------------------------------
 #t hf aug-cc-pvdz iop(5/13=1,5/36=2,99/5=2) pseudo=read geom=check gue
 ss=(read,tcheck) scf=(maxcycle=1)
 ----------------------------------------------------------------------
 -----
 title
 -----
 Structure from the checkpoint file:  "Grambow2020_b97d3_006687_reverse_mol1.chk"
 Charge =  0 Multiplicity = 1

                         Standard orientation:
 ---------------------------------------------------------------------
 Center     Atomic      Atomic             Coordinates (Angstroms)
 Number     Number       Type             X           Y           Z
 ---------------------------------------------------------------------
      1          8           0       -1.494574    1.071562   -0.578069
      2          6           0       -0.715466   -0.583560    0.103068
      3          7           0       -1.755100   -0.556832    0.712398
      4          7           0        1.742992    0.713166    0.574656
      5          7           0        1.617172   -0.197513   -0.293811
      6          6           0        0.523481   -0.981129   -0.396513
      7          1           0       -1.257644    1.673506    0.165184
      8          1           0        2.525723    1.317994    0.257229
      9          1           0        0.604974   -1.887611   -0.989891
 ---------------------------------------------------------------------

 SCF Done:  E(RHF) =  -315.726693800     A.U. after    2 cycles

 The electronic state is 1-A.
 Alpha  occ. eigenvalues --  -20.61299 -15.65645 -15.59592 -15.57287 -11.39625
 Alpha  occ. eigenvalues --  -11.31740  -1.41700  -1.37160  -1.29851  -1.11789
 Alpha  occ. eigenvalues --   -0.93699  -0.79985  -0.72475  -0.71722  -0.67438
 Alpha  occ. eigenvalues --   -0.66121  -0.60144  -0.59597  -0.55946  -0.50991
 Alpha  occ. eigenvalues --   -0.46160  -0.34150
 Alpha virt. eigenvalues --   -0.07210   0.03192   0.04931   0.05188   0.06258
 Alpha virt. eigenvalues --    0.07653   0.09049   0.10321   0.10782   0.11865
 Alpha virt. eigenvalues --    0.13544   0.13876   0.15618   0.16700   0.17893

 Mulliken charges:
               1
     1  O   -0.662157
     2  C   -1.172251
     3  N    0.992943
     4  N    0.181994
     5  N   -0.099865
     6  C    0.101833
     7  H    0.446910
     8  H    0.152387
     9  H    0.058205
 Sum of Mulliken charges =  -0.00000

 Dipole moment (field-independent basis, Debye):
    X=              0.7584    Y=              0.1017    Z=             -0.3527  Tot=              0.8425

 Test job not archived.
 1\1\GINC-SE168\SP\RHF\Aug-CC-pVDZ\C2H3N3O1\OHZDE\09-Apr-2025\0\\#t hf
 aug-cc-pvdz iop(5/13=1,5/36=2,99/5=2) pseudo=read geom=check guess=(re
 ad,tcheck) scf=(maxcycle=1)\\title\\0,1\O,0,-1.80566727,-0.72671271,0.
 6076798\C,0,-0.76133262,0.08182965,-0.82968199\N,0,-1.49622751,-0.6349
 8394,-1.4613011\N,0,1.6394923,-0.47083751,0.54090583\N,0,1.23382032,0.
 71032566,0.34168646\C,0,0.21437254,1.0165077,-0.48761521\H,0,-1.331608
 68,-1.5874518,0.68043137\H,0,2.2205027,-0.44242301,1.40164017\H,0,0.10
 378821,2.05382396,-0.79124833\\Version=ES64L-G16RevC.01\State=1-A\HF=-

 Normal termination of Gaussian 16 at Wed Apr  9 15:42:40 2025.
