 Gaussian 16, Revision C.01,

 ----------------------------------------------------------------------
 #t hf aug-cc-pvdz symm=none int=(grid=ultrafine) guess=(read,tcheck) s
 table=(opt,rrhf)
 ----------------------------------------------------------------------
 -----
 title
 -----
 Symbolic Z-matrix:
 Charge =  0 Multiplicity = 1

 SCF Done:  E(RHF) =  -305.659436713     A.U. after   16 cycles
 Normal termination of Gaussian 16 at Wed Apr  9 17:01:13 2025.
 Gaussian 16:  ES64L-G16RevC.01  3-Jul-2019

 ----------------------------------------------------------------------
 #t hf aug-cc-pvdz iop(5/13=1,5/36=2,99/5=2) pseudo=read geom=check gue
 ss=(read,tcheck) scf=(maxcycle=1)
 ----------------------------------------------------------------------
 -----
 title
 -----
 Structure from the checkpoint file:  "Grambow2020_wb97xd3_006222_forward_mol1.chk"
 Charge =  0 Multiplicity = 1

                         Standard orientation:
 ---------------------------------------------------------------------
 Center     Atomic      Atomic             Coordinates (Angstroms)
 Number     Number       Type             X           Y           Z
 ---------------------------------------------------------------------
      1          6           0        2.258749   -0.045647   -0.128758
      2          8           0        0.904969   -0.251994   -0.460287
      3          6           0        0.060049   -0.695593    0.685641
      4          6           0       -0.250347    1.175863    0.107909
      5          6           0       -1.155016    0.072521    0.463838
      6          8           0       -2.133134   -0.232956   -0.529778
      7          1           0        2.778262   -1.007064   -0.094874
      8          1           0        2.342955    0.427892    0.854552
      9          1           0        2.706350    0.575097   -0.907957
     10          1           0        0.075970   -1.766273    0.874586
     11          1           0       -0.234131    1.582834   -0.898528
     12          1           0        0.170750    1.782176    0.899166
     13          1           0       -1.667966    0.259125    1.412320
     14          1           0       -1.827478   -1.017057   -0.990523
 ---------------------------------------------------------------------

 SCF Done:  E(RHF) =  -305.975860910     A.U. after    2 cycles

 The electronic state is 1-A.
 Alpha  occ. eigenvalues --  -20.57441 -20.53894 -11.36752 -11.29355 -11.28414
 Alpha  occ. eigenvalues --  -11.21374  -1.47742  -1.43917  -1.09884  -0.93990
 Alpha  occ. eigenvalues --   -0.89524  -0.79120  -0.70918  -0.68849  -0.66344
 Alpha  occ. eigenvalues --   -0.64032  -0.60478  -0.58453  -0.57786  -0.52363
 Alpha  occ. eigenvalues --   -0.49419  -0.44937  -0.43733  -0.26765
 Alpha virt. eigenvalues --    0.03064   0.03755   0.04351   0.04818   0.06113
 Alpha virt. eigenvalues --    0.06175   0.07077   0.07566   0.08193   0.10900
 Alpha virt. eigenvalues --    0.12675   0.13189   0.13980   0.14832   0.16002

 Mulliken charges:
               1
     1  C    0.271155
     2  O   -1.201440
     3  C    0.325702
     4  C    0.217186
     5  C    1.151247
     6  O   -1.387171
     7  H    0.071179
     8  H    0.211412
     9  H    0.024562
    10  H   -0.233485
    11  H    0.008042
    12  H    0.028919
    13  H    0.212008
    14  H    0.300685
 Sum of Mulliken charges =   0.00000

 Dipole moment (field-independent basis, Debye):
    X=              1.7014    Y=              2.1476    Z=             -0.6106  Tot=              2.8071

 Test job not archived.
 1\1\GINC-SE174\SP\RHF\Aug-CC-pVDZ\C4H8O2\OHZDE\09-Apr-2025\0\\#t hf au
 g-cc-pvdz iop(5/13=1,5/36=2,99/5=2) pseudo=read geom=check guess=(read
 ,tcheck) scf=(maxcycle=1)\\title\\0,1\C,0,1.66678676,-0.84023074,-0.68
 679977\O,0,0.62900487,0.11034435,-0.61878122\C,0,-0.72900439,-0.483944
 69,-0.45614598\C,0,-0.02059193,0.41071265,1.16564553\C,0,-1.3322558,0.
 43004353,0.50108594\O,0,-1.81190199,1.73528208,0.17922312\H,0,1.711444
 05,-1.2623734,-1.69435404\H,0,1.48537521,-1.65464914,0.02174971\H,0,2.
 60758894,-0.32896854,-0.47157574\H,0,-1.20432561,-0.79262591,-1.384098

 Normal termination of Gaussian 16 at Wed Apr  9 17:01:17 2025.
