 Gaussian 16, Revision C.01,

 ----------------------------------------------------------------------
 #t hf aug-cc-pvdz symm=none int=(grid=ultrafine) guess=(read,tcheck) s
 table=(opt,rrhf)
 ----------------------------------------------------------------------
 -----
 title
 -----
 Symbolic Z-matrix:
 Charge =  0 Multiplicity = 1

 SCF Done:  E(RHF) =  -380.717525692     A.U. after   14 cycles
 Normal termination of Gaussian 16 at Wed Apr  9 19:02:51 2025.
 Gaussian 16:  ES64L-G16RevC.01  3-Jul-2019

 ----------------------------------------------------------------------
 #t hf aug-cc-pvdz iop(5/13=1,5/36=2,99/5=2) pseudo=read geom=check gue
 ss=(read,tcheck) scf=(maxcycle=1)
 ----------------------------------------------------------------------
 -----
 title
 -----
 Structure from the checkpoint file:  "Grambow2020_wb97xd3_008490_reverse_mol2.chk"
 Charge =  0 Multiplicity = 1

                         Standard orientation:
 ---------------------------------------------------------------------
 Center     Atomic      Atomic             Coordinates (Angstroms)
 Number     Number       Type             X           Y           Z
 ---------------------------------------------------------------------
      1          6           0       -3.263307   -0.251573    0.167138
      2          8           0       -2.127883   -1.028734   -0.163371
      3          6           0        0.118877    0.829566    0.014441
      4          8           0       -0.524859    1.732552   -0.317716
      5          6           0        0.877281   -0.161833    0.412074
      6          6           0        2.361040   -0.018980    0.510993
      7          8           0        2.973739   -0.693670   -0.578813
      8          1           0       -3.198110    0.761633   -0.242352
      9          1           0       -4.191638   -0.719776   -0.176063
     10          1           0       -3.295214   -0.181980    1.253723
     11          1           0        0.377162   -1.102352    0.594772
     12          1           0       -2.078653   -1.114430   -1.116458
     13          1           0        2.633996    1.042934    0.513844
     14          1           0        2.698678   -0.450609    1.460371
     15          1           0        3.922457   -0.699693   -0.436515
 ---------------------------------------------------------------------

 SCF Done:  E(RHF) =  -381.102792681     A.U. after    2 cycles

 The electronic state is 1-A.
 Alpha  occ. eigenvalues --  -20.60448 -20.55411 -20.55064 -11.37905 -11.30503
 Alpha  occ. eigenvalues --  -11.28280 -11.23359  -1.54880  -1.45455  -1.45248
 Alpha  occ. eigenvalues --   -1.07784  -0.93222  -0.91422  -0.74973  -0.71007
 Alpha  occ. eigenvalues --   -0.69864  -0.69163  -0.64309  -0.63018  -0.62102
 Alpha  occ. eigenvalues --   -0.60592  -0.59827  -0.55939  -0.51366  -0.50626
 Alpha  occ. eigenvalues --   -0.45079  -0.44818  -0.35126
 Alpha virt. eigenvalues --    0.03491   0.03844   0.04650   0.05045   0.05598
 Alpha virt. eigenvalues --    0.06396   0.06579   0.08490   0.10389   0.11667
 Alpha virt. eigenvalues --    0.12280   0.12601   0.13551   0.14941   0.15453

 Mulliken charges:
               1
     1  C    0.479827
     2  O   -1.052931
     3  C    0.154396
     4  O   -0.868648
     5  C    1.088238
     6  C    0.272586
     7  O   -1.071343
     8  H    0.111294
     9  H    0.029352
    10  H    0.057120
    11  H   -0.091582
    12  H    0.382205
    13  H    0.079795
    14  H    0.135216
    15  H    0.294475
 Sum of Mulliken charges =  -0.00000

 Dipole moment (field-independent basis, Debye):
    X=              0.3562    Y=             -0.1142    Z=              0.5783  Tot=              0.6887

 Test job not archived.
 1\1\GINC-SE112\SP\RHF\Aug-CC-pVDZ\C4H8O3\OHZDE\09-Apr-2025\0\\#t hf au
 g-cc-pvdz iop(5/13=1,5/36=2,99/5=2) pseudo=read geom=check guess=(read
 ,tcheck) scf=(maxcycle=1)\\title\\0,1\C,0,-3.0854918,-0.1445715,0.1863
 4851\O,0,-1.91395769,-0.52306583,0.88395501\C,0,0.26790889,0.02951958,
 -0.97801473\O,0,-0.38483945,-0.2043189,-1.90502428\C,0,1.03456557,0.32
 14687,0.04333948\C,0,2.50728115,0.51511066,-0.11586278\O,0,3.18999254,
 -0.62629583,0.38351859\H,0,-3.02986955,-0.40315368,-0.87598832\H,0,-3.
 98275978,-0.59729951,0.62079885\H,0,-3.17088835,0.93790725,0.27281269\

 Normal termination of Gaussian 16 at Wed Apr  9 19:02:55 2025.
