 Gaussian 16, Revision C.01,

 ----------------------------------------------------------------------
 #t hf aug-cc-pvdz symm=none int=(grid=ultrafine) guess=(read,tcheck) s
 table=(opt,rrhf)
 ----------------------------------------------------------------------
 -----
 title
 -----
 Symbolic Z-matrix:
 Charge =  0 Multiplicity = 1

 SCF Done:  E(RHF) =  -317.618355815     A.U. after   15 cycles
 Normal termination of Gaussian 16 at Wed Apr  9 19:14:44 2025.
 Gaussian 16:  ES64L-G16RevC.01  3-Jul-2019

 ----------------------------------------------------------------------
 #t hf aug-cc-pvdz iop(5/13=1,5/36=2,99/5=2) pseudo=read geom=check gue
 ss=(read,tcheck) scf=(maxcycle=1)
 ----------------------------------------------------------------------
 -----
 title
 -----
 Structure from the checkpoint file:  "Grambow2020_wb97xd3_008983_reverse_mol2.chk"
 Charge =  0 Multiplicity = 1

                         Standard orientation:
 ---------------------------------------------------------------------
 Center     Atomic      Atomic             Coordinates (Angstroms)
 Number     Number       Type             X           Y           Z
 ---------------------------------------------------------------------
      1          7           0        3.819071   -0.101523    0.024980
      2          6           0        0.383876   -0.763064   -0.032933
      3          6           0       -0.830037   -1.142393   -0.007714
      4          7           0       -2.048725   -0.876168    0.018554
      5          6           0       -2.084006    0.501441    0.019431
      6          7           0       -1.003970    1.243969   -0.003984
      7          6           0        0.200036    0.651183   -0.029435
      8          1           0        3.866350    0.471163   -0.806713
      9          1           0        3.813928    0.512860    0.827645
     10          1           0        2.940562   -0.606751    0.009418
     11          1           0       -3.063724    0.959497    0.042629
     12          1           0        1.059041    1.316281   -0.045911
 ---------------------------------------------------------------------

 SCF Done:  E(RHF) =  -317.942072800     A.U. after    2 cycles

 The electronic state is 1-A.
 Alpha  occ. eigenvalues --  -15.58249 -15.54471 -15.47457 -11.37414 -11.37204
 Alpha  occ. eigenvalues --  -11.35553 -11.25630  -1.38695  -1.25576  -1.13392
 Alpha  occ. eigenvalues --   -1.12612  -0.96962  -0.91224  -0.77373  -0.75015
 Alpha  occ. eigenvalues --   -0.66903  -0.65754  -0.65655  -0.62945  -0.62675
 Alpha  occ. eigenvalues --   -0.51837  -0.51229  -0.45812  -0.42093  -0.42068
 Alpha virt. eigenvalues --    0.02552   0.03350   0.04023   0.04219   0.06152
 Alpha virt. eigenvalues --    0.06267   0.06879   0.07543   0.08249   0.09628
 Alpha virt. eigenvalues --    0.10212   0.10604   0.11819   0.12364   0.13963

 Mulliken charges:
               1
     1  N    0.075946
     2  C    0.621999
     3  C   -1.512499
     4  N    0.995387
     5  C   -0.312526
     6  N    0.798614
     7  C   -0.633108
     8  H    0.067954
     9  H    0.063376
    10  H   -0.133769
    11  H    0.026479
    12  H   -0.057854
 Sum of Mulliken charges =  -0.00000

 Dipole moment (field-independent basis, Debye):
    X=             -2.5506    Y=              1.5684    Z=             -0.0472  Tot=              2.9946

 Test job not archived.
 1\1\GINC-SE116\SP\RHF\Aug-CC-pVDZ\C4H5N3\OHZDE\09-Apr-2025\0\\#t hf au
 g-cc-pvdz iop(5/13=1,5/36=2,99/5=2) pseudo=read geom=check guess=(read
 ,tcheck) scf=(maxcycle=1)\\title\\0,1\N,0,-3.2371624,0.31474323,-0.063
 91925\C,0,0.19723295,0.88138308,0.29020294\C,0,1.40856421,1.20347569,0
 .50710002\N,0,2.62291187,0.91690525,0.50885886\C,0,2.65447675,-0.38207
 782,0.04983818\N,0,1.57573609,-1.04992139,-0.27982178\C,0,0.37685083,-
 0.45628153,-0.17055251\H,0,-3.23706921,0.05441377,-1.04072297\H,0,-3.2
 8072169,-0.5326785,0.48539317\H,0,-2.35793437,0.77651118,0.13857751\H,

 Normal termination of Gaussian 16 at Wed Apr  9 19:14:48 2025.
