 Gaussian 16, Revision C.01,

 ----------------------------------------------------------------------
 #t hf aug-cc-pvdz symm=none int=(grid=ultrafine) guess=(read,tcheck) s
 table=(opt,rrhf)
 ----------------------------------------------------------------------
 -----
 title
 -----
 Symbolic Z-matrix:
 Charge =  0 Multiplicity = 1

 SCF Done:  E(RHF) =  -284.865208856     A.U. after   13 cycles
 Normal termination of Gaussian 16 at Wed Apr  9 03:06:51 2025.
 Gaussian 16:  ES64L-G16RevC.01  3-Jul-2019

 ----------------------------------------------------------------------
 #t hf aug-cc-pvdz iop(5/13=1,5/36=2,99/5=2) pseudo=read geom=check gue
 ss=(read,tcheck) scf=(maxcycle=1)
 ----------------------------------------------------------------------
 -----
 title
 -----
 Structure from the checkpoint file:  "Grambow2020_b97d3_006537_reverse_mol2.chk"
 Charge =  0 Multiplicity = 1

                         Standard orientation:
 ---------------------------------------------------------------------
 Center     Atomic      Atomic             Coordinates (Angstroms)
 Number     Number       Type             X           Y           Z
 ---------------------------------------------------------------------
      1          6           0       -1.435443    0.134640   -0.134628
      2          6           0       -0.688583   -1.133494    0.289811
      3          8           0        0.584957   -1.169789   -0.352465
      4          6           0        1.393551   -0.070107    0.057392
      5          7           0        0.780193    1.242292    0.085148
      6          6           0       -0.492684    1.314806   -0.024645
      7          1           0       -1.789161    0.044574   -1.174596
      8          1           0       -2.325649    0.304877    0.491422
      9          1           0       -0.569570   -1.145632    1.389679
     10          1           0       -1.216639   -2.045976   -0.011672
     11          1           0        1.806038   -0.246846    1.070168
     12          1           0        2.229146   -0.043298   -0.654217
     13          1           0       -0.936212    2.319493   -0.014686
 ---------------------------------------------------------------------

 SCF Done:  E(RHF) =  -285.158342483     A.U. after    2 cycles

 The electronic state is 1-A.
 Alpha  occ. eigenvalues --  -20.55138 -15.50394 -11.31181 -11.29690 -11.29320
 Alpha  occ. eigenvalues --  -11.25447  -1.46805  -1.22805  -1.06123  -0.93478
 Alpha  occ. eigenvalues --   -0.89701  -0.75164  -0.70700  -0.67988  -0.65206
 Alpha  occ. eigenvalues --   -0.62259  -0.58174  -0.57419  -0.55531  -0.51043
 Alpha  occ. eigenvalues --   -0.45146  -0.43427  -0.41289
 Alpha virt. eigenvalues --    0.03396   0.04066   0.04350   0.04804   0.05983
 Alpha virt. eigenvalues --    0.06354   0.07164   0.09657   0.10281   0.12342
 Alpha virt. eigenvalues --    0.13058   0.13946   0.14412   0.14922   0.15348

 Mulliken charges:
               1
     1  C   -0.255322
     2  C    0.447822
     3  O   -1.281926
     4  C    0.278973
     5  N    0.786709
     6  C   -0.792302
     7  H    0.224068
     8  H    0.229258
     9  H    0.217575
    10  H    0.006042
    11  H    0.176180
    12  H    0.021619
    13  H   -0.058696
 Sum of Mulliken charges =   0.00000

 Dipole moment (field-independent basis, Debye):
    X=             -2.6275    Y=             -0.4779    Z=              0.6171  Tot=              2.7410

 Test job not archived.
 1\1\GINC-SE115\SP\RHF\Aug-CC-pVDZ\C4H7N1O1\OHZDE\09-Apr-2025\0\\#t hf
 aug-cc-pvdz iop(5/13=1,5/36=2,99/5=2) pseudo=read geom=check guess=(re
 ad,tcheck) scf=(maxcycle=1)\\title\\0,1\C,0,0.69713236,-1.02576971,0.1
 5575084\C,0,-0.82763509,-0.88183303,0.13387674\O,0,-1.19599805,0.34536
 443,0.76159823\C,0,-0.67593701,1.46100055,0.04326652\N,0,0.70884729,1.
 40282683,-0.37905769\C,0,1.31599076,0.27913031,-0.3002441\H,0,1.048144
 6,-1.26119815,1.17365305\H,0,1.0321513,-1.84863352,-0.49543586\H,0,-1.
 18963301,-0.90766633,-0.9112602\H,0,-1.32746945,-1.68137601,0.69356902

 Normal termination of Gaussian 16 at Wed Apr  9 03:06:55 2025.
