 Gaussian 16, Revision C.01,

 ----------------------------------------------------------------------
 #t hf aug-cc-pvdz symm=none int=(grid=ultrafine) guess=(read,tcheck) s
 table=(opt,rrhf)
 ----------------------------------------------------------------------
 -----
 title
 -----
 Symbolic Z-matrix:
 Charge =  0 Multiplicity = 1

 SCF Done:  E(RHF) =  -354.564392390     A.U. after   16 cycles
 Normal termination of Gaussian 16 at Wed Apr  9 03:40:12 2025.
 Gaussian 16:  ES64L-G16RevC.01  3-Jul-2019

 ----------------------------------------------------------------------
 #t hf aug-cc-pvdz iop(5/13=1,5/36=2,99/5=2) pseudo=read geom=check gue
 ss=(read,tcheck) scf=(maxcycle=1)
 ----------------------------------------------------------------------
 -----
 title
 -----
 Structure from the checkpoint file:  "Grambow2020_wb97xd3_007475_forward_mol1.chk"
 Charge =  0 Multiplicity = 1

                         Standard orientation:
 ---------------------------------------------------------------------
 Center     Atomic      Atomic             Coordinates (Angstroms)
 Number     Number       Type             X           Y           Z
 ---------------------------------------------------------------------
      1          7           0       -2.355169   -0.166884   -0.036209
      2          6           0       -1.045258   -0.130871    0.098517
      3          6           0       -0.316521    1.164774    0.461900
      4          7           0        0.647352    1.101822   -0.566977
      5          6           0        1.122771   -0.139821    0.134994
      6          8           0        2.273421   -0.561791    0.082173
      7          7           0       -0.137262   -1.028554   -0.102557
      8          1           0       -2.846612   -0.969720   -0.385496
      9          1           0       -2.872902    0.666101    0.185560
     10          1           0        0.720425    0.208186    1.282061
     11          1           0        1.346311    1.828145   -0.458940
     12          1           0       -0.184994   -1.947565   -0.512845
 ---------------------------------------------------------------------

 SCF Done:  E(RHF) =  -354.921550731     A.U. after    2 cycles

 The electronic state is 1-A.
 Alpha  occ. eigenvalues --  -20.45958 -15.60196 -15.56402 -15.51194 -11.39782
 Alpha  occ. eigenvalues --  -11.38329 -11.32198  -1.42521  -1.36481  -1.28806
 Alpha  occ. eigenvalues --   -1.21734  -0.97956  -0.91559  -0.85231  -0.81180
 Alpha  occ. eigenvalues --   -0.78670  -0.72981  -0.67811  -0.62842  -0.61674
 Alpha  occ. eigenvalues --   -0.57898  -0.51720  -0.49358  -0.41317  -0.40193
 Alpha  occ. eigenvalues --   -0.33836
 Alpha virt. eigenvalues --    0.00658   0.03377   0.04337   0.05236   0.06140
 Alpha virt. eigenvalues --    0.06611   0.08957   0.09321   0.09780   0.11134
 Alpha virt. eigenvalues --    0.12050   0.12885   0.13732   0.14702   0.15376

 Mulliken charges:
               1
     1  N    0.672346
     2  C   -1.339990
     3  C   -0.569329
     4  N    0.160925
     5  C    0.699081
     6  O   -1.360856
     7  N    0.825354
     8  H    0.083487
     9  H    0.231088
    10  H    0.388845
    11  H    0.216886
    12  H   -0.007837
 Sum of Mulliken charges =  -0.00000

 Dipole moment (field-independent basis, Debye):
    X=             -8.1560    Y=             -1.4711    Z=             -0.7578  Tot=              8.3222

 Test job not archived.
 1\1\GINC-SE435\SP\RHF\Aug-CC-pVDZ\C3H5N3O1\OHZDE\09-Apr-2025\0\\#t hf
 aug-cc-pvdz iop(5/13=1,5/36=2,99/5=2) pseudo=read geom=check guess=(re
 ad,tcheck) scf=(maxcycle=1)\\title\\0,1\N,0,2.04207107,-0.02000966,0.0
 4080134\C,0,0.73344827,-0.06599463,-0.10309669\C,0,-0.11452685,1.20785
 724,-0.09682186\N,0,-1.06065808,0.7672359,0.85306784\C,0,-1.42470757,-
 0.26066886,-0.18198812\O,0,-2.53105194,-0.78268788,-0.27333434\N,0,-0.
 08624253,-1.06221039,-0.18300495\H,0,2.60816637,-0.8410941,0.15664413\
 H,0,2.47899308,0.88498774,0.07502255\H,0,-1.06490129,0.43474162,-1.174

 Normal termination of Gaussian 16 at Wed Apr  9 03:40:17 2025.
