 Gaussian 16, Revision C.01,

 ----------------------------------------------------------------------
 #t hf aug-cc-pvdz symm=none int=(grid=ultrafine) guess=(read,tcheck) s
 table=(opt,rrhf)
 ----------------------------------------------------------------------
 -----
 title
 -----
 Symbolic Z-matrix:
 Charge =  0 Multiplicity = 1

 SCF Done:  E(RHF) =  -245.764956968     A.U. after   15 cycles
 Normal termination of Gaussian 16 at Wed Apr  9 16:18:38 2025.
 Gaussian 16:  ES64L-G16RevC.01  3-Jul-2019

 ----------------------------------------------------------------------
 #t hf aug-cc-pvdz iop(5/13=1,5/36=2,99/5=2) pseudo=read geom=check gue
 ss=(read,tcheck) scf=(maxcycle=1)
 ----------------------------------------------------------------------
 -----
 title
 -----
 Structure from the checkpoint file:  "Grambow2020_b97d3_007202_reverse_mol2.chk"
 Charge =  0 Multiplicity = 1

                         Standard orientation:
 ---------------------------------------------------------------------
 Center     Atomic      Atomic             Coordinates (Angstroms)
 Number     Number       Type             X           Y           Z
 ---------------------------------------------------------------------
      1          8           0        1.744505   -0.779994   -0.019988
      2          6           0        1.382593    0.380326   -0.106940
      3          6           0       -0.049345    0.820484    0.125916
      4          6           0       -2.275207   -0.369576   -0.136551
      5          7           0       -0.983495   -0.330676    0.111678
      6          1           0        2.095619    1.201125   -0.357738
      7          1           0       -0.089160    1.325033    1.107296
      8          1           0       -2.579654    0.690630   -0.341418
      9          1           0       -0.357235    1.558587   -0.628420
     10          1           0       -0.489393   -1.208098    0.303891
 ---------------------------------------------------------------------

 SCF Done:  E(RHF) =  -246.011120580     A.U. after    2 cycles

 The electronic state is 1-A.
 Alpha  occ. eigenvalues --  -20.58009 -15.55992 -11.37881 -11.31606 -11.26288
 Alpha  occ. eigenvalues --   -1.50201  -1.26511  -1.04677  -0.88500  -0.83722
 Alpha  occ. eigenvalues --   -0.70852  -0.70439  -0.67360  -0.63619  -0.60106
 Alpha  occ. eigenvalues --   -0.54230  -0.49724  -0.45633  -0.35997
 Alpha virt. eigenvalues --    0.02546   0.03953   0.04169   0.05962   0.06683
 Alpha virt. eigenvalues --    0.07807   0.08449   0.10339   0.11100   0.12714
 Alpha virt. eigenvalues --    0.13059   0.14094   0.14700   0.15602   0.16342

 Mulliken charges:
               1
     1  O   -1.139574
     2  C    1.060836
     3  C   -0.586196
     4  C   -0.666311
     5  N    0.551910
     6  H    0.151474
     7  H    0.230167
     8  H    0.080346
     9  H    0.124501
    10  H    0.192849
 Sum of Mulliken charges =  -0.00000

 Dipole moment (field-independent basis, Debye):
    X=              2.0419    Y=              4.2730    Z=              0.1977  Tot=              4.7399

 Test job not archived.
 1\1\GINC-SE220\SP\RHF\Aug-CC-pVDZ\C3H5N1O1\OHZDE\09-Apr-2025\0\\#t hf
 aug-cc-pvdz iop(5/13=1,5/36=2,99/5=2) pseudo=read geom=check guess=(re
 ad,tcheck) scf=(maxcycle=1)\\title\\0,1\O,0,1.48070649,0.28087128,1.61
 651863\C,0,1.39218108,-0.38337751,0.59876656\C,0,0.28444034,-0.1949448
 1,-0.41898087\C,0,-2.09794595,0.657262,-0.22513619\N,0,-0.83241302,0.6
 0924253,0.13231753\H,0,2.13704993,-1.17510182,0.3470531\H,0,0.71891308
 ,0.31629622,-1.29597971\H,0,-2.20025436,-0.05524584,-1.08569415\H,0,-0
 .09359039,-1.1667487,-0.76726853\H,0,-0.5207912,1.17482465,0.92853364\

 Normal termination of Gaussian 16 at Wed Apr  9 16:18:40 2025.
