 Gaussian 16, Revision C.01,

 ----------------------------------------------------------------------
 #t hf aug-cc-pvdz symm=none int=(grid=ultrafine) guess=(read,tcheck) s
 table=(opt,rrhf)
 ----------------------------------------------------------------------
 -----
 title
 -----
 Symbolic Z-matrix:
 Charge =  0 Multiplicity = 1

 SCF Done:  E(RHF) =  -191.817603098     A.U. after   14 cycles
 Normal termination of Gaussian 16 at Wed Apr  9 03:21:21 2025.
 Gaussian 16:  ES64L-G16RevC.01  3-Jul-2019

 ----------------------------------------------------------------------
 #t hf aug-cc-pvdz iop(5/13=1,5/36=2,99/5=2) pseudo=read geom=check gue
 ss=(read,tcheck) scf=(maxcycle=1)
 ----------------------------------------------------------------------
 -----
 title
 -----
 Structure from the checkpoint file:  "Grambow2020_wb97xd3_006094_reverse_mol1.chk"
 Charge =  0 Multiplicity = 1

                         Standard orientation:
 ---------------------------------------------------------------------
 Center     Atomic      Atomic             Coordinates (Angstroms)
 Number     Number       Type             X           Y           Z
 ---------------------------------------------------------------------
      1          6           0       -1.574079    0.025367   -0.197539
      2          6           0       -0.223751   -0.334604    0.365541
      3          6           0        1.473806   -0.261747   -0.462632
      4          8           0        0.714352    0.716624    0.158941
      5          1           0       -1.953583    0.909526    0.315555
      6          1           0       -2.279515   -0.795183   -0.060752
      7          1           0       -1.485654    0.250197   -1.259809
      8          1           0       -0.206662   -0.662449    1.404968
      9          1           0        1.993654   -0.800938    0.375936
     10          1           0        0.161080   -1.208239   -0.279646
 ---------------------------------------------------------------------

 SCF Done:  E(RHF) =  -192.014569472     A.U. after    2 cycles

 The electronic state is 1-A.
 Alpha  occ. eigenvalues --  -20.57613 -11.33036 -11.32609 -11.24935  -1.51760
 Alpha  occ. eigenvalues --   -1.04658  -0.89961  -0.84782  -0.70678  -0.64163
 Alpha  occ. eigenvalues --   -0.60153  -0.59047  -0.55129  -0.52354  -0.49022
 Alpha  occ. eigenvalues --   -0.35604
 Alpha virt. eigenvalues --    0.03263   0.04059   0.04581   0.05253   0.06863
 Alpha virt. eigenvalues --    0.07602   0.09717   0.11503   0.11720   0.12668
 Alpha virt. eigenvalues --    0.14490   0.15321   0.15750   0.16811   0.17077

 Mulliken charges:
               1
     1  C   -0.294206
     2  C    0.031258
     3  C    0.031822
     4  O   -1.087662
     5  H    0.210396
     6  H    0.188383
     7  H    0.208059
     8  H    0.019907
     9  H    0.140206
    10  H    0.551837
 Sum of Mulliken charges =  -0.00000

 Dipole moment (field-independent basis, Debye):
    X=             -1.8875    Y=             -1.4102    Z=              1.7314  Tot=              2.9239

 Test job not archived.
 1\1\GINC-SE108\SP\RHF\Aug-CC-pVDZ\C3H6O1\OHZDE\09-Apr-2025\0\\#t hf au
 g-cc-pvdz iop(5/13=1,5/36=2,99/5=2) pseudo=read geom=check guess=(read
 ,tcheck) scf=(maxcycle=1)\\title\\0,1\C,0,-1.24636436,0.27283312,0.208
 55022\C,0,0.08646831,-0.22898586,-0.28313812\C,0,1.81518371,0.09998018
 ,0.4069361\O,0,0.83814546,-0.81018326,0.77751815\H,0,-1.82416992,-0.56
 520281,0.59952802\H,0,-1.80449991,0.74160165,-0.60286385\H,0,-1.098379
 69,0.99727546,1.00859432\H,0,0.06231715,-0.89685699,-1.14427029\H,0,2.
 34018378,-0.37789897,-0.46494197\H,0,0.68022148,0.7097855,-0.58934657\

 Normal termination of Gaussian 16 at Wed Apr  9 03:21:23 2025.
