 Gaussian 16, Revision C.01,

 ----------------------------------------------------------------------
 #t hf aug-cc-pvdz symm=none int=(grid=ultrafine) guess=(read,tcheck) s
 table=(opt,rrhf)
 ----------------------------------------------------------------------
 -----
 title
 -----
 Symbolic Z-matrix:
 Charge =  0 Multiplicity = 1

 SCF Done:  E(RHF) =  -357.332261918     A.U. after   15 cycles
 Normal termination of Gaussian 16 at Wed Apr  9 19:07:35 2025.
 Gaussian 16:  ES64L-G16RevC.01  3-Jul-2019

 ----------------------------------------------------------------------
 #t hf aug-cc-pvdz iop(5/13=1,5/36=2,99/5=2) pseudo=read geom=check gue
 ss=(read,tcheck) scf=(maxcycle=1)
 ----------------------------------------------------------------------
 -----
 title
 -----
 Structure from the checkpoint file:  "Grambow2020_wb97xd3_008631_reverse_mol2.chk"
 Charge =  0 Multiplicity = 1

                         Standard orientation:
 ---------------------------------------------------------------------
 Center     Atomic      Atomic             Coordinates (Angstroms)
 Number     Number       Type             X           Y           Z
 ---------------------------------------------------------------------
      1          7           0       -2.315945   -0.512663   -0.001314
      2          6           0       -1.156952   -0.062398   -0.000041
      3          6           0       -0.616513    1.306958   -0.000590
      4          6           0        0.739598    1.347017    0.001354
      5          6           0        0.995773   -0.072561    0.000965
      6          8           0        2.165296   -0.613448   -0.001783
      7          8           0       -0.002750   -0.920189    0.002124
      8          1           0       -2.344621   -1.529164    0.000125
      9          1           0       -1.305935    2.142128   -0.001523
     10          1           0        2.790365    0.130672   -0.002261
 ---------------------------------------------------------------------

 SCF Done:  E(RHF) =  -357.682510442     A.U. after    2 cycles

 The electronic state is 1-A.
 Alpha  occ. eigenvalues --  -20.66742 -20.65579 -15.53079 -11.45528 -11.38087
 Alpha  occ. eigenvalues --  -11.27561 -11.21588  -1.64416  -1.56934  -1.26182
 Alpha  occ. eigenvalues --   -1.12142  -0.97367  -0.88156  -0.82377  -0.77929
 Alpha  occ. eigenvalues --   -0.74398  -0.72105  -0.71010  -0.61112  -0.61059
 Alpha  occ. eigenvalues --   -0.57035  -0.52177  -0.50404  -0.39600  -0.36838
 Alpha virt. eigenvalues --    0.01688   0.03207   0.03801   0.05295   0.08422
 Alpha virt. eigenvalues --    0.09495   0.10396   0.11135   0.12723   0.12869
 Alpha virt. eigenvalues --    0.13431   0.13745   0.14292   0.15404   0.16208

 Mulliken charges:
               1
     1  N    0.791555
     2  C   -0.402377
     3  C    0.472379
     4  C   -0.902062
     5  C    2.318108
     6  O   -1.304659
     7  O   -1.376285
     8  H    0.092576
     9  H   -0.067118
    10  H    0.377883
 Sum of Mulliken charges =  -0.00000

 Dipole moment (field-independent basis, Debye):
    X=              1.6389    Y=             -2.2962    Z=             -0.0001  Tot=              2.8211

 Test job not archived.
 1\1\GINC-SE113\SP\RHF\Aug-CC-pVDZ\C4H3N1O2\OHZDE\09-Apr-2025\0\\#t hf
 aug-cc-pvdz iop(5/13=1,5/36=2,99/5=2) pseudo=read geom=check guess=(re
 ad,tcheck) scf=(maxcycle=1)\\title\\0,1\N,0,2.29644643,-0.08943625,0.0
 7705183\C,0,1.05482774,-0.14678531,0.04386911\C,0,0.10414057,-1.269433
 82,0.09920933\C,0,-1.19257614,-0.87641023,0.03062523\C,0,-0.97989899,0
 .54666234,-0.07165398\O,0,-1.91355131,1.42915362,-0.17092287\O,0,0.237
 14095,1.03073922,-0.06934598\H,0,2.64948564,0.8623253,0.01694535\H,0,0
 .48904082,-2.2778571,0.18722556\H,0,-2.7438797,0.92434123,-0.15887059\

 Normal termination of Gaussian 16 at Wed Apr  9 19:07:39 2025.
