 Gaussian 16, Revision C.01,

 ----------------------------------------------------------------------
 #t hf aug-cc-pvdz symm=none int=(grid=ultrafine) guess=(read,tcheck) s
 table=(opt,rrhf)
 ----------------------------------------------------------------------
 -----
 title
 -----
 Symbolic Z-matrix:
 Charge =  0 Multiplicity = 1

 SCF Done:  E(RHF) =  -305.430141514     A.U. after   14 cycles
 Normal termination of Gaussian 16 at Wed Apr  9 03:53:36 2025.
 Gaussian 16:  ES64L-G16RevC.01  3-Jul-2019

 ----------------------------------------------------------------------
 #t hf aug-cc-pvdz iop(5/13=1,5/36=2,99/5=2) pseudo=read geom=check gue
 ss=(read,tcheck) scf=(maxcycle=1)
 ----------------------------------------------------------------------
 -----
 title
 -----
 Structure from the checkpoint file:  "Grambow2020_wb97xd3_008344_reverse_mol2.chk"
 Charge =  0 Multiplicity = 1

                         Standard orientation:
 ---------------------------------------------------------------------
 Center     Atomic      Atomic             Coordinates (Angstroms)
 Number     Number       Type             X           Y           Z
 ---------------------------------------------------------------------
      1          8           0       -1.881668    1.059712   -0.649824
      2          6           0       -0.460659   -1.086056   -0.096830
      3          6           0        1.006368   -1.034400   -0.534912
      4          6           0        1.715998    0.165164   -0.105505
      5          6           0        2.282875    1.156197    0.256237
      6          6           0       -1.285304    0.114343    0.066017
      7          6           0       -0.956799   -0.434122    1.184859
      8          1           0       -2.264832    1.711035   -0.054484
      9          1           0       -0.936760   -2.011918   -0.430113
     10          1           0        1.060015   -1.108786   -1.625212
     11          1           0        1.525535   -1.912670   -0.139485
     12          1           0        2.792969    2.035247    0.571306
     13          1           0       -0.938462   -0.477357    2.257392
 ---------------------------------------------------------------------

 SCF Done:  E(RHF) =  -305.744323762     A.U. after    2 cycles

 The electronic state is 1-A.
 Alpha  occ. eigenvalues --  -20.60283 -11.31262 -11.26246 -11.25278 -11.23710
 Alpha  occ. eigenvalues --  -11.23609 -11.22452  -1.51819  -1.18182  -1.05489
 Alpha  occ. eigenvalues --   -0.97149  -0.82158  -0.80853  -0.72886  -0.70930
 Alpha  occ. eigenvalues --   -0.66695  -0.63656  -0.61013  -0.60429  -0.56021
 Alpha  occ. eigenvalues --   -0.48957  -0.43998  -0.39242  -0.38772  -0.34809
 Alpha virt. eigenvalues --    0.02993   0.03810   0.04239   0.04340   0.05665
 Alpha virt. eigenvalues --    0.06169   0.09483   0.10420   0.10740   0.11469
 Alpha virt. eigenvalues --    0.12310   0.12828   0.13790   0.14333   0.14838

 Mulliken charges:
               1
     1  O   -1.408726
     2  C    0.219730
     3  C   -1.034777
     4  C    0.499656
     5  C    0.172178
     6  C    1.151483
     7  C    0.238575
     8  H    0.394740
     9  H   -0.101516
    10  H    0.267472
    11  H    0.256247
    12  H   -0.418734
    13  H   -0.236328
 Sum of Mulliken charges =  -0.00000

 Dipole moment (field-independent basis, Debye):
    X=             -1.0334    Y=              0.5028    Z=              1.1799  Tot=              1.6471

 Test job not archived.
 1\1\GINC-SE398\SP\RHF\Aug-CC-pVDZ\C6H6O1\OHZDE\09-Apr-2025\0\\#t hf au
 g-cc-pvdz iop(5/13=1,5/36=2,99/5=2) pseudo=read geom=check guess=(read
 ,tcheck) scf=(maxcycle=1)\\title\\0,1\O,0,0.21003702,0.10817073,2.4287
 6377\C,0,0.63929207,-0.92478924,0.04588204\C,0,-0.55707169,-0.89233382
 ,-0.91036773\C,0,-1.18736173,0.41699322,-1.0341258\C,0,-1.69173888,1.4
 9954074,-1.12384231\C,0,0.74052007,-0.05851469,1.22352283\C,0,1.540931
 03,0.27932824,0.27181928\H,0,0.57414474,0.9052638,2.82566866\H,0,1.081
 81142,-1.923553,0.0860854\H,0,-1.30526683,-1.61761439,-0.57669537\H,0,

 Normal termination of Gaussian 16 at Wed Apr  9 03:53:40 2025.
