 Gaussian 16, Revision C.01,

 ----------------------------------------------------------------------
 #t hf aug-cc-pvdz symm=none int=(grid=ultrafine) guess=(read,tcheck) s
 table=(opt,rrhf)
 ----------------------------------------------------------------------
 -----
 title
 -----
 Symbolic Z-matrix:
 Charge =  0 Multiplicity = 1

 SCF Done:  E(RHF) =  -301.940391432     A.U. after   15 cycles
 Normal termination of Gaussian 16 at Wed Apr  9 15:56:53 2025.
 Gaussian 16:  ES64L-G16RevC.01  3-Jul-2019

 ----------------------------------------------------------------------
 #t hf aug-cc-pvdz iop(5/13=1,5/36=2,99/5=2) pseudo=read geom=check gue
 ss=(read,tcheck) scf=(maxcycle=1)
 ----------------------------------------------------------------------
 -----
 title
 -----
 Structure from the checkpoint file:  "Grambow2020_b97d3_007040_forward_mol1.chk"
 Charge =  0 Multiplicity = 1

                         Standard orientation:
 ---------------------------------------------------------------------
 Center     Atomic      Atomic             Coordinates (Angstroms)
 Number     Number       Type             X           Y           Z
 ---------------------------------------------------------------------
      1          6           0        1.406334    1.464311   -0.010829
      2          7           0        0.180457    0.710327   -0.002720
      3          6           0       -1.962398    0.742548    0.017262
      4          6           0        0.097853   -0.597722   -0.014754
      5          8           0       -1.078818   -1.106850   -0.020182
      6          7           0        1.199910   -1.440055   -0.067110
      7          1           0        2.112188    1.151778    0.787489
      8          1           0        1.944315    1.411307   -0.975544
      9          1           0        1.174489    2.522128    0.181573
     10          1           0       -2.752982    0.145833   -0.431975
     11          1           0       -2.037975    0.843367    1.097527
     12          1           0       -1.797944    1.685379   -0.498924
     13          1           0        1.008285   -2.389401    0.235532
     14          1           0        2.066868   -1.062322    0.304521
 ---------------------------------------------------------------------

 SCF Done:  E(RHF) =  -302.250782837     A.U. after    2 cycles

 The electronic state is 1-A.
 Alpha  occ. eigenvalues --  -20.49876 -15.51273 -15.45342 -11.34976 -11.34856
 Alpha  occ. eigenvalues --  -11.25573  -1.43008  -1.21719  -1.15406  -0.95971
 Alpha  occ. eigenvalues --   -0.94059  -0.78552  -0.73276  -0.68808  -0.64407
 Alpha  occ. eigenvalues --   -0.63783  -0.60453  -0.58108  -0.56301  -0.55111
 Alpha  occ. eigenvalues --   -0.45601  -0.44554  -0.39715  -0.37006
 Alpha virt. eigenvalues --    0.03058   0.03872   0.04759   0.05250   0.05669
 Alpha virt. eigenvalues --    0.06143   0.06689   0.08066   0.09083   0.11328
 Alpha virt. eigenvalues --    0.12577   0.13660   0.14224   0.14909   0.15918

 Mulliken charges:
               1
     1  C   -0.498338
     2  N    0.544133
     3  C    0.017734
     4  C   -0.506511
     5  O   -1.337933
     6  N    0.579876
     7  H    0.141997
     8  H    0.194014
     9  H   -0.023093
    10  H    0.160237
    11  H    0.243625
    12  H    0.167677
    13  H    0.175416
    14  H    0.141165
 Sum of Mulliken charges =   0.00000

 Dipole moment (field-independent basis, Debye):
    X=              0.0206    Y=              1.4088    Z=              1.1255  Tot=              1.8033

 Test job not archived.
 1\1\GINC-SE226\SP\RHF\Aug-CC-pVDZ\C3H8N2O1\OHZDE\09-Apr-2025\0\\#t hf
 aug-cc-pvdz iop(5/13=1,5/36=2,99/5=2) pseudo=read geom=check guess=(re
 ad,tcheck) scf=(maxcycle=1)\\title\\0,1\C,0,-0.882254,-0.96525516,1.20
 457821\N,0,-0.39213744,-0.09456165,0.1687152\C,0,-0.85555965,1.3057882
 7,-1.38612418\C,0,0.87061729,0.08271392,-0.13457054\O,0,1.13215656,0.9
 0965207,-1.07879868\N,0,1.91882557,-0.53439465,0.53418397\H,0,-0.48643
 218,-1.99968551,1.12396775\H,0,-0.66006962,-0.59825845,2.2238208\H,0,-
 1.97524836,-1.04701823,1.11278731\H,0,-0.40217416,2.21533691,-1.773511

 Normal termination of Gaussian 16 at Wed Apr  9 15:56:58 2025.
