 Gaussian 16, Revision C.01,

 ----------------------------------------------------------------------
 #t hf aug-cc-pvdz symm=none int=(grid=ultrafine) guess=(read,tcheck) s
 table=(opt,rrhf)
 ----------------------------------------------------------------------
 -----
 title
 -----
 Symbolic Z-matrix:
 Charge =  0 Multiplicity = 1

 SCF Done:  E(RHF) =  -323.813856782     A.U. after   14 cycles
 Normal termination of Gaussian 16 at Wed Apr  9 03:53:47 2025.
 Gaussian 16:  ES64L-G16RevC.01  3-Jul-2019

 ----------------------------------------------------------------------
 #t hf aug-cc-pvdz iop(5/13=1,5/36=2,99/5=2) pseudo=read geom=check gue
 ss=(read,tcheck) scf=(maxcycle=1)
 ----------------------------------------------------------------------
 -----
 title
 -----
 Structure from the checkpoint file:  "Grambow2020_wb97xd3_008326_reverse_mol2.chk"
 Charge =  0 Multiplicity = 1

                         Standard orientation:
 ---------------------------------------------------------------------
 Center     Atomic      Atomic             Coordinates (Angstroms)
 Number     Number       Type             X           Y           Z
 ---------------------------------------------------------------------
      1          7           0        1.093780    1.384292   -0.704866
      2          6           0        0.594412    0.554712    0.072000
      3          6           0       -0.680405    0.722282    0.828793
      4          6           0       -1.911842    0.368090   -0.016196
      5          6           0       -1.959825   -1.083332   -0.473942
      6          6           0        2.358651   -1.130016    0.093960
      7          8           0        1.140294   -0.778508    0.324119
      8          1           0        1.954077    1.066895   -1.151099
      9          1           0       -0.644919    0.097125    1.723178
     10          1           0       -0.738827    1.766415    1.135685
     11          1           0       -1.938997    1.036333   -0.880796
     12          1           0       -2.797239    0.595157    0.582780
     13          1           0       -1.915617   -1.770144    0.373980
     14          1           0       -2.882120   -1.282800   -1.021305
     15          1           0        2.905999   -0.233574   -0.312432
     16          1           0       -1.127107   -1.327808   -1.136575
 ---------------------------------------------------------------------

 SCF Done:  E(RHF) =  -324.148694126     A.U. after    2 cycles

 The electronic state is 1-A.
 Alpha  occ. eigenvalues --  -20.63517 -15.51587 -11.36954 -11.32437 -11.25851
 Alpha  occ. eigenvalues --  -11.24773 -11.23111  -1.56150  -1.25350  -1.09500
 Alpha  occ. eigenvalues --   -0.99352  -0.91945  -0.83399  -0.79297  -0.76826
 Alpha  occ. eigenvalues --   -0.67288  -0.64991  -0.63320  -0.60189  -0.57681
 Alpha  occ. eigenvalues --   -0.57290  -0.52633  -0.51480  -0.50366  -0.49481
 Alpha  occ. eigenvalues --   -0.47505  -0.37464
 Alpha virt. eigenvalues --    0.03391   0.03762   0.03932   0.04497   0.05519
 Alpha virt. eigenvalues --    0.06015   0.06620   0.07328   0.07473   0.08455
 Alpha virt. eigenvalues --    0.10372   0.12016   0.12631   0.13357   0.14389

 Mulliken charges:
               1
     1  N    0.796528
     2  C   -0.065177
     3  C   -0.415626
     4  C   -0.333722
     5  C   -0.303991
     6  C    0.089068
     7  O   -1.175870
     8  H    0.193798
     9  H    0.173919
    10  H    0.181937
    11  H    0.205779
    12  H    0.121907
    13  H    0.179938
    14  H    0.099679
    15  H    0.084888
    16  H    0.166947
 Sum of Mulliken charges =  -0.00000

 Dipole moment (field-independent basis, Debye):
    X=             -1.6345    Y=              1.0067    Z=              0.3747  Tot=              1.9559

 Test job not archived.
 1\1\GINC-SE084\SP\RHF\Aug-CC-pVDZ\C5H9N1O1\OHZDE\09-Apr-2025\0\\#t hf
 aug-cc-pvdz iop(5/13=1,5/36=2,99/5=2) pseudo=read geom=check guess=(re
 ad,tcheck) scf=(maxcycle=1)\\title\\0,1\N,0,1.6282704,0.62520873,1.251
 85111\C,0,1.03467061,0.4638376,0.17357008\C,0,0.66620656,-0.848074,-0.
 4339639\C,0,-0.64367587,-1.40852261,0.13700053\C,0,-1.86487522,-0.5391
 0618,-0.12992369\C,0,0.92412475,2.77279724,-0.60605352\O,0,0.52158182,
 1.54974338,-0.66104103\H,0,1.75744989,1.60327015,1.51008518\H,0,0.5835
 2731,-0.72551584,-1.51569782\H,0,1.48017161,-1.54148815,-0.22313568\H,

 Normal termination of Gaussian 16 at Wed Apr  9 03:53:55 2025.
