 Gaussian 16, Revision C.01,

 ----------------------------------------------------------------------
 #t hf aug-cc-pvdz symm=none int=(grid=ultrafine) guess=(read,tcheck) s
 table=(opt,rrhf)
 ----------------------------------------------------------------------
 -----
 title
 -----
 Symbolic Z-matrix:
 Charge =  0 Multiplicity = 1

 SCF Done:  E(RHF) =  -321.501299623     A.U. after   17 cycles
 Normal termination of Gaussian 16 at Wed Apr  9 03:40:46 2025.
 Gaussian 16:  ES64L-G16RevC.01  3-Jul-2019

 ----------------------------------------------------------------------
 #t hf aug-cc-pvdz iop(5/13=1,5/36=2,99/5=2) pseudo=read geom=check gue
 ss=(read,tcheck) scf=(maxcycle=1)
 ----------------------------------------------------------------------
 -----
 title
 -----
 Structure from the checkpoint file:  "Grambow2020_wb97xd3_007491_reverse_mol2.chk"
 Charge =  0 Multiplicity = 1

                         Standard orientation:
 ---------------------------------------------------------------------
 Center     Atomic      Atomic             Coordinates (Angstroms)
 Number     Number       Type             X           Y           Z
 ---------------------------------------------------------------------
      1          8           0        2.590206   -0.961434    0.012568
      2          6           0        1.797205   -0.115114   -0.029575
      3          6           0        1.067891    0.947499   -0.096998
      4          6           0       -0.113434    1.534061   -0.087232
      5          6           0       -1.375119   -0.599741    0.414277
      6          6           0       -1.447823    0.857977    0.059531
      7          7           0       -1.848512   -1.568962   -0.238777
      8          1           0       -0.169104    2.615950   -0.207541
      9          1           0       -0.860252   -0.831221    1.350282
     10          1           0       -2.009647    0.999969   -0.870992
     11          1           0       -2.012926    1.390532    0.834531
     12          1           0       -2.302448   -1.249121   -1.095400
 ---------------------------------------------------------------------

 SCF Done:  E(RHF) =  -321.821684729     A.U. after    2 cycles

 The electronic state is 1-A.
 Alpha  occ. eigenvalues --  -20.61168 -15.50828 -11.39496 -11.32298 -11.30355
 Alpha  occ. eigenvalues --  -11.28132 -11.24889  -1.55267  -1.23521  -1.12740
 Alpha  occ. eigenvalues --   -1.03147  -0.92461  -0.84054  -0.74713  -0.72096
 Alpha  occ. eigenvalues --   -0.68004  -0.66041  -0.63470  -0.61909  -0.61577
 Alpha  occ. eigenvalues --   -0.58670  -0.48208  -0.46768  -0.41346  -0.36145
 Alpha virt. eigenvalues --    0.02524   0.03503   0.03888   0.03932   0.04970
 Alpha virt. eigenvalues --    0.06653   0.08009   0.09214   0.09778   0.10609
 Alpha virt. eigenvalues --    0.11373   0.13242   0.13841   0.14607   0.14705

 Mulliken charges:
               1
     1  O   -0.956540
     2  C    0.280029
     3  C    0.560785
     4  C    0.237203
     5  C   -0.915988
     6  C   -0.431778
     7  N    0.769326
     8  H   -0.150274
     9  H   -0.041782
    10  H    0.197344
    11  H    0.327244
    12  H    0.124432
 Sum of Mulliken charges =  -0.00000

 Dipole moment (field-independent basis, Debye):
    X=             -2.5657    Y=              3.8438    Z=              0.0439  Tot=              4.6216

 Test job not archived.
 1\1\GINC-SE165\SP\RHF\Aug-CC-pVDZ\C5H5N1O1\OHZDE\09-Apr-2025\0\\#t hf
 aug-cc-pvdz iop(5/13=1,5/36=2,99/5=2) pseudo=read geom=check guess=(re
 ad,tcheck) scf=(maxcycle=1)\\title\\0,1\O,0,1.55828115,1.47752751,2.60
 960691\C,0,1.47453156,0.7208744,1.73362387\C,0,1.55639948,-0.18596336,
 0.81900135\C,0,1.05640708,-0.8095612,-0.23019453\C,0,-0.94503946,0.724
 83945,-0.42071224\C,0,-0.25636004,-0.52001026,-0.90252303\N,0,-2.09460
 41,0.81242421,0.08997401\H,0,1.6170027,-1.63164151,-0.67513493\H,0,-0.
 37929421,1.65230986,-0.54116222\H,0,-0.90726137,-1.3930441,-0.77673942

 Normal termination of Gaussian 16 at Wed Apr  9 03:40:51 2025.
