 Gaussian 16, Revision C.01,

 ----------------------------------------------------------------------
 #t hf aug-cc-pvdz symm=none int=(grid=ultrafine) guess=(read,tcheck) s
 table=(opt,rrhf)
 ----------------------------------------------------------------------
 -----
 title
 -----
 Symbolic Z-matrix:
 Charge =  0 Multiplicity = 1

 SCF Done:  E(RHF) =  -338.610280297     A.U. after   15 cycles
 Normal termination of Gaussian 16 at Wed Apr  9 19:05:50 2025.
 Gaussian 16:  ES64L-G16RevC.01  3-Jul-2019

 ----------------------------------------------------------------------
 #t hf aug-cc-pvdz iop(5/13=1,5/36=2,99/5=2) pseudo=read geom=check gue
 ss=(read,tcheck) scf=(maxcycle=1)
 ----------------------------------------------------------------------
 -----
 title
 -----
 Structure from the checkpoint file:  "Grambow2020_wb97xd3_008555_forward_mol1.chk"
 Charge =  0 Multiplicity = 1

                         Standard orientation:
 ---------------------------------------------------------------------
 Center     Atomic      Atomic             Coordinates (Angstroms)
 Number     Number       Type             X           Y           Z
 ---------------------------------------------------------------------
      1          7           0       -2.753947    1.167710    0.066200
      2          6           0       -2.632857    0.036450   -0.235222
      3          8           0       -1.043959   -1.075396    0.160196
      4          6           0        0.117825   -0.611640   -0.437704
      5          6           0        1.148695   -0.271329    0.648418
      6          6           0        2.385861    0.266920    0.092758
      7          7           0        3.343882    0.695885   -0.370720
      8          1           0       -2.187286    1.825208    0.578124
      9          1           0       -2.305849   -1.009502   -0.542810
     10          1           0       -0.051455    0.292756   -1.049176
     11          1           0        0.549169   -1.363920   -1.111291
     12          1           0        0.725537    0.460221    1.339855
     13          1           0        1.374869   -1.169160    1.225872
 ---------------------------------------------------------------------

 SCF Done:  E(RHF) =  -338.952423780     A.U. after    2 cycles

 The electronic state is 1-A.
 Alpha  occ. eigenvalues --  -20.50109 -15.59771 -15.50054 -11.40988 -11.28872
 Alpha  occ. eigenvalues --  -11.27324 -11.27010  -1.39366  -1.33252  -1.22704
 Alpha  occ. eigenvalues --   -1.05873  -0.93154  -0.87635  -0.80355  -0.69869
 Alpha  occ. eigenvalues --   -0.67290  -0.63790  -0.61513  -0.59503  -0.59208
 Alpha  occ. eigenvalues --   -0.56412  -0.53649  -0.49182  -0.48270  -0.41063
 Alpha  occ. eigenvalues --   -0.38783
 Alpha virt. eigenvalues --    0.01868   0.03983   0.04666   0.05149   0.06051
 Alpha virt. eigenvalues --    0.06484   0.06917   0.07836   0.09306   0.09609
 Alpha virt. eigenvalues --    0.11188   0.12167   0.12926   0.13845   0.14568

 Mulliken charges:
               1
     1  N    0.650343
     2  C   -0.622871
     3  O   -1.448180
     4  C    0.627944
     5  C   -0.089023
     6  C   -1.492925
     7  N    0.881806
     8  H    0.140878
     9  H    0.595526
    10  H    0.206578
    11  H    0.074355
    12  H    0.221100
    13  H    0.254469
 Sum of Mulliken charges =   0.00000

 Dipole moment (field-independent basis, Debye):
    X=             -5.6792    Y=              0.5093    Z=              1.1224  Tot=              5.8114

 Test job not archived.
 1\1\GINC-SE084\SP\RHF\Aug-CC-pVDZ\C4H6N2O1\OHZDE\09-Apr-2025\0\\#t hf
 aug-cc-pvdz iop(5/13=1,5/36=2,99/5=2) pseudo=read geom=check guess=(re
 ad,tcheck) scf=(maxcycle=1)\\title\\0,1\N,0,-2.41760711,1.47484675,0.6
 9183047\C,0,-1.99884398,0.65393312,1.42395446\O,0,-0.15598113,-0.06653
 927,1.38001503\C,0,0.15543818,-0.71604716,0.1953407\C,0,1.33473112,-0.
 00265339,-0.48178818\C,0,1.69066494,-0.60698572,-1.76129705\N,0,1.9430
 7412,-1.09638437,-2.76797731\H,0,-2.02074676,2.01965599,-0.05727529\H,
 0,-1.47241577,-0.1989297,1.96345219\H,0,-0.6912539,-0.73389875,-0.5140

 Normal termination of Gaussian 16 at Wed Apr  9 19:05:54 2025.
