 Gaussian 16, Revision C.01,

 ----------------------------------------------------------------------
 #t hf aug-cc-pvdz symm=none int=(grid=ultrafine) guess=(read,tcheck) s
 table=(opt,rrhf)
 ----------------------------------------------------------------------
 -----
 title
 -----
 Symbolic Z-matrix:
 Charge =  0 Multiplicity = 1

 SCF Done:  E(RHF) =  -232.900943741     A.U. after   15 cycles
 Normal termination of Gaussian 16 at Wed Apr  9 15:40:01 2025.
 Gaussian 16:  ES64L-G16RevC.01  3-Jul-2019

 ----------------------------------------------------------------------
 #t hf aug-cc-pvdz iop(5/13=1,5/36=2,99/5=2) pseudo=read geom=check gue
 ss=(read,tcheck) scf=(maxcycle=1)
 ----------------------------------------------------------------------
 -----
 title
 -----
 Structure from the checkpoint file:  "Grambow2020_b97d3_006589_reverse_mol2.chk"
 Charge =  0 Multiplicity = 1

                         Standard orientation:
 ---------------------------------------------------------------------
 Center     Atomic      Atomic             Coordinates (Angstroms)
 Number     Number       Type             X           Y           Z
 ---------------------------------------------------------------------
      1          6           0        1.078365   -0.908503   -0.686349
      2          6           0        1.623860   -0.312991    0.563881
      3          6           0        0.258261    0.223662   -0.065299
      4          6           0       -1.028229   -0.162946    0.659939
      5          6           0       -2.226390   -0.069792   -0.294891
      6          6           0        0.625018    1.599694   -0.160528
      7          1           0        0.647167   -1.909495   -0.623137
      8          1           0        1.611202   -0.688355   -1.610902
      9          1           0        2.525485    0.295538    0.522270
     10          1           0        1.448290   -0.794029    1.525318
     11          1           0       -1.167153    0.528755    1.502059
     12          1           0       -0.952805   -1.184023    1.067958
     13          1           0       -3.163433   -0.323696    0.219915
     14          1           0       -2.108091   -0.754150   -1.147866
     15          1           0       -2.314390    0.952887   -0.687802
     16          1           0        1.488425    1.661831   -0.868322
 ---------------------------------------------------------------------

 SCF Done:  E(RHF) =  -233.152434259     A.U. after    2 cycles

 The electronic state is 1-A.
 Alpha  occ. eigenvalues --  -11.28139 -11.26242 -11.25902 -11.25331 -11.23491
 Alpha  occ. eigenvalues --  -11.22580  -1.18173  -1.02959  -0.93323  -0.86047
 Alpha  occ. eigenvalues --   -0.84626  -0.72937  -0.66130  -0.64406  -0.61210
 Alpha  occ. eigenvalues --   -0.57093  -0.54582  -0.52597  -0.51618  -0.48691
 Alpha  occ. eigenvalues --   -0.46925  -0.41764  -0.34605
 Alpha virt. eigenvalues --    0.03249   0.03318   0.03627   0.04598   0.05891
 Alpha virt. eigenvalues --    0.06265   0.06455   0.07109   0.07461   0.09412
 Alpha virt. eigenvalues --    0.09794   0.12040   0.12464   0.13468   0.13606

 Mulliken charges:
               1
     1  C    0.343008
     2  C    0.350047
     3  C    0.171120
     4  C   -0.360194
     5  C   -0.345582
     6  C   -0.623602
     7  H   -0.088931
     8  H   -0.113956
     9  H   -0.087509
    10  H   -0.044277
    11  H    0.176285
    12  H    0.055912
    13  H    0.118109
    14  H    0.177894
    15  H    0.205670
    16  H    0.066007
 Sum of Mulliken charges =   0.00000

 Dipole moment (field-independent basis, Debye):
    X=              1.0051    Y=             -2.9487    Z=             -0.3864  Tot=              3.1392

 Test job not archived.
 1\1\GINC-SE163\SP\RHF\Aug-CC-pVDZ\C6H10\OHZDE\09-Apr-2025\0\\#t hf aug
 -cc-pvdz iop(5/13=1,5/36=2,99/5=2) pseudo=read geom=check guess=(read,
 tcheck) scf=(maxcycle=1)\\title\\0,1\C,0,-1.21044207,0.42745653,0.8990
 875\C,0,-1.76612829,0.00067914,-0.41405675\C,0,-0.21438685,0.3423198,-
 0.2587967\C,0,0.75088465,-0.84035492,-0.26363973\C,0,2.0713352,-0.4527
 8171,0.41618639\C,0,-0.13397559,1.31935987,-1.29608672\H,0,-1.11355028
 ,-0.33167996,1.67769936\H,0,-1.48252282,1.42248113,1.24990994\H,0,-2.4
 2474275,0.6705952,-0.9639719\H,0,-1.91323836,-1.05629472,-0.63257146\H

 Normal termination of Gaussian 16 at Wed Apr  9 15:40:06 2025.
