 Gaussian 16, Revision C.01,

 ----------------------------------------------------------------------
 #t hf aug-cc-pvdz symm=none int=(grid=ultrafine) guess=(read,tcheck) s
 table=(opt,rrhf)
 ----------------------------------------------------------------------
 -----
 title
 -----
 Symbolic Z-matrix:
 Charge =  0 Multiplicity = 1

 SCF Done:  E(RHF) =  -374.454797315     A.U. after   17 cycles
 Normal termination of Gaussian 16 at Wed Apr  9 18:20:03 2025.
 Gaussian 16:  ES64L-G16RevC.01  3-Jul-2019

 ----------------------------------------------------------------------
 #t hf aug-cc-pvdz iop(5/13=1,5/36=2,99/5=2) pseudo=read geom=check gue
 ss=(read,tcheck) scf=(maxcycle=1)
 ----------------------------------------------------------------------
 -----
 title
 -----
 Structure from the checkpoint file:  "Grambow2020_wb97xd3_007333_reverse_mol1.chk"
 Charge =  0 Multiplicity = 1

                         Standard orientation:
 ---------------------------------------------------------------------
 Center     Atomic      Atomic             Coordinates (Angstroms)
 Number     Number       Type             X           Y           Z
 ---------------------------------------------------------------------
      1          7           0       -2.362350   -0.472424    0.045613
      2          6           0       -1.035333   -0.091602   -0.064845
      3          6           0       -0.511416    1.187652   -0.078597
      4          8           0        0.780358    1.173866    0.062821
      5          6           0        1.193720   -0.271124    0.113672
      6          8           0        2.313820   -0.580708   -0.205125
      7          7           0       -0.040654   -0.976106    0.052063
      8          1           0       -2.543072   -1.394026   -0.318753
      9          1           0       -3.026311    0.204358   -0.292005
     10          1           0       -1.021081    2.140616   -0.031008
     11          1           0        0.776249   -0.506049    1.275089
 ---------------------------------------------------------------------

 SCF Done:  E(RHF) =  -374.825784884     A.U. after    2 cycles

 The electronic state is 1-A.
 Alpha  occ. eigenvalues --  -20.64425 -20.49393 -15.60048 -15.54327 -11.41748
 Alpha  occ. eigenvalues --  -11.37225 -11.33870  -1.58614  -1.44917  -1.31939
 Alpha  occ. eigenvalues --   -1.22694  -1.03837  -0.91029  -0.86785  -0.78984
 Alpha  occ. eigenvalues --   -0.74135  -0.72491  -0.71297  -0.62743  -0.61123
 Alpha  occ. eigenvalues --   -0.58240  -0.57362  -0.56400  -0.46261  -0.43854
 Alpha  occ. eigenvalues --   -0.33806
 Alpha virt. eigenvalues --   -0.00631   0.01696   0.03440   0.05019   0.05983
 Alpha virt. eigenvalues --    0.08795   0.08877   0.10614   0.11203   0.11779
 Alpha virt. eigenvalues --    0.12668   0.13158   0.14132   0.14881   0.16115

 Mulliken charges:
               1
     1  N    0.622008
     2  C   -1.991134
     3  C    1.493570
     4  O   -1.311139
     5  C    0.978561
     6  O   -1.231787
     7  N    0.716520
     8  H    0.091539
     9  H    0.174257
    10  H   -0.022554
    11  H    0.480159
 Sum of Mulliken charges =  -0.00000

 Dipole moment (field-independent basis, Debye):
    X=             -6.4612    Y=              2.8485    Z=              0.0925  Tot=              7.0618

 Test job not archived.
 1\1\GINC-SE220\SP\RHF\Aug-CC-pVDZ\C3H4N2O2\OHZDE\09-Apr-2025\0\\#t hf
 aug-cc-pvdz iop(5/13=1,5/36=2,99/5=2) pseudo=read geom=check guess=(re
 ad,tcheck) scf=(maxcycle=1)\\title\\0,1\N,0,-1.88732596,-0.38027761,-0
 .14979594\C,0,-0.54152809,-0.05317933,-0.14387273\C,0,0.04915186,1.128
 69766,0.26286204\O,0,1.33765446,1.00214598,0.37516882\C,0,1.67401168,-
 0.39630761,-0.06374287\O,0,2.77787052,-0.63900699,-0.48170297\N,0,0.40
 453019,-0.97593492,-0.34109576\H,0,-2.11448614,-1.11702455,-0.79815992
 \H,0,-2.51293757,0.4035403,-0.2340793\H,0,-0.40981606,2.03610474,0.631

 Normal termination of Gaussian 16 at Wed Apr  9 18:20:07 2025.
