 Gaussian 16, Revision C.01,

 ----------------------------------------------------------------------
 #t hf aug-cc-pvdz symm=none int=(grid=ultrafine) guess=(read,tcheck) s
 table=(opt,rrhf)
 ----------------------------------------------------------------------
 -----
 title
 -----
 Symbolic Z-matrix:
 Charge =  0 Multiplicity = 1

 SCF Done:  E(RHF) =  -343.646873991     A.U. after   16 cycles
 Normal termination of Gaussian 16 at Wed Apr  9 03:28:56 2025.
 Gaussian 16:  ES64L-G16RevC.01  3-Jul-2019

 ----------------------------------------------------------------------
 #t hf aug-cc-pvdz iop(5/13=1,5/36=2,99/5=2) pseudo=read geom=check gue
 ss=(read,tcheck) scf=(maxcycle=1)
 ----------------------------------------------------------------------
 -----
 title
 -----
 Structure from the checkpoint file:  "Grambow2020_wb97xd3_006714_reverse_mol2.chk"
 Charge =  0 Multiplicity = 1

                         Standard orientation:
 ---------------------------------------------------------------------
 Center     Atomic      Atomic             Coordinates (Angstroms)
 Number     Number       Type             X           Y           Z
 ---------------------------------------------------------------------
      1          8           0        2.505408   -0.349345   -0.047118
      2          6           0        1.165191   -0.776190   -0.114468
      3          6           0        0.234251    0.187338    0.576576
      4          8           0        0.101827    1.426689   -0.189254
      5          6           0       -1.198718    1.312197   -0.413686
      6          6           0       -1.907833   -1.189895   -0.228140
      7          6           0       -1.287821    0.032269    0.421022
      8          1           0        2.588476    0.469116   -0.542068
      9          1           0        0.847081   -0.925226   -1.153056
     10          1           0        1.113251   -1.741790    0.394023
     11          1           0        0.608960    0.413492    1.577106
     12          1           0       -1.450190   -1.420224   -1.191042
     13          1           0       -1.816737   -2.069665    0.411280
     14          1           0       -2.968668   -1.009187   -0.405726
     15          1           0       -1.810469    0.270414    1.352643
 ---------------------------------------------------------------------

 SCF Done:  E(RHF) =  -343.998085765     A.U. after    2 cycles

 The electronic state is 1-A.
 Alpha  occ. eigenvalues --  -20.60760 -20.56333 -11.31428 -11.30855 -11.30451
 Alpha  occ. eigenvalues --  -11.25566 -11.24998  -1.54971  -1.46762  -1.09137
 Alpha  occ. eigenvalues --   -1.01675  -0.92854  -0.87785  -0.74444  -0.72748
 Alpha  occ. eigenvalues --   -0.69106  -0.66154  -0.64869  -0.61268  -0.59178
 Alpha  occ. eigenvalues --   -0.55746  -0.53395  -0.53227  -0.51095  -0.48869
 Alpha  occ. eigenvalues --   -0.45559  -0.36262
 Alpha virt. eigenvalues --    0.03044   0.03532   0.04096   0.04473   0.06094
 Alpha virt. eigenvalues --    0.06318   0.06936   0.08545   0.09532   0.09645
 Alpha virt. eigenvalues --    0.11812   0.12669   0.13332   0.14396   0.14480

 Mulliken charges:
               1
     1  O   -1.177074
     2  C    0.816986
     3  C    0.863228
     4  O   -1.184848
     5  C    0.399517
     6  C   -0.311574
     7  C   -0.678158
     8  H    0.276761
     9  H    0.152601
    10  H    0.139254
    11  H    0.024705
    12  H    0.221152
    13  H    0.210508
    14  H    0.156883
    15  H    0.090060
 Sum of Mulliken charges =  -0.00000

 Dipole moment (field-independent basis, Debye):
    X=             -0.3555    Y=             -2.3834    Z=              1.2391  Tot=              2.7097

 Test job not archived.
 1\1\GINC-SE132\SP\RHF\Aug-CC-pVDZ\C5H8O2\OHZDE\09-Apr-2025\0\\#t hf au
 g-cc-pvdz iop(5/13=1,5/36=2,99/5=2) pseudo=read geom=check guess=(read
 ,tcheck) scf=(maxcycle=1)\\title\\0,1\O,0,2.55355733,0.72313433,0.6088
 4781\C,0,1.34395633,0.54659016,-0.09015933\C,0,0.47679586,-0.50910891,
 0.54710853\O,0,-0.07727872,-0.03506981,1.81530058\C,0,-1.34772339,-0.1
 0907401,1.44734692\C,0,-1.51990166,0.00019568,-1.1519129\C,0,-0.977382
 19,-0.69409023,0.08224748\H,0,2.35189167,1.06639244,1.48249477\H,0,0.7
 8960354,1.48914041,-0.16992542\H,0,1.60510938,0.22455022,-1.10096762\H

 Normal termination of Gaussian 16 at Wed Apr  9 03:29:01 2025.
