 Gaussian 16, Revision C.01,

 ----------------------------------------------------------------------
 #t hf aug-cc-pvdz symm=none int=(grid=ultrafine) guess=(read,tcheck) s
 table=(opt,rrhf)
 ----------------------------------------------------------------------
 -----
 title
 -----
 Symbolic Z-matrix:
 Charge =  0 Multiplicity = 1

 SCF Done:  E(RHF) =  -279.682902321     A.U. after   16 cycles
 Normal termination of Gaussian 16 at Wed Apr  9 15:56:41 2025.
 Gaussian 16:  ES64L-G16RevC.01  3-Jul-2019

 ----------------------------------------------------------------------
 #t hf aug-cc-pvdz iop(5/13=1,5/36=2,99/5=2) pseudo=read geom=check gue
 ss=(read,tcheck) scf=(maxcycle=1)
 ----------------------------------------------------------------------
 -----
 title
 -----
 Structure from the checkpoint file:  "Grambow2020_b97d3_007046_reverse_mol2.chk"
 Charge =  0 Multiplicity = 1

                         Standard orientation:
 ---------------------------------------------------------------------
 Center     Atomic      Atomic             Coordinates (Angstroms)
 Number     Number       Type             X           Y           Z
 ---------------------------------------------------------------------
      1          7           0       -1.782005   -0.587241   -0.087675
      2          6           0       -0.711717    0.263832   -0.003847
      3          6           0       -0.253073    1.530185    0.024994
      4          6           0        1.183309    0.979977   -0.035505
      5          7           0        0.715633   -0.279069   -0.042371
      6          7           0        0.965741   -1.549749    0.028721
      7          1           0       -2.594097   -0.351126    0.479218
      8          1           0       -1.482878   -1.557752    0.035180
      9          1           0       -0.713715    2.509210    0.034475
     10          1           0        2.194650    1.324784    0.133762
     11          1           0        1.989331   -1.656663    0.112795
 ---------------------------------------------------------------------

 SCF Done:  E(RHF) =  -279.966360755     A.U. after    2 cycles

 The electronic state is 1-A.
 Alpha  occ. eigenvalues --  -15.63819 -15.53627 -15.50388 -11.33704 -11.28117
 Alpha  occ. eigenvalues --  -11.25119  -1.37372  -1.23326  -1.17711  -0.96059
 Alpha  occ. eigenvalues --   -0.89557  -0.77757  -0.75334  -0.75064  -0.68168
 Alpha  occ. eigenvalues --   -0.64982  -0.61238  -0.55443  -0.53614  -0.49030
 Alpha  occ. eigenvalues --   -0.40566  -0.26971
 Alpha virt. eigenvalues --    0.03082   0.04030   0.04246   0.04420   0.05918
 Alpha virt. eigenvalues --    0.06918   0.10049   0.11075   0.11769   0.12458
 Alpha virt. eigenvalues --    0.12715   0.13694   0.14336   0.15400   0.15904

 Mulliken charges:
               1
     1  N    0.698402
     2  C   -1.500259
     3  C    0.895720
     4  C   -0.190028
     5  N   -0.062301
     6  N   -0.058528
     7  H    0.215834
     8  H    0.125895
     9  H   -0.118114
    10  H   -0.127799
    11  H    0.121178
 Sum of Mulliken charges =   0.00000

 Dipole moment (field-independent basis, Debye):
    X=             -0.5276    Y=              2.5441    Z=              1.2870  Tot=              2.8995

 Test job not archived.
 1\1\GINC-SE174\SP\RHF\Aug-CC-pVDZ\C3H5N3\OHZDE\09-Apr-2025\0\\#t hf au
 g-cc-pvdz iop(5/13=1,5/36=2,99/5=2) pseudo=read geom=check guess=(read
 ,tcheck) scf=(maxcycle=1)\\title\\0,1\N,0,-1.82143271,-0.33409832,0.14
 591988\C,0,-0.46510057,-0.51640462,0.0826991\C,0,0.57971622,-1.3666466
 4,0.09954299\C,0,1.5280262,-0.15423741,0.1183535\N,0,0.47943241,0.6841
 8025,0.07997469\N,0,0.04117097,1.89835014,-0.04632983\H,0,-2.39101285,
 -0.97767355,-0.39997525\H,0,-2.06279963,0.64595999,-0.0204825\H,0,0.68
 821761,-2.44258896,0.1362313\H,0,2.57428284,0.06327083,-0.05013753\H,0

 Normal termination of Gaussian 16 at Wed Apr  9 15:56:44 2025.
