 Gaussian 16, Revision C.01,

 ----------------------------------------------------------------------
 #t hf aug-cc-pvdz symm=none int=(grid=ultrafine) guess=(read,tcheck) s
 table=(opt,rrhf)
 ----------------------------------------------------------------------
 -----
 title
 -----
 Symbolic Z-matrix:
 Charge =  0 Multiplicity = 1

 SCF Done:  E(RHF) =  -339.749125832     A.U. after   15 cycles
 Normal termination of Gaussian 16 at Wed Apr  9 03:33:29 2025.
 Gaussian 16:  ES64L-G16RevC.01  3-Jul-2019

 ----------------------------------------------------------------------
 #t hf aug-cc-pvdz iop(5/13=1,5/36=2,99/5=2) pseudo=read geom=check gue
 ss=(read,tcheck) scf=(maxcycle=1)
 ----------------------------------------------------------------------
 -----
 title
 -----
 Structure from the checkpoint file:  "Grambow2020_wb97xd3_007003_forward_mol1.chk"
 Charge =  0 Multiplicity = 1

                         Standard orientation:
 ---------------------------------------------------------------------
 Center     Atomic      Atomic             Coordinates (Angstroms)
 Number     Number       Type             X           Y           Z
 ---------------------------------------------------------------------
      1          6           0       -1.796345    0.647365   -0.614674
      2          6           0       -0.611318   -0.034760    0.023610
      3          8           0       -0.941378   -0.444786    1.317110
      4          6           0        0.126738   -1.146839   -0.732978
      5          7           0        1.389638   -1.049011   -0.025811
      6          6           0        0.626875    0.841650    0.100976
      7          7           0        1.481368    1.667622    0.078680
      8          1           0       -2.169288    1.447149    0.024326
      9          1           0       -2.587113   -0.092598   -0.736905
     10          1           0       -1.534494    1.054240   -1.591213
     11          1           0       -0.188123   -0.985061    1.604470
     12          1           0        0.149382   -0.916779   -1.810704
     13          1           0       -0.416061   -2.091075   -0.596206
     14          1           0        1.977475    0.586080   -0.037589
     15          1           0        2.126506   -1.618436   -0.424746
 ---------------------------------------------------------------------

 SCF Done:  E(RHF) =  -340.100252613     A.U. after    2 cycles

 The electronic state is 1-A.
 Alpha  occ. eigenvalues --  -20.57037 -15.57022 -15.43242 -11.39696 -11.34912
 Alpha  occ. eigenvalues --  -11.26315 -11.25775  -1.48883  -1.34340  -1.15971
 Alpha  occ. eigenvalues --   -1.06033  -0.93306  -0.86795  -0.76731  -0.73689
 Alpha  occ. eigenvalues --   -0.68151  -0.67464  -0.65315  -0.61458  -0.58719
 Alpha  occ. eigenvalues --   -0.57627  -0.56471  -0.54832  -0.52490  -0.47176
 Alpha  occ. eigenvalues --   -0.43977  -0.36455
 Alpha virt. eigenvalues --    0.03398   0.04146   0.04244   0.04803   0.06282
 Alpha virt. eigenvalues --    0.06550   0.06945   0.07391   0.10249   0.10646
 Alpha virt. eigenvalues --    0.11077   0.11550   0.12599   0.14470   0.15021

 Mulliken charges:
               1
     1  C    0.141966
     2  C    0.787478
     3  O   -1.519109
     4  C   -0.301520
     5  N   -0.067251
     6  C   -1.880844
     7  N    0.998180
     8  H    0.241241
     9  H    0.263935
    10  H    0.243015
    11  H    0.372549
    12  H    0.025689
    13  H    0.067264
    14  H    0.649708
    15  H   -0.022303
 Sum of Mulliken charges =   0.00000

 Dipole moment (field-independent basis, Debye):
    X=             -1.5226    Y=             -0.0591    Z=             -1.8884  Tot=              2.4265

 Test job not archived.
 1\1\GINC-SE424\SP\RHF\Aug-CC-pVDZ\C4H8N2O1\OHZDE\09-Apr-2025\0\\#t hf
 aug-cc-pvdz iop(5/13=1,5/36=2,99/5=2) pseudo=read geom=check guess=(re
 ad,tcheck) scf=(maxcycle=1)\\title\\0,1\C,0,1.19319235,1.40761818,-0.4
 0755925\C,0,0.23807664,0.4273447,0.22790035\O,0,-0.12981868,0.87981377
 ,1.49680813\C,0,-0.98638038,-0.06161723,-0.55663307\N,0,-1.20251341,-1
 .292367,0.18032882\C,0,0.80666935,-0.97436256,0.3661729\N,0,1.41685468
 ,-1.99403952,0.39479022\H,0,2.03466131,1.60839885,0.25476957\H,0,0.657
 12377,2.34149706,-0.57578998\H,0,1.5627693,1.03164029,-1.3613912\H,0,-

 Normal termination of Gaussian 16 at Wed Apr  9 03:33:34 2025.
