 Gaussian 16, Revision C.01,

 ----------------------------------------------------------------------
 #t hf aug-cc-pvdz symm=none int=(grid=ultrafine) guess=(read,tcheck) s
 table=(opt,rrhf)
 ----------------------------------------------------------------------
 -----
 title
 -----
 Symbolic Z-matrix:
 Charge =  0 Multiplicity = 1

 SCF Done:  E(RHF) =  -307.895666111     A.U. after   12 cycles

 1\1\GINC-SE112\Stability\RHF\Aug-CC-pVDZ\C6H10O1\OHZDE\09-Apr-2025\0\\
 #t hf aug-cc-pvdz symm=none int=(grid=ultrafine) guess=(read,tcheck) s
 table=(opt,rrhf)\\title\\0,1\O,0,1.75169054,-0.36808863,0.84656423\C,0
 ,1.28245304,-0.69404146,-0.45212073\C,0,-0.03481243,-1.41996585,-0.524
 33191\C,0,-1.10538985,-0.76189978,0.34209395\C,0,-1.18890079,0.7322134
 4,0.04970879\C,0,0.10889841,1.459358,0.40494013\C,0,1.35030318,0.69987
 756,-0.00688765\H,0,0.16690399,1.6258589,1.4848924\H,0,2.05919183,-1.0
 5764002,-1.1229058\H,0,0.11558755,-2.46342893,-0.23333962\H,0,-0.35672

 Normal termination of Gaussian 16 at Wed Apr  9 18:59:58 2025.
 Gaussian 16:  ES64L-G16RevC.01  3-Jul-2019

 ----------------------------------------------------------------------
 #t hf aug-cc-pvdz iop(5/13=1,5/36=2,99/5=2) pseudo=read geom=check gue
 ss=(read,tcheck) scf=(maxcycle=1)
 ----------------------------------------------------------------------
 -----
 title
 -----
 Structure from the checkpoint file:  "Grambow2020_wb97xd3_008427_reverse_mol2.chk"
 Charge =  0 Multiplicity = 1

                         Standard orientation:
 ---------------------------------------------------------------------
 Center     Atomic      Atomic             Coordinates (Angstroms)
 Number     Number       Type             X           Y           Z
 ---------------------------------------------------------------------
      1          8           0        1.510951    0.033213    0.770544
      2          6           0        1.086623   -0.629137   -0.410240
      3          6           0       -0.133962   -1.502018   -0.285260
      4          6           0       -1.277346   -0.796158    0.438837
      5          6           0       -1.538851    0.573570   -0.177845
      6          6           0       -0.338271    1.508992   -0.026836
      7          6           0        0.986013    0.827288   -0.289611
      8          1           0       -0.302677    1.919699    0.986790
      9          1           0        1.902613   -1.040615   -1.002122
     10          1           0        0.139918   -2.428299    0.227676
     11          1           0       -0.450560   -1.783506   -1.295823
     12          1           0       -1.024848   -0.683749    1.496694
     13          1           0       -2.177310   -1.413110    0.389981
     14          1           0       -1.761100    0.442367   -1.242871
     15          1           0       -2.423057    1.034271    0.268341
     16          1           0       -0.439828    2.359655   -0.704859
     17          1           0        1.744013    1.432365   -0.782422
 ---------------------------------------------------------------------

 SCF Done:  E(RHF) =  -308.222388277     A.U. after    2 cycles

 The electronic state is 1-A.
 Alpha  occ. eigenvalues --  -20.54589 -11.28466 -11.28407 -11.23227 -11.23183
 Alpha  occ. eigenvalues --  -11.22916 -11.22579  -1.49115  -1.10111  -1.02174
 Alpha  occ. eigenvalues --   -0.95835  -0.85022  -0.84552  -0.74254  -0.71734
 Alpha  occ. eigenvalues --   -0.63536  -0.63049  -0.61429  -0.58455  -0.55531
 Alpha  occ. eigenvalues --   -0.53676  -0.52263  -0.48774  -0.46859  -0.46149
 Alpha  occ. eigenvalues --   -0.42594  -0.41665
 Alpha virt. eigenvalues --    0.03385   0.03683   0.03751   0.04463   0.05471
 Alpha virt. eigenvalues --    0.05883   0.06417   0.06959   0.08146   0.09027
 Alpha virt. eigenvalues --    0.12134   0.13817   0.14092   0.14278   0.14670

 Mulliken charges:
               1
     1  O   -1.405747
     2  C    0.670937
     3  C   -0.413594
     4  C   -0.149043
     5  C   -0.136643
     6  C   -0.549189
     7  C    0.805859
     8  H    0.208307
     9  H   -0.056334
    10  H    0.180420
    11  H    0.226033
    12  H    0.127769
    13  H    0.145872
    14  H    0.126016
    15  H    0.150750
    16  H    0.161340
    17  H   -0.092753
 Sum of Mulliken charges =  -0.00000

 Dipole moment (field-independent basis, Debye):
    X=             -1.1585    Y=              0.0712    Z=             -1.6500  Tot=              2.0174

 Test job not archived.
 1\1\GINC-SE112\SP\RHF\Aug-CC-pVDZ\C6H10O1\OHZDE\09-Apr-2025\0\\#t hf a
 ug-cc-pvdz iop(5/13=1,5/36=2,99/5=2) pseudo=read geom=check guess=(rea
 d,tcheck) scf=(maxcycle=1)\\title\\0,1\O,0,1.75169054,-0.36808863,0.84
 656423\C,0,1.28245304,-0.69404146,-0.45212073\C,0,-0.03481243,-1.41996
 585,-0.52433191\C,0,-1.10538985,-0.76189978,0.34209395\C,0,-1.18890079
 ,0.73221344,0.04970879\C,0,0.10889841,1.459358,0.40494013\C,0,1.350303
 18,0.69987756,-0.00688765\H,0,0.16690399,1.6258589,1.4848924\H,0,2.059
 19183,-1.05764002,-1.1229058\H,0,0.11558755,-2.46342893,-0.23333962\H,

 Normal termination of Gaussian 16 at Wed Apr  9 19:00:05 2025.
