 Gaussian 16, Revision C.01,

 ----------------------------------------------------------------------
 #t hf aug-cc-pvdz symm=none int=(grid=ultrafine) guess=(read,tcheck) s
 table=(opt,rrhf)
 ----------------------------------------------------------------------
 -----
 title
 -----
 Symbolic Z-matrix:
 Charge =  0 Multiplicity = 1

 SCF Done:  E(RHF) =  -353.516430353     A.U. after   15 cycles
 Normal termination of Gaussian 16 at Wed Apr  9 18:39:13 2025.
 Gaussian 16:  ES64L-G16RevC.01  3-Jul-2019

 ----------------------------------------------------------------------
 #t hf aug-cc-pvdz iop(5/13=1,5/36=2,99/5=2) pseudo=read geom=check gue
 ss=(read,tcheck) scf=(maxcycle=1)
 ----------------------------------------------------------------------
 -----
 title
 -----
 Structure from the checkpoint file:  "Grambow2020_wb97xd3_007944_reverse_mol2.chk"
 Charge =  0 Multiplicity = 1

                         Standard orientation:
 ---------------------------------------------------------------------
 Center     Atomic      Atomic             Coordinates (Angstroms)
 Number     Number       Type             X           Y           Z
 ---------------------------------------------------------------------
      1          8           0        2.193574    0.114097    0.000425
      2          6           0        0.872175   -0.007810   -0.000389
      3          6           0        0.108187    1.193966   -0.000789
      4          7           0       -1.180518    1.117244    0.000169
      5          7           0       -1.673191   -0.122901    0.000590
      6          6           0       -1.037016   -1.321608   -0.000288
      7          7           0        0.332606   -1.187611   -0.000446
      8          1           0        2.554343   -0.783796    0.002083
      9          1           0        0.565469    2.174903    0.000100
     10          1           0       -2.680755   -0.138297    0.001023
 ---------------------------------------------------------------------

 SCF Done:  E(RHF) =  -353.864303651     A.U. after    2 cycles

 The electronic state is 1-A.
 Alpha  occ. eigenvalues --  -20.62351 -15.60729 -15.60052 -15.51400 -11.39029
 Alpha  occ. eigenvalues --  -11.31333 -11.28765  -1.55807  -1.40742  -1.25226
 Alpha  occ. eigenvalues --   -1.18756  -0.98814  -0.96103  -0.84042  -0.81131
 Alpha  occ. eigenvalues --   -0.76521  -0.68700  -0.67731  -0.63350  -0.62242
 Alpha  occ. eigenvalues --   -0.58368  -0.50442  -0.48214  -0.44455  -0.37375
 Alpha virt. eigenvalues --    0.03032   0.03071   0.04228   0.04994   0.08432
 Alpha virt. eigenvalues --    0.08735   0.09791   0.10365   0.10541   0.11070
 Alpha virt. eigenvalues --    0.12831   0.13868   0.14062   0.14666   0.15442

 Mulliken charges:
               1
     1  O   -1.381721
     2  C    0.389667
     3  C   -0.220061
     4  N    0.203604
     5  N    0.266864
     6  C   -0.551255
     7  N    0.789805
     8  H    0.374183
     9  H   -0.042926
    10  H    0.171841
 Sum of Mulliken charges =  -0.00000

 Dipole moment (field-independent basis, Debye):
    X=              1.6785    Y=              2.8213    Z=              0.0032  Tot=              3.2828

 Test job not archived.
 1\1\GINC-SE113\SP\RHF\Aug-CC-pVDZ\C3H3N3O1\OHZDE\09-Apr-2025\0\\#t hf
 aug-cc-pvdz iop(5/13=1,5/36=2,99/5=2) pseudo=read geom=check guess=(re
 ad,tcheck) scf=(maxcycle=1)\\title\\0,1\O,0,2.17004746,-0.19074944,0.1
 9977592\C,0,0.84703124,-0.18818925,0.09692839\C,0,0.217707,1.06154345,
 -0.16776419\N,0,-1.06821335,1.10571035,-0.27315017\N,0,-1.68888079,-0.
 06535202,-0.11800086\C,0,-1.1858524,-1.30046123,0.13316819\N,0,0.18633
 63,-1.29578791,0.2375508\H,0,2.4319002,-1.10480244,0.37952584\H,0,0.77
 556109,1.98178919,-0.28305868\H,0,-2.68949176,0.01287332,-0.20790124\\

 Normal termination of Gaussian 16 at Wed Apr  9 18:39:17 2025.
