 Gaussian 16, Revision C.01,

 ----------------------------------------------------------------------
 #t hf aug-cc-pvdz symm=none int=(grid=ultrafine) guess=(read,tcheck) s
 table=(opt,rrhf)
 ----------------------------------------------------------------------
 -----
 title
 -----
 Symbolic Z-matrix:
 Charge =  0 Multiplicity = 1

 SCF Done:  E(RHF) =  -339.862306815     A.U. after   15 cycles
 Normal termination of Gaussian 16 at Wed Apr  9 17:15:31 2025.
 Gaussian 16:  ES64L-G16RevC.01  3-Jul-2019

 ----------------------------------------------------------------------
 #t hf aug-cc-pvdz iop(5/13=1,5/36=2,99/5=2) pseudo=read geom=check gue
 ss=(read,tcheck) scf=(maxcycle=1)
 ----------------------------------------------------------------------
 -----
 title
 -----
 Structure from the checkpoint file:  "Grambow2020_wb97xd3_006541_reverse_mol2.chk"
 Charge =  0 Multiplicity = 1

                         Standard orientation:
 ---------------------------------------------------------------------
 Center     Atomic      Atomic             Coordinates (Angstroms)
 Number     Number       Type             X           Y           Z
 ---------------------------------------------------------------------
      1          6           0       -1.022040    2.009330    0.325292
      2          7           0       -0.550272    0.975051   -0.586833
      3          6           0        0.195208   -0.081383    0.017224
      4          6           0       -0.628941   -1.201319    0.594340
      5          8           0       -1.522782   -1.710730   -0.367298
      6          6           0        1.504919   -0.108645    0.007658
      7          7           0        2.714847   -0.200124   -0.154827
      8          1           0       -0.207537    2.546623    0.827181
      9          1           0       -1.631092    2.726058   -0.226790
     10          1           0       -1.654234    1.558916    1.091734
     11          1           0       -0.052230    1.373471   -1.368212
     12          1           0        3.275162    0.155684    0.616728
     13          1           0       -1.183226   -0.840427    1.473390
     14          1           0        0.016567   -2.016311    0.924181
     15          1           0       -1.828062   -0.950557   -0.875294
 ---------------------------------------------------------------------

 SCF Done:  E(RHF) =  -340.215330765     A.U. after    2 cycles

 The electronic state is 1-A.
 Alpha  occ. eigenvalues --  -20.54029 -15.52998 -15.51661 -11.31684 -11.29394
 Alpha  occ. eigenvalues --  -11.27561 -11.27080  -1.44807  -1.25991  -1.22899
 Alpha  occ. eigenvalues --   -1.04515  -0.93809  -0.89945  -0.79832  -0.76315
 Alpha  occ. eigenvalues --   -0.68852  -0.66498  -0.65230  -0.61402  -0.59564
 Alpha  occ. eigenvalues --   -0.58874  -0.55763  -0.53482  -0.50250  -0.45817
 Alpha  occ. eigenvalues --   -0.43480  -0.35542
 Alpha virt. eigenvalues --    0.02851   0.03828   0.04283   0.05015   0.05870
 Alpha virt. eigenvalues --    0.06160   0.06871   0.08303   0.10012   0.10669
 Alpha virt. eigenvalues --    0.11052   0.11988   0.14073   0.14577   0.14998

 Mulliken charges:
               1
     1  C   -0.169145
     2  N    0.572269
     3  C    0.035113
     4  C    0.813598
     5  O   -1.168366
     6  C   -2.446307
     7  N    1.080746
     8  H    0.161828
     9  H    0.076330
    10  H    0.135475
    11  H    0.206815
    12  H    0.181698
    13  H    0.084690
    14  H    0.061932
    15  H    0.373326
 Sum of Mulliken charges =  -0.00000

 Dipole moment (field-independent basis, Debye):
    X=              0.0014    Y=              3.2929    Z=              1.8141  Tot=              3.7596

 Test job not archived.
 1\1\GINC-SE229\SP\RHF\Aug-CC-pVDZ\C4H8N2O1\OHZDE\09-Apr-2025\0\\#t hf
 aug-cc-pvdz iop(5/13=1,5/36=2,99/5=2) pseudo=read geom=check guess=(re
 ad,tcheck) scf=(maxcycle=1)\\title\\0,1\C,0,-1.44458293,1.1273954,0.66
 285093\N,0,-0.59900923,-0.02012395,0.96694521\C,0,0.25075174,-0.453749
 01,-0.09444821\C,0,1.56445606,0.27337571,-0.20404774\O,0,2.25251209,0.
 24989971,1.02445845\C,0,-0.05999051,-1.45986919,-0.87376683\N,0,-0.288
 42347,-2.49810734,-1.48087055\H,0,-2.15528782,0.93636721,-0.15102714\H
 ,0,-1.99952796,1.41303941,1.55721278\H,0,-0.82018198,1.97467719,0.3761

 Normal termination of Gaussian 16 at Wed Apr  9 17:15:36 2025.
