 Gaussian 16, Revision C.01,

 ----------------------------------------------------------------------
 #t hf aug-cc-pvdz symm=none int=(grid=ultrafine) guess=(read,tcheck) s
 table=(opt,rrhf)
 ----------------------------------------------------------------------
 -----
 title
 -----
 Symbolic Z-matrix:
 Charge =  0 Multiplicity = 1

 SCF Done:  E(RHF) =  -266.695176056     A.U. after   15 cycles
 Normal termination of Gaussian 16 at Wed Apr  9 03:05:13 2025.
 Gaussian 16:  ES64L-G16RevC.01  3-Jul-2019

 ----------------------------------------------------------------------
 #t hf aug-cc-pvdz iop(5/13=1,5/36=2,99/5=2) pseudo=read geom=check gue
 ss=(read,tcheck) scf=(maxcycle=1)
 ----------------------------------------------------------------------
 -----
 title
 -----
 Structure from the checkpoint file:  "Grambow2020_b97d3_006471_forward_mol1.chk"
 Charge =  0 Multiplicity = 1

                         Standard orientation:
 ---------------------------------------------------------------------
 Center     Atomic      Atomic             Coordinates (Angstroms)
 Number     Number       Type             X           Y           Z
 ---------------------------------------------------------------------
      1          8           0       -1.260848   -0.857425    0.252942
      2          6           0       -1.195856    0.419410   -0.102799
      3          6           0        0.144436    1.026093   -0.161310
      4          6           0        1.224942    0.237026    0.473716
      5          8           0        1.093212   -0.811911   -0.495417
      6          1           0        0.103395   -1.165548   -0.227438
      7          1           0       -1.832433    0.735815   -0.963998
      8          1           0       -1.535925    1.169022    0.714274
      9          1           0        0.344054    1.920119   -0.758192
     10          1           0        0.996974   -0.080903    1.503498
     11          1           0        2.223894    0.681016    0.414017
 ---------------------------------------------------------------------

 SCF Done:  E(RHF) =  -266.968673431     A.U. after    2 cycles

 The electronic state is 1-A.
 Alpha  occ. eigenvalues --  -20.55736 -20.45761 -11.39040 -11.32874 -11.31231
 Alpha  occ. eigenvalues --   -1.45445  -1.36395  -1.09377  -0.94841  -0.81829
 Alpha  occ. eigenvalues --   -0.75359  -0.68271  -0.63580  -0.60590  -0.59604
 Alpha  occ. eigenvalues --   -0.55463  -0.52604  -0.45472  -0.38084  -0.36906
 Alpha virt. eigenvalues --    0.01024   0.02160   0.03529   0.04093   0.05570
 Alpha virt. eigenvalues --    0.06488   0.08657   0.10434   0.11463   0.12412
 Alpha virt. eigenvalues --    0.12758   0.13612   0.14797   0.15746   0.16165

 Mulliken charges:
               1
     1  O   -1.435618
     2  C    0.667268
     3  C   -0.083538
     4  C    0.594688
     5  O   -1.185357
     6  H    0.737028
     7  H    0.141024
     8  H    0.366088
     9  H   -0.018353
    10  H    0.171668
    11  H    0.045101
 Sum of Mulliken charges =  -0.00000

 Dipole moment (field-independent basis, Debye):
    X=              2.0633    Y=              5.6798    Z=              0.1762  Tot=              6.0455

 Test job not archived.
 1\1\GINC-SE042\SP\RHF\Aug-CC-pVDZ\C3H6O2\OHZDE\09-Apr-2025\0\\#t hf au
 g-cc-pvdz iop(5/13=1,5/36=2,99/5=2) pseudo=read geom=check guess=(read
 ,tcheck) scf=(maxcycle=1)\\title\\0,1\O,0,-1.63914384,-0.31011682,-0.4
 853035\C,0,-0.97946004,0.75542356,-0.04881193\C,0,0.45457249,0.5796355
 8,0.23494776\C,0,0.92092753,-0.82479956,0.29370408\O,0,0.64475396,-1.0
 245733,-1.09937074\H,0,-0.43632948,-0.9406873,-1.07052436\H,0,-1.18412
 379,1.72265995,-0.56801531\H,0,-1.19642803,1.04285047,1.05367848\H,0,1
 .14406035,1.42796505,0.25341202\H,0,0.32104431,-1.4649867,0.95988783\H

 Normal termination of Gaussian 16 at Wed Apr  9 03:05:16 2025.
