 Gaussian 16, Revision C.01,

 ----------------------------------------------------------------------
 #t hf aug-cc-pvdz symm=none int=(grid=ultrafine) guess=(read,tcheck) s
 table=(opt,rrhf)
 ----------------------------------------------------------------------
 -----
 title
 -----
 Symbolic Z-matrix:
 Charge =  0 Multiplicity = 1

 SCF Done:  E(RHF) =  -359.645553749     A.U. after   15 cycles
 Normal termination of Gaussian 16 at Wed Apr  9 19:21:04 2025.
 Gaussian 16:  ES64L-G16RevC.01  3-Jul-2019

 ----------------------------------------------------------------------
 #t hf aug-cc-pvdz iop(5/13=1,5/36=2,99/5=2) pseudo=read geom=check gue
 ss=(read,tcheck) scf=(maxcycle=1)
 ----------------------------------------------------------------------
 -----
 title
 -----
 Structure from the checkpoint file:  "Grambow2020_wb97xd3_009412_reverse_mol2.chk"
 Charge =  0 Multiplicity = 1

                         Standard orientation:
 ---------------------------------------------------------------------
 Center     Atomic      Atomic             Coordinates (Angstroms)
 Number     Number       Type             X           Y           Z
 ---------------------------------------------------------------------
      1          8           0       -1.687459    0.078121   -0.902330
      2          6           0       -1.085165   -0.184957    0.375656
      3          6           0       -0.217497   -1.380874    0.342915
      4          8           0        1.162708   -1.084827   -0.030247
      5          6           0        1.544825    0.070499   -0.360986
      6          7           0        0.839509    1.165550   -0.124732
      7          6           0       -0.342668    1.114672    0.718205
      8          1           0       -1.666486   -0.779012   -1.340152
      9          1           0       -1.872715   -0.351559    1.120240
     10          1           0       -0.147917   -1.972873    1.248792
     11          1           0        1.125165    2.023632   -0.558358
     12          1           0        2.497195    0.146230   -0.873911
     13          1           0       -0.060693    1.118116    1.773663
     14          1           0       -0.950085    1.994228    0.508727
 ---------------------------------------------------------------------

 SCF Done:  E(RHF) =  -360.010982607     A.U. after    2 cycles

 The electronic state is 1-A.
 Alpha  occ. eigenvalues --  -20.61978 -20.51382 -15.57680 -11.40514 -11.28392
 Alpha  occ. eigenvalues --  -11.27114 -11.19848  -1.56303  -1.41914  -1.29735
 Alpha  occ. eigenvalues --   -1.05815  -0.94061  -0.92807  -0.83453  -0.76066
 Alpha  occ. eigenvalues --   -0.72487  -0.69350  -0.66358  -0.62446  -0.60486
 Alpha  occ. eigenvalues --   -0.58599  -0.56953  -0.53949  -0.48641  -0.45428
 Alpha  occ. eigenvalues --   -0.42032  -0.25362
 Alpha virt. eigenvalues --    0.01858   0.03934   0.04267   0.05284   0.06058
 Alpha virt. eigenvalues --    0.06545   0.06659   0.08135   0.10447   0.11517
 Alpha virt. eigenvalues --    0.12102   0.12797   0.13962   0.14722   0.14752

 Mulliken charges:
               1
     1  O   -1.379866
     2  C    0.891836
     3  C    0.392306
     4  O   -1.225234
     5  C    0.452383
     6  N    0.822299
     7  C   -0.606685
     8  H    0.364076
     9  H    0.150996
    10  H   -0.171913
    11  H    0.124952
    12  H    0.003616
    13  H    0.097884
    14  H    0.083350
 Sum of Mulliken charges =   0.00000

 Dipole moment (field-independent basis, Debye):
    X=              3.8533    Y=              4.2213    Z=              0.5112  Tot=              5.7383

 Test job not archived.
 1\1\GINC-SE035\SP\RHF\Aug-CC-pVDZ\C4H7N1O2\OHZDE\09-Apr-2025\0\\#t hf
 aug-cc-pvdz iop(5/13=1,5/36=2,99/5=2) pseudo=read geom=check guess=(re
 ad,tcheck) scf=(maxcycle=1)\\title\\0,1\O,0,-1.29620546,-0.458279,1.38
 984471\C,0,-1.0539353,0.07751355,0.07856736\C,0,-0.41804891,1.41044157
 ,0.13413278\O,0,1.04054652,1.355096,0.17013595\C,0,1.67871538,0.268749
 44,0.22277755\N,0,1.13507852,-0.90815414,-0.04514461\C,0,-0.19869006,-
 0.99271023,-0.61486818\H,0,-1.32244658,0.32432909,1.94988227\H,0,-2.00
 665693,0.17283025,-0.45587751\H,0,-0.6579676,2.11207048,-0.65711529\H,

 Normal termination of Gaussian 16 at Wed Apr  9 19:21:08 2025.
