 Gaussian 16, Revision C.01,

 ----------------------------------------------------------------------
 #t hf aug-cc-pvdz symm=none int=(grid=ultrafine) guess=(read,tcheck) s
 table=(opt,rrhf)
 ----------------------------------------------------------------------
 -----
 title
 -----
 Symbolic Z-matrix:
 Charge =  0 Multiplicity = 1

 SCF Done:  E(RHF) =  -234.068360737     A.U. after   14 cycles
 Normal termination of Gaussian 16 at Wed Apr  9 15:51:08 2025.
 Gaussian 16:  ES64L-G16RevC.01  3-Jul-2019

 ----------------------------------------------------------------------
 #t hf aug-cc-pvdz iop(5/13=1,5/36=2,99/5=2) pseudo=read geom=check gue
 ss=(read,tcheck) scf=(maxcycle=1)
 ----------------------------------------------------------------------
 -----
 title
 -----
 Structure from the checkpoint file:  "Grambow2020_b97d3_006828_forward_mol1.chk"
 Charge =  0 Multiplicity = 1

                         Standard orientation:
 ---------------------------------------------------------------------
 Center     Atomic      Atomic             Coordinates (Angstroms)
 Number     Number       Type             X           Y           Z
 ---------------------------------------------------------------------
      1          6           0        1.865821   -0.837461    0.311635
      2          6           0        0.600875   -0.005364    0.116864
      3          6           0        0.909403    1.448900   -0.233569
      4          6           0       -0.444614   -0.664050   -0.816449
      5          6           0       -1.787212   -0.066292   -0.341175
      6          6           0       -1.588079   -0.070407    1.168386
      7          1           0        2.569074   -0.354630    1.004589
      8          1           0        1.625774   -1.838475    0.694024
      9          1           0        2.373956   -0.955389   -0.659560
     10          1           0        1.505381    1.927880    0.555642
     11          1           0       -0.003059    2.039748   -0.384276
     12          1           0        1.495069    1.486859   -1.166055
     13          1           0       -0.230524   -0.495864   -1.882387
     14          1           0       -0.446365   -1.746584   -0.629520
     15          1           0       -2.629585   -0.731568   -0.597230
     16          1           0       -1.967412    0.907663   -0.831360
     17          1           0        0.035948   -0.059311    1.137533
     18          1           0       -1.665419    0.987722    1.524443
 ---------------------------------------------------------------------

 SCF Done:  E(RHF) =  -234.325169883     A.U. after    2 cycles

 The electronic state is 1-A.
 Alpha  occ. eigenvalues --  -11.26978 -11.25857 -11.23874 -11.23597 -11.23470
 Alpha  occ. eigenvalues --  -11.23206  -1.12229  -1.02236  -0.94056  -0.89507
 Alpha  occ. eigenvalues --   -0.82212  -0.72669  -0.65313  -0.63078  -0.60996
 Alpha  occ. eigenvalues --   -0.58976  -0.55051  -0.54808  -0.52079  -0.50357
 Alpha  occ. eigenvalues --   -0.48799  -0.46633  -0.45431  -0.34729
 Alpha virt. eigenvalues --    0.03514   0.03565   0.03655   0.04478   0.05775
 Alpha virt. eigenvalues --    0.06075   0.06169   0.06632   0.07288   0.08933
 Alpha virt. eigenvalues --    0.09509   0.09718   0.10422   0.12847   0.13620

 Mulliken charges:
               1
     1  C   -0.218737
     2  C   -1.540390
     3  C   -0.108633
     4  C    0.000114
     5  C   -0.236412
     6  C   -0.369174
     7  H    0.169280
     8  H    0.163535
     9  H    0.257239
    10  H    0.187497
    11  H    0.127027
    12  H    0.230727
    13  H    0.125025
    14  H    0.105007
    15  H    0.183632
    16  H    0.109142
    17  H    0.590452
    18  H    0.224668
 Sum of Mulliken charges =   0.00000

 Dipole moment (field-independent basis, Debye):
    X=              0.8562    Y=              1.1481    Z=             -1.6065  Tot=              2.1522

 Test job not archived.
 1\1\GINC-SE113\SP\RHF\Aug-CC-pVDZ\C6H12\OHZDE\09-Apr-2025\0\\#t hf aug
 -cc-pvdz iop(5/13=1,5/36=2,99/5=2) pseudo=read geom=check guess=(read,
 tcheck) scf=(maxcycle=1)\\title\\0,1\C,0,-1.60675043,-0.96746235,0.706
 74537\C,0,-0.48871644,-0.18715593,0.02006422\C,0,-1.00874708,1.0409845
 1,-0.72432453\C,0,0.72483527,0.10574162,0.93630218\C,0,1.90452801,0.24
 149021,-0.05145574\C,0,1.58761884,-0.87540188,-1.03662909\H,0,-2.43502
 19,-1.18502244,0.01789856\H,0,-1.23301567,-1.91439331,1.11847118\H,0,-
 2.00755215,-0.36704797,1.53992391\H,0,-1.73876599,0.75657201,-1.494810

 Normal termination of Gaussian 16 at Wed Apr  9 15:51:14 2025.
