 Gaussian 16, Revision C.01,

 ----------------------------------------------------------------------
 #t hf aug-cc-pvdz symm=none int=(grid=ultrafine) guess=(read,tcheck) s
 table=(opt,rrhf)
 ----------------------------------------------------------------------
 -----
 title
 -----
 Symbolic Z-matrix:
 Charge =  0 Multiplicity = 1

 SCF Done:  E(RHF) =  -260.128307732     A.U. after   17 cycles
 Normal termination of Gaussian 16 at Wed Apr  9 03:05:10 2025.
 Gaussian 16:  ES64L-G16RevC.01  3-Jul-2019

 ----------------------------------------------------------------------
 #t hf aug-cc-pvdz iop(5/13=1,5/36=2,99/5=2) pseudo=read geom=check gue
 ss=(read,tcheck) scf=(maxcycle=1)
 ----------------------------------------------------------------------
 -----
 title
 -----
 Structure from the checkpoint file:  "Grambow2020_b97d3_006470_forward_mol1.chk"
 Charge =  0 Multiplicity = 1

                         Standard orientation:
 ---------------------------------------------------------------------
 Center     Atomic      Atomic             Coordinates (Angstroms)
 Number     Number       Type             X           Y           Z
 ---------------------------------------------------------------------
      1          6           0        0.092706    0.302329   -0.000091
      2          6           0       -0.992761    1.036956   -0.000075
      3          6           0       -2.267417   -0.250006    0.000285
      4          7           0       -1.132780   -0.759012   -0.000217
      5          6           0        1.451016    0.032896    0.000051
      6          7           0        2.604029   -0.202853    0.000072
 ---------------------------------------------------------------------

 SCF Done:  E(RHF) =  -260.368660127     A.U. after    2 cycles

 The electronic state is 1-A.
 Alpha  occ. eigenvalues --  -15.63245 -15.58803 -11.39620 -11.39088 -11.37444
 Alpha  occ. eigenvalues --  -11.35310  -1.38237  -1.27856  -1.12301  -0.95740
 Alpha  occ. eigenvalues --   -0.83264  -0.66982  -0.65913  -0.65901  -0.57903
 Alpha  occ. eigenvalues --   -0.57406  -0.54973  -0.49710  -0.44002
 Alpha virt. eigenvalues --    0.00409   0.00437   0.04389   0.05736   0.07444
 Alpha virt. eigenvalues --    0.08020   0.08765   0.09313   0.09907   0.11050
 Alpha virt. eigenvalues --    0.11584   0.13406   0.14283   0.14341   0.16074

 Mulliken charges:
               1
     1  C    1.214209
     2  C   -0.372614
     3  C   -0.258265
     4  N    0.115937
     5  C   -1.445817
     6  N    0.746550
 Sum of Mulliken charges =  -0.00000

 Dipole moment (field-independent basis, Debye):
    X=             -1.4674    Y=              1.0228    Z=              0.0001  Tot=              1.7887

 Test job not archived.
 1\1\GINC-SE162\SP\RHF\Aug-CC-pVDZ\C4N2\OHZDE\09-Apr-2025\0\\#t hf aug-
 cc-pvdz iop(5/13=1,5/36=2,99/5=2) pseudo=read geom=check guess=(read,t
 check) scf=(maxcycle=1)\\title\\0,1\C,0,-0.17104195,0.00567534,0.25380
 426\C,0,0.78863322,0.01412632,1.14647768\C,0,2.24585223,-0.01582457,0.
 07100665\N,0,1.20292302,-0.02030007,-0.60631657\C,0,-1.4717854,0.00742
 01,-0.22123627\N,0,-2.57485213,0.00867087,-0.63142975\\Version=ES64L-G
 16RevC.01\State=1-A\HF=-260.3686601\RMSD=2.985e-02\Dipole=0.5086311,0.
 0047312,0.486333\Quadrupole=-5.9099224,3.3584314,2.5514911,0.0283591,-

 Normal termination of Gaussian 16 at Wed Apr  9 03:05:12 2025.
