 Gaussian 16, Revision C.01,

 ----------------------------------------------------------------------
 #t hf aug-cc-pvdz symm=none int=(grid=ultrafine) guess=(read,tcheck) s
 table=(opt,rrhf)
 ----------------------------------------------------------------------
 -----
 title
 -----
 Symbolic Z-matrix:
 Charge =  0 Multiplicity = 1

 SCF Done:  E(RHF) =  -273.001781304     A.U. after   15 cycles
 Normal termination of Gaussian 16 at Wed Apr  9 03:46:15 2025.
 Gaussian 16:  ES64L-G16RevC.01  3-Jul-2019

 ----------------------------------------------------------------------
 #t hf aug-cc-pvdz iop(5/13=1,5/36=2,99/5=2) pseudo=read geom=check gue
 ss=(read,tcheck) scf=(maxcycle=1)
 ----------------------------------------------------------------------
 -----
 title
 -----
 Structure from the checkpoint file:  "Grambow2020_wb97xd3_007785_forward_mol1.chk"
 Charge =  0 Multiplicity = 1

                         Standard orientation:
 ---------------------------------------------------------------------
 Center     Atomic      Atomic             Coordinates (Angstroms)
 Number     Number       Type             X           Y           Z
 ---------------------------------------------------------------------
      1          6           0       -0.944673    1.291327   -0.896002
      2          6           0       -0.474742    0.006247   -0.282542
      3          6           0       -0.940070   -1.266249   -0.926648
      4          6           0       -1.882152   -0.020446    1.375229
      5          6           0        0.789673   -0.000021    0.382137
      6          6           0        2.034859    0.759972    0.195616
      7          6           0        2.027885   -0.767265    0.176515
      8          1           0       -0.705221    2.139947   -0.257971
      9          1           0       -0.389744    1.413896   -1.831622
     10          1           0       -2.010381    1.284609   -1.120241
     11          1           0       -2.008105   -1.266405   -1.140177
     12          1           0       -0.394096   -1.358698   -1.871219
     13          1           0       -0.685360   -2.130911   -0.316206
     14          1           0       -1.814579    0.845694    2.039535
     15          1           0       -2.797715    0.032940    0.790262
     16          1           0       -1.854794   -0.955313    1.941627
     17          1           0       -0.439788   -0.007995    1.104301
     18          1           0        2.236282    1.249702   -0.754782
     19          1           0        2.492330    1.256497    1.045762
     20          1           0        2.482873   -1.291197    1.011615
     21          1           0        2.223614   -1.234157   -0.786719
 ---------------------------------------------------------------------

 SCF Done:  E(RHF) =  -273.307690684     A.U. after    2 cycles

 The electronic state is 1-A.
 Alpha  occ. eigenvalues --  -11.33102 -11.24687 -11.24674 -11.22065 -11.22032
 Alpha  occ. eigenvalues --  -11.20650 -11.18838  -1.15828  -1.08136  -0.96943
 Alpha  occ. eigenvalues --   -0.93069  -0.88414  -0.80719  -0.70918  -0.67025
 Alpha  occ. eigenvalues --   -0.65503  -0.61504  -0.61062  -0.57531  -0.57051
 Alpha  occ. eigenvalues --   -0.55137  -0.53764  -0.53233  -0.50175  -0.47642
 Alpha  occ. eigenvalues --   -0.42246  -0.41375  -0.25774
 Alpha virt. eigenvalues --    0.03057   0.03510   0.03652   0.04166   0.05699
 Alpha virt. eigenvalues --    0.05964   0.06183   0.06241   0.06536   0.08858
 Alpha virt. eigenvalues --    0.08931   0.09408   0.09654   0.09819   0.12116

 Mulliken charges:
               1
     1  C   -0.099747
     2  C   -1.480618
     3  C   -0.092715
     4  C   -0.537602
     5  C    0.068177
     6  C   -0.012749
     7  C   -0.026433
     8  H    0.256421
     9  H    0.244237
    10  H    0.171584
    11  H    0.177801
    12  H    0.247235
    13  H    0.250702
    14  H    0.104157
    15  H    0.009197
    16  H    0.109110
    17  H    1.004890
    18  H   -0.105551
    19  H   -0.091613
    20  H   -0.091982
    21  H   -0.104499
 Sum of Mulliken charges =  -0.00000

 Dipole moment (field-independent basis, Debye):
    X=             -1.1873    Y=              0.0327    Z=             -2.0573  Tot=              2.3756

 Test job not archived.
 1\1\GINC-SE115\SP\RHF\Aug-CC-pVDZ\C7H14\OHZDE\09-Apr-2025\0\\#t hf aug
 -cc-pvdz iop(5/13=1,5/36=2,99/5=2) pseudo=read geom=check guess=(read,
 tcheck) scf=(maxcycle=1)\\title\\0,1\C,0,-0.50621958,1.65871377,0.3054
 3964\C,0,-0.36139804,0.21803658,-0.08452821\C,0,-1.34084622,-0.3182422
 6,-1.08639466\C,0,-1.31567224,-0.62566765,1.67820976\C,0,0.94259005,-0
 .36362726,-0.04134932\C,0,2.29784179,0.17509372,-0.23092926\C,0,1.7903
 2177,-1.00362765,-1.05912289\H,0,0.12584444,1.89854431,1.15840701\H,0,
 -0.15325435,2.25105881,-0.5447938\H,0,-1.53798072,1.9343279,0.51890558

 Normal termination of Gaussian 16 at Wed Apr  9 03:46:25 2025.
