 Gaussian 16, Revision C.01,

 ----------------------------------------------------------------------
 #t hf aug-cc-pvdz symm=none int=(grid=ultrafine) guess=(read,tcheck) s
 table=(opt,rrhf)
 ----------------------------------------------------------------------
 -----
 title
 -----
 Symbolic Z-matrix:
 Charge =  0 Multiplicity = 1

 SCF Done:  E(RHF) =  -271.919997971     A.U. after   15 cycles
 Normal termination of Gaussian 16 at Wed Apr  9 03:39:55 2025.
 Gaussian 16:  ES64L-G16RevC.01  3-Jul-2019

 ----------------------------------------------------------------------
 #t hf aug-cc-pvdz iop(5/13=1,5/36=2,99/5=2) pseudo=read geom=check gue
 ss=(read,tcheck) scf=(maxcycle=1)
 ----------------------------------------------------------------------
 -----
 title
 -----
 Structure from the checkpoint file:  "Grambow2020_wb97xd3_007423_forward_mol1.chk"
 Charge =  0 Multiplicity = 1

                         Standard orientation:
 ---------------------------------------------------------------------
 Center     Atomic      Atomic             Coordinates (Angstroms)
 Number     Number       Type             X           Y           Z
 ---------------------------------------------------------------------
      1          6           0       -2.328608   -0.869662   -0.598695
      2          6           0       -1.082927    0.436266    0.777846
      3          6           0        0.088693   -0.466622    1.117791
      4          6           0        1.314021    0.045934    0.322828
      5          6           0        1.959050   -0.973341   -0.615151
      6          6           0        0.742589    1.226503   -0.409669
      7          6           0       -0.577438    1.358317   -0.227658
      8          1           0       -1.443928   -1.094387   -1.181722
      9          1           0       -2.760417   -1.767310   -0.156791
     10          1           0       -3.056788   -0.307620   -1.180323
     11          1           0       -2.180162   -0.153468    0.437401
     12          1           0        0.266368   -0.400240    2.194163
     13          1           0       -0.129571   -1.517477    0.917174
     14          1           0        2.077422    0.390781    1.028235
     15          1           0        1.228182   -1.357553   -1.331090
     16          1           0        2.358070   -1.820186   -0.052902
     17          1           0        2.781119   -0.529820   -1.181533
     18          1           0        1.359958    1.894433   -1.001423
     19          1           0       -1.192537    2.118480   -0.694941
 ---------------------------------------------------------------------

 SCF Done:  E(RHF) =  -272.216867780     A.U. after    2 cycles

 The electronic state is 1-A.
 Alpha  occ. eigenvalues --  -11.24554 -11.24395 -11.24340 -11.23866 -11.22934
 Alpha  occ. eigenvalues --  -11.22894 -11.22793  -1.15133  -1.01864  -0.97910
 Alpha  occ. eigenvalues --   -0.94223  -0.87668  -0.76704  -0.72396  -0.68555
 Alpha  occ. eigenvalues --   -0.63235  -0.59003  -0.58162  -0.57336  -0.55954
 Alpha  occ. eigenvalues --   -0.53975  -0.51327  -0.50638  -0.48673  -0.48226
 Alpha  occ. eigenvalues --   -0.39806  -0.28863
 Alpha virt. eigenvalues --    0.03378   0.03520   0.03719   0.04131   0.05288
 Alpha virt. eigenvalues --    0.05482   0.06033   0.06788   0.07802   0.08628
 Alpha virt. eigenvalues --    0.09015   0.09536   0.10482   0.11571   0.13036

 Mulliken charges:
               1
     1  C   -0.580892
     2  C   -0.739133
     3  C   -0.065428
     4  C   -0.773504
     5  C   -0.300578
     6  C    0.414995
     7  C    0.498824
     8  H    0.149308
     9  H    0.033867
    10  H    0.058706
    11  H    0.586827
    12  H    0.189793
    13  H    0.138048
    14  H    0.169946
    15  H    0.200077
    16  H    0.165057
    17  H    0.115689
    18  H   -0.136324
    19  H   -0.125281
 Sum of Mulliken charges =  -0.00000

 Dipole moment (field-independent basis, Debye):
    X=              1.1302    Y=             -0.7902    Z=             -1.2188  Tot=              1.8404

 Test job not archived.
 1\1\GINC-SE073\SP\RHF\Aug-CC-pVDZ\C7H12\OHZDE\09-Apr-2025\0\\#t hf aug
 -cc-pvdz iop(5/13=1,5/36=2,99/5=2) pseudo=read geom=check guess=(read,
 tcheck) scf=(maxcycle=1)\\title\\0,1\C,0,-2.34513507,-0.72514519,-0.11
 311075\C,0,-1.03132114,1.10803101,0.14260166\C,0,0.04430904,0.61291101
 ,1.0919899\C,0,1.33430946,0.40498294,0.26206666\C,0,1.9147703,-1.00804
 008,0.2970187\C,0,0.89301062,0.81587467,-1.11388782\C,0,-0.41504855,1.
 09549606,-1.1752704\H,0,-1.46637928,-1.32233061,-0.32343742\H,0,-2.868
 49376,-1.07519423,0.77631112\H,0,-3.00214956,-0.66471062,-0.97862119\H

 Normal termination of Gaussian 16 at Wed Apr  9 03:40:02 2025.
