 Gaussian 16, Revision C.01,

 ----------------------------------------------------------------------
 #t hf aug-cc-pvdz symm=none int=(grid=ultrafine) guess=(read,tcheck) s
 table=(opt,rrhf)
 ----------------------------------------------------------------------
 -----
 title
 -----
 Symbolic Z-matrix:
 Charge =  0 Multiplicity = 1

 SCF Done:  E(RHF) =  -307.732700824     A.U. after   15 cycles

 1\1\GINC-SE103\Stability\RHF\Aug-CC-pVDZ\C6H10O1\OHZDE\09-Apr-2025\0\\
 #t hf aug-cc-pvdz symm=none int=(grid=ultrafine) guess=(read,tcheck) s
 table=(opt,rrhf)\\title\\0,1\C,0,-2.06148301,-0.54277455,0.24952703\C,
 0,-0.83625475,-0.01228008,-0.45412337\O,0,-0.50667838,1.29611962,0.101
 39436\C,0,0.79991301,1.53332462,0.12383229\C,0,1.50311629,0.2248507,-0
 .02695807\C,0,1.09301714,-0.7658866,1.02736008\C,0,0.44016694,-0.80157
 233,-0.31689575\H,0,-2.88797792,0.16284291,0.16160771\H,0,-1.85732644,
 -0.71088742,1.30758741\H,0,-2.36866761,-1.48935136,-0.19777596\H,0,-1.

 Normal termination of Gaussian 16 at Wed Apr  9 17:57:54 2025.
 Gaussian 16:  ES64L-G16RevC.01  3-Jul-2019

 ----------------------------------------------------------------------
 #t hf aug-cc-pvdz iop(5/13=1,5/36=2,99/5=2) pseudo=read geom=check gue
 ss=(read,tcheck) scf=(maxcycle=1)
 ----------------------------------------------------------------------
 -----
 title
 -----
 Structure from the checkpoint file:  "Grambow2020_wb97xd3_006894_reverse_mol1.chk"
 Charge =  0 Multiplicity = 1

                         Standard orientation:
 ---------------------------------------------------------------------
 Center     Atomic      Atomic             Coordinates (Angstroms)
 Number     Number       Type             X           Y           Z
 ---------------------------------------------------------------------
      1          6           0        2.184753   -0.198288   -0.155314
      2          6           0        0.874210    0.207987    0.473294
      3          8           0        0.227325    1.192965   -0.387223
      4          6           0       -1.097649    1.103039   -0.369694
      5          6           0       -1.456053   -0.236477    0.184004
      6          6           0       -0.826164   -1.359752   -0.592412
      7          6           0       -0.170438   -0.862779    0.655607
      8          1           0        2.813347    0.675883   -0.326820
      9          1           0        2.017037   -0.699942   -1.109069
     10          1           0        2.719863   -0.882093    0.505381
     11          1           0        1.047138    0.712943    1.432918
     12          1           0       -1.547226    1.961660    1.104005
     13          1           0       -1.679677    2.082769    0.201185
     14          1           0       -2.408790   -0.382029    0.671314
     15          1           0       -0.379604   -1.133990   -1.553931
     16          1           0       -1.325102   -2.317803   -0.539810
     17          1           0       -0.127544   -1.483506    1.539697
 ---------------------------------------------------------------------

 SCF Done:  E(RHF) =  -308.058233572     A.U. after    2 cycles

 The electronic state is 1-A.
 Alpha  occ. eigenvalues --  -20.57770 -11.30822 -11.30158 -11.24895 -11.24814
 Alpha  occ. eigenvalues --  -11.24769 -11.23434  -1.51390  -1.17456  -1.05640
 Alpha  occ. eigenvalues --   -0.92488  -0.89409  -0.80581  -0.77564  -0.74418
 Alpha  occ. eigenvalues --   -0.66232  -0.65213  -0.62151  -0.59130  -0.57927
 Alpha  occ. eigenvalues --   -0.55211  -0.52759  -0.50621  -0.47217  -0.44626
 Alpha  occ. eigenvalues --   -0.43746  -0.31659
 Alpha virt. eigenvalues --    0.03005   0.03558   0.03694   0.04402   0.05848
 Alpha virt. eigenvalues --    0.06056   0.06535   0.06868   0.07416   0.09479
 Alpha virt. eigenvalues --    0.11655   0.11946   0.13228   0.13268   0.13642

 Mulliken charges:
               1
     1  C   -0.361691
     2  C    0.424451
     3  O   -1.363423
     4  C    0.187047
     5  C    0.555451
     6  C    0.118510
     7  C    0.387380
     8  H    0.158824
     9  H    0.200640
    10  H    0.203550
    11  H    0.055384
    12  H   -0.040217
    13  H    0.188686
    14  H   -0.230749
    15  H   -0.120384
    16  H   -0.141891
    17  H   -0.221569
 Sum of Mulliken charges =  -0.00000

 Dipole moment (field-independent basis, Debye):
    X=              0.7986    Y=             -2.3735    Z=              1.4477  Tot=              2.8926

 Test job not archived.
 1\1\GINC-SE103\SP\RHF\Aug-CC-pVDZ\C6H10O1\OHZDE\09-Apr-2025\0\\#t hf a
 ug-cc-pvdz iop(5/13=1,5/36=2,99/5=2) pseudo=read geom=check guess=(rea
 d,tcheck) scf=(maxcycle=1)\\title\\0,1\C,0,-2.06148301,-0.54277455,0.2
 4952703\C,0,-0.83625475,-0.01228008,-0.45412337\O,0,-0.50667838,1.2961
 1962,0.10139436\C,0,0.79991301,1.53332462,0.12383229\C,0,1.50311629,0.
 2248507,-0.02695807\C,0,1.09301714,-0.7658866,1.02736008\C,0,0.4401669
 4,-0.80157233,-0.31689575\H,0,-2.88797792,0.16284291,0.16160771\H,0,-1
 .85732644,-0.71088742,1.30758741\H,0,-2.36866761,-1.48935136,-0.197775

 Normal termination of Gaussian 16 at Wed Apr  9 17:58:01 2025.
