 Gaussian 16, Revision C.01,

 ----------------------------------------------------------------------
 #t hf aug-cc-pvdz symm=none int=(grid=ultrafine) guess=(read,tcheck) s
 table=(opt,rrhf)
 ----------------------------------------------------------------------
 -----
 title
 -----
 Symbolic Z-matrix:
 Charge =  0 Multiplicity = 1

 SCF Done:  E(RHF) =  -358.344465210     A.U. after   15 cycles
 Normal termination of Gaussian 16 at Wed Apr  9 03:40:14 2025.
 Gaussian 16:  ES64L-G16RevC.01  3-Jul-2019

 ----------------------------------------------------------------------
 #t hf aug-cc-pvdz iop(5/13=1,5/36=2,99/5=2) pseudo=read geom=check gue
 ss=(read,tcheck) scf=(maxcycle=1)
 ----------------------------------------------------------------------
 -----
 title
 -----
 Structure from the checkpoint file:  "Grambow2020_wb97xd3_007454_reverse_mol1.chk"
 Charge =  0 Multiplicity = 1

                         Standard orientation:
 ---------------------------------------------------------------------
 Center     Atomic      Atomic             Coordinates (Angstroms)
 Number     Number       Type             X           Y           Z
 ---------------------------------------------------------------------
      1          8           0       -1.572114   -0.066149   -0.725358
      2          6           0       -2.002021    0.215353    0.792373
      3          6           0       -0.294908    0.027310   -0.108893
      4          7           0        0.351765   -1.108166   -0.008714
      5          8           0        1.684773   -0.744507    0.183516
      6          6           0        1.778152    0.581855    0.070666
      7          6           0        0.583448    1.155155   -0.149224
      8          1           0       -1.690306   -0.985902   -1.019548
      9          1           0       -2.828910    0.918036    0.683275
     10          1           0       -2.330902   -0.758416    1.155527
     11          1           0        2.769082    0.994703    0.180172
     12          1           0        0.329375    2.195953   -0.233225
 ---------------------------------------------------------------------

 SCF Done:  E(RHF) =  -358.703460408     A.U. after    2 cycles

 The electronic state is 1-A.
 Alpha  occ. eigenvalues --  -20.67674 -20.61658 -15.52895 -11.38082 -11.32387
 Alpha  occ. eigenvalues --  -11.26581 -11.24721  -1.59505  -1.56061  -1.17811
 Alpha  occ. eigenvalues --   -1.08345  -0.93502  -0.87130  -0.85494  -0.76573
 Alpha  occ. eigenvalues --   -0.72811  -0.67833  -0.66835  -0.62870  -0.60946
 Alpha  occ. eigenvalues --   -0.56671  -0.54964  -0.51766  -0.46080  -0.39582
 Alpha  occ. eigenvalues --   -0.31618
 Alpha virt. eigenvalues --    0.03190   0.03657   0.04245   0.05074   0.06183
 Alpha virt. eigenvalues --    0.08975   0.10110   0.10634   0.11212   0.12669
 Alpha virt. eigenvalues --    0.12986   0.13878   0.14159   0.15153   0.15585

 Mulliken charges:
               1
     1  O   -1.314243
     2  C   -0.081269
     3  C    0.097014
     4  N    1.171930
     5  O   -1.462365
     6  C    0.739825
     7  C    0.710227
     8  H    0.314654
     9  H   -0.044945
    10  H    0.033918
    11  H   -0.035823
    12  H   -0.128922
 Sum of Mulliken charges =   0.00000

 Dipole moment (field-independent basis, Debye):
    X=             -1.2300    Y=              2.0628    Z=             -1.5700  Tot=              2.8693

 Test job not archived.
 1\1\GINC-SE044\SP\RHF\Aug-CC-pVDZ\C4H5N1O2\OHZDE\09-Apr-2025\0\\#t hf
 aug-cc-pvdz iop(5/13=1,5/36=2,99/5=2) pseudo=read geom=check guess=(re
 ad,tcheck) scf=(maxcycle=1)\\title\\0,1\O,0,-1.40402081,0.49611138,0.4
 2815945\C,0,-1.59430999,-0.98502795,-0.15286344\C,0,-0.08723281,0.2302
 6274,-0.03596662\N,0,0.2663245,0.90422163,-1.10288012\O,0,1.6602687,0.
 85030756,-1.11398477\C,0,2.06571423,0.24938098,0.00636896\C,0,1.033205
 47,-0.14735064,0.76851832\H,0,-1.77462785,1.20359562,-0.12734041\H,0,-
 2.22914599,-1.45919664,0.59650764\H,0,-2.11430575,-0.82986762,-1.09827

 Normal termination of Gaussian 16 at Wed Apr  9 03:40:18 2025.
