 Gaussian 16, Revision C.01,

 ----------------------------------------------------------------------
 #t hf aug-cc-pvdz symm=none int=(grid=ultrafine) guess=(read,tcheck) s
 table=(opt,rrhf)
 ----------------------------------------------------------------------
 -----
 title
 -----
 Symbolic Z-matrix:
 Charge =  0 Multiplicity = 1

 SCF Done:  E(RHF) =  -358.572834171     A.U. after   14 cycles
 Normal termination of Gaussian 16 at Wed Apr  9 03:34:08 2025.
 Gaussian 16:  ES64L-G16RevC.01  3-Jul-2019

 ----------------------------------------------------------------------
 #t hf aug-cc-pvdz iop(5/13=1,5/36=2,99/5=2) pseudo=read geom=check gue
 ss=(read,tcheck) scf=(maxcycle=1)
 ----------------------------------------------------------------------
 -----
 title
 -----
 Structure from the checkpoint file:  "Grambow2020_wb97xd3_007062_forward_mol2.chk"
 Charge =  0 Multiplicity = 1

                         Standard orientation:
 ---------------------------------------------------------------------
 Center     Atomic      Atomic             Coordinates (Angstroms)
 Number     Number       Type             X           Y           Z
 ---------------------------------------------------------------------
      1          8           0       -2.199023   -0.310661   -0.009686
      2          6           0       -1.022536   -0.048346   -0.060832
      3          7           0       -0.447069    1.169348    0.146426
      4          6           0        0.984172    1.233054   -0.069897
      5          6           0        1.343107   -0.208927   -0.357144
      6          8           0        1.034962   -1.078669    0.713319
      7          6           0        0.115263   -0.996566   -0.371415
      8          1           0       -0.989954    1.935857    0.502037
      9          1           0        1.515267    1.604133    0.810455
     10          1           0        1.234397    1.866365   -0.926210
     11          1           0        2.222414   -0.455350   -0.939686
     12          1           0       -0.060192   -1.897086   -0.944916
 ---------------------------------------------------------------------

 SCF Done:  E(RHF) =  -358.931655671     A.U. after    2 cycles

 The electronic state is 1-A.
 Alpha  occ. eigenvalues --  -20.58627 -20.51928 -15.53466 -11.36511 -11.32158
 Alpha  occ. eigenvalues --  -11.31511 -11.30106  -1.53425  -1.46821  -1.26731
 Alpha  occ. eigenvalues --   -1.02822  -0.99690  -0.86414  -0.84167  -0.74632
 Alpha  occ. eigenvalues --   -0.70416  -0.67640  -0.65621  -0.63767  -0.60274
 Alpha  occ. eigenvalues --   -0.59170  -0.53417  -0.48350  -0.48062  -0.42786
 Alpha  occ. eigenvalues --   -0.41499
 Alpha virt. eigenvalues --    0.02780   0.03580   0.04343   0.04576   0.05885
 Alpha virt. eigenvalues --    0.08834   0.09566   0.10231   0.11232   0.12292
 Alpha virt. eigenvalues --    0.13880   0.14159   0.14377   0.14733   0.15286

 Mulliken charges:
               1
     1  O   -1.225170
     2  C    0.508566
     3  N    0.627688
     4  C   -0.205378
     5  C    0.825979
     6  O   -1.321027
     7  C    0.479950
     8  H    0.060807
     9  H    0.143248
    10  H    0.112347
    11  H    0.018562
    12  H   -0.025571
 Sum of Mulliken charges =  -0.00000

 Dipole moment (field-independent basis, Debye):
    X=              3.5845    Y=              2.3162    Z=             -1.6064  Tot=              4.5601

 Test job not archived.
 1\1\GINC-SE453\SP\RHF\Aug-CC-pVDZ\C4H5N1O2\OHZDE\09-Apr-2025\0\\#t hf
 aug-cc-pvdz iop(5/13=1,5/36=2,99/5=2) pseudo=read geom=check guess=(re
 ad,tcheck) scf=(maxcycle=1)\\title\\0,1\O,0,0.9811392,2.30276394,0.587
 30453\C,0,0.52757298,1.2193162,0.31168891\N,0,1.22109105,0.1293233,-0.
 12172321\C,0,0.42034415,-1.02539727,-0.47489174\C,0,-0.97870332,-0.590
 50588,-0.09516691\O,0,-1.10967642,-0.28965325,1.27947078\C,0,-0.922676
 9,0.79093592,0.37029926\H,0,2.22539093,0.12710421,-0.11190713\H,0,0.72
 079342,-1.91749503,0.08069267\H,0,0.47522492,-1.24135909,-1.54602017\H

 Normal termination of Gaussian 16 at Wed Apr  9 03:34:13 2025.
