 Gaussian 16, Revision C.01,

 ----------------------------------------------------------------------
 #t hf aug-cc-pvdz symm=none int=(grid=ultrafine) guess=(read,tcheck) s
 table=(opt,rrhf)
 ----------------------------------------------------------------------
 -----
 title
 -----
 Symbolic Z-matrix:
 Charge =  0 Multiplicity = 1

 SCF Done:  E(RHF) =  -338.779820998     A.U. after   14 cycles
 Normal termination of Gaussian 16 at Wed Apr  9 19:05:47 2025.
 Gaussian 16:  ES64L-G16RevC.01  3-Jul-2019

 ----------------------------------------------------------------------
 #t hf aug-cc-pvdz iop(5/13=1,5/36=2,99/5=2) pseudo=read geom=check gue
 ss=(read,tcheck) scf=(maxcycle=1)
 ----------------------------------------------------------------------
 -----
 title
 -----
 Structure from the checkpoint file:  "Grambow2020_wb97xd3_008559_reverse_mol2.chk"
 Charge =  0 Multiplicity = 1

                         Standard orientation:
 ---------------------------------------------------------------------
 Center     Atomic      Atomic             Coordinates (Angstroms)
 Number     Number       Type             X           Y           Z
 ---------------------------------------------------------------------
      1          7           0       -1.337413    0.913638    0.031616
      2          6           0       -2.242223   -0.091527    0.095954
      3          8           0       -2.007362   -1.236981   -0.210050
      4          6           0        0.008763    0.694114   -0.445639
      5          6           0        0.869682   -0.039881    0.591895
      6          6           0        2.244348   -0.193488    0.127794
      7          7           0        3.320024   -0.290587   -0.258091
      8          1           0       -1.619762    1.833349    0.317632
      9          1           0       -3.229086    0.241629    0.461041
     10          1           0        0.451168    1.659845   -0.688467
     11          1           0       -0.029949    0.101768   -1.361034
     12          1           0        0.880235    0.509487    1.535546
     13          1           0        0.444597   -1.026895    0.780984
 ---------------------------------------------------------------------

 SCF Done:  E(RHF) =  -339.120735839     A.U. after    2 cycles

 The electronic state is 1-A.
 Alpha  occ. eigenvalues --  -20.53372 -15.55499 -15.51365 -11.37683 -11.30947
 Alpha  occ. eigenvalues --  -11.29430 -11.28234  -1.48385  -1.27479  -1.23922
 Alpha  occ. eigenvalues --   -1.09070  -0.95963  -0.85334  -0.79303  -0.72999
 Alpha  occ. eigenvalues --   -0.68757  -0.67030  -0.64070  -0.62821  -0.59844
 Alpha  occ. eigenvalues --   -0.57841  -0.55827  -0.50300  -0.49556  -0.44960
 Alpha  occ. eigenvalues --   -0.44232
 Alpha virt. eigenvalues --    0.01813   0.03927   0.04078   0.05135   0.06181
 Alpha virt. eigenvalues --    0.06399   0.08129   0.09068   0.10027   0.12036
 Alpha virt. eigenvalues --    0.12423   0.13259   0.14109   0.14632   0.15150

 Mulliken charges:
               1
     1  N    0.652567
     2  C    0.579237
     3  O   -1.075075
     4  C   -0.647282
     5  C    0.299018
     6  C   -1.644449
     7  N    0.937823
     8  H    0.219034
     9  H    0.076603
    10  H    0.048481
    11  H    0.107358
    12  H    0.222449
    13  H    0.224236
 Sum of Mulliken charges =  -0.00000

 Dipole moment (field-independent basis, Debye):
    X=             -4.3093    Y=              4.1463    Z=              2.0113  Tot=              6.3093

 Test job not archived.
 1\1\GINC-SE220\SP\RHF\Aug-CC-pVDZ\C4H6N2O1\OHZDE\09-Apr-2025\0\\#t hf
 aug-cc-pvdz iop(5/13=1,5/36=2,99/5=2) pseudo=read geom=check guess=(re
 ad,tcheck) scf=(maxcycle=1)\\title\\0,1\N,0,-1.32563744,0.18752686,0.0
 2795022\C,0,-1.64429648,-0.35557669,1.22656398\O,0,-0.95999814,-1.1637
 7669,1.80915355\C,0,-0.12241405,-0.18665438,-0.67943569\C,0,1.1296664,
 0.43384404,-0.04407489\C,0,2.32953581,0.10688752,-0.80703374\N,0,3.254
 26209,-0.15700819,-1.43205545\H,0,-1.95075572,0.86098638,-0.37587407\H
 ,0,-2.60318869,0.01757756,1.62588935\H,0,-0.21769754,0.13316157,-1.716

 Normal termination of Gaussian 16 at Wed Apr  9 19:05:51 2025.
