 Gaussian 16, Revision C.01,

 ----------------------------------------------------------------------
 #t hf aug-cc-pvdz symm=none int=(grid=ultrafine) guess=(read,tcheck) s
 table=(opt,rrhf)
 ----------------------------------------------------------------------
 -----
 title
 -----
 Symbolic Z-matrix:
 Charge =  0 Multiplicity = 1

 SCF Done:  E(RHF) =  -359.512385009     A.U. after   16 cycles
 Normal termination of Gaussian 16 at Wed Apr  9 18:56:45 2025.
 Gaussian 16:  ES64L-G16RevC.01  3-Jul-2019

 ----------------------------------------------------------------------
 #t hf aug-cc-pvdz iop(5/13=1,5/36=2,99/5=2) pseudo=read geom=check gue
 ss=(read,tcheck) scf=(maxcycle=1)
 ----------------------------------------------------------------------
 -----
 title
 -----
 Structure from the checkpoint file:  "Grambow2020_wb97xd3_008374_forward_mol1.chk"
 Charge =  0 Multiplicity = 1

                         Standard orientation:
 ---------------------------------------------------------------------
 Center     Atomic      Atomic             Coordinates (Angstroms)
 Number     Number       Type             X           Y           Z
 ---------------------------------------------------------------------
      1          8           0       -0.055333    1.589088   -0.049091
      2          6           0       -0.519684    0.510749    0.502510
      3          6           0       -1.909523    0.052395    0.110088
      4          7           0       -1.138344   -0.983198   -0.707784
      5          6           0       -0.012526   -0.826278    0.312032
      6          6           0        1.512756   -0.661602    0.267722
      7          8           0        2.025190    0.152791   -0.504556
      8          1           0        0.901923    1.402379   -0.266921
      9          1           0        0.893027    0.249162    1.748734
     10          1           0       -2.521540    0.749858   -0.458171
     11          1           0       -2.475455   -0.445447    0.892508
     12          1           0       -0.864585   -0.543171   -1.583117
     13          1           0       -0.270242   -1.483075    1.138745
     14          1           0        2.120290   -1.433936    0.757771
 ---------------------------------------------------------------------

 SCF Done:  E(RHF) =  -359.874373436     A.U. after    2 cycles

 The electronic state is 1-A.
 Alpha  occ. eigenvalues --  -20.62532 -20.53727 -15.55084 -11.40651 -11.36756
 Alpha  occ. eigenvalues --  -11.32625 -11.31077  -1.56582  -1.47008  -1.29702
 Alpha  occ. eigenvalues --   -1.04402  -0.99811  -0.86909  -0.85136  -0.76968
 Alpha  occ. eigenvalues --   -0.72436  -0.69392  -0.66997  -0.64411  -0.61645
 Alpha  occ. eigenvalues --   -0.60115  -0.57319  -0.55398  -0.53310  -0.48470
 Alpha  occ. eigenvalues --   -0.41920  -0.30648
 Alpha virt. eigenvalues --    0.02892   0.03675   0.04327   0.04641   0.05318
 Alpha virt. eigenvalues --    0.06131   0.06577   0.07891   0.08737   0.10485
 Alpha virt. eigenvalues --    0.11972   0.12399   0.13425   0.13766   0.14631

 Mulliken charges:
               1
     1  O   -1.328919
     2  C    1.516401
     3  C   -0.163092
     4  N    0.379278
     5  C   -1.091220
     6  C    1.171856
     7  O   -1.319080
     8  H    0.416844
     9  H   -0.046764
    10  H    0.037813
    11  H    0.040226
    12  H    0.335578
    13  H    0.015801
    14  H    0.035278
 Sum of Mulliken charges =  -0.00000

 Dipole moment (field-independent basis, Debye):
    X=             -3.2476    Y=             -0.7358    Z=             -0.5251  Tot=              3.3710

 Test job not archived.
 1\1\GINC-SE028\SP\RHF\Aug-CC-pVDZ\C4H7N1O2\OHZDE\09-Apr-2025\0\\#t hf
 aug-cc-pvdz iop(5/13=1,5/36=2,99/5=2) pseudo=read geom=check guess=(re
 ad,tcheck) scf=(maxcycle=1)\\title\\0,1\O,0,-0.84129882,-0.4285481,1.4
 3484957\C,0,-0.75071394,-0.2359465,0.15523981\C,0,-1.36509356,1.023930
 24,-0.42007059\N,0,0.09095502,1.48368992,-0.48808926\C,0,0.46492256,0.
 00609602,-0.58284865\C,0,1.50356793,-0.92147326,0.06244069\O,0,1.67952
 92,-0.89914999,1.283415\H,0,0.04615532,-0.78195405,1.72841231\H,0,-0.0
 0338441,-1.92689148,-0.29136917\H,0,-2.01800895,1.60135944,0.23124703\

 Normal termination of Gaussian 16 at Wed Apr  9 18:56:50 2025.
