 Gaussian 16, Revision C.01,

 ----------------------------------------------------------------------
 #t hf aug-cc-pvdz symm=none int=(grid=ultrafine) guess=(read,tcheck) s
 table=(opt,rrhf)
 ----------------------------------------------------------------------
 -----
 title
 -----
 Symbolic Z-matrix:
 Charge =  0 Multiplicity = 1

 SCF Done:  E(RHF) =  -272.054268943     A.U. after   13 cycles
 Normal termination of Gaussian 16 at Wed Apr  9 03:40:48 2025.
 Gaussian 16:  ES64L-G16RevC.01  3-Jul-2019

 ----------------------------------------------------------------------
 #t hf aug-cc-pvdz iop(5/13=1,5/36=2,99/5=2) pseudo=read geom=check gue
 ss=(read,tcheck) scf=(maxcycle=1)
 ----------------------------------------------------------------------
 -----
 title
 -----
 Structure from the checkpoint file:  "Grambow2020_wb97xd3_007442_reverse_mol2.chk"
 Charge =  0 Multiplicity = 1

                         Standard orientation:
 ---------------------------------------------------------------------
 Center     Atomic      Atomic             Coordinates (Angstroms)
 Number     Number       Type             X           Y           Z
 ---------------------------------------------------------------------
      1          6           0       -3.091102    0.859991    0.041658
      2          6           0       -2.078305   -0.235441    0.151113
      3          6           0       -0.854329   -0.193792   -0.356395
      4          6           0        2.498512    1.402267    0.130832
      5          6           0        2.222265    0.176289   -0.285938
      6          6           0        1.443807   -0.845186    0.485072
      7          6           0        0.159168   -1.289863   -0.232144
      8          1           0       -3.994874    0.512599   -0.466054
      9          1           0       -2.694050    1.711162   -0.513305
     10          1           0       -3.398596    1.211524    1.030181
     11          1           0       -2.388711   -1.128716    0.691396
     12          1           0       -0.280698   -2.133191    0.306308
     13          1           0       -0.536509    0.699457   -0.891506
     14          1           0        2.165674    1.757854    1.100656
     15          1           0        3.065840    2.095539   -0.478474
     16          1           0        2.570515   -0.136390   -1.269255
     17          1           0        2.074642   -1.726486    0.641904
     18          1           0        1.191182   -0.449435    1.472463
     19          1           0        0.425493   -1.659498   -1.229498
 ---------------------------------------------------------------------

 SCF Done:  E(RHF) =  -272.353018576     A.U. after    2 cycles

 The electronic state is 1-A.
 Alpha  occ. eigenvalues --  -11.23804 -11.23284 -11.23233 -11.22896 -11.22683
 Alpha  occ. eigenvalues --  -11.22651 -11.22405  -1.10453  -1.06228  -1.00031
 Alpha  occ. eigenvalues --   -0.92768  -0.84533  -0.76554  -0.74609  -0.65591
 Alpha  occ. eigenvalues --   -0.63223  -0.61515  -0.59528  -0.57324  -0.56380
 Alpha  occ. eigenvalues --   -0.53230  -0.51963  -0.50930  -0.48362  -0.47633
 Alpha  occ. eigenvalues --   -0.37127  -0.34953
 Alpha virt. eigenvalues --    0.03437   0.03630   0.04002   0.04099   0.05497
 Alpha virt. eigenvalues --    0.05874   0.05989   0.06589   0.07085   0.08274
 Alpha virt. eigenvalues --    0.08863   0.10038   0.11126   0.12131   0.12924

 Mulliken charges:
               1
     1  C   -0.755373
     2  C    0.047710
     3  C    0.914975
     4  C   -0.142608
     5  C    0.838883
     6  C   -0.651936
     7  C   -0.550309
     8  H    0.230746
     9  H    0.094209
    10  H    0.238242
    11  H   -0.208877
    12  H    0.063926
    13  H   -0.198356
    14  H   -0.097638
    15  H   -0.108925
    16  H   -0.173672
    17  H    0.212790
    18  H    0.060409
    19  H    0.185806
 Sum of Mulliken charges =  -0.00000

 Dipole moment (field-independent basis, Debye):
    X=             -0.1917    Y=             -0.2880    Z=              0.0420  Tot=              0.3485

 Test job not archived.
 1\1\GINC-SE090\SP\RHF\Aug-CC-pVDZ\C7H12\OHZDE\09-Apr-2025\0\\#t hf aug
 -cc-pvdz iop(5/13=1,5/36=2,99/5=2) pseudo=read geom=check guess=(read,
 tcheck) scf=(maxcycle=1)\\title\\0,1\C,0,2.99687152,0.11130286,-0.8589
 1041\C,0,1.67775092,-0.58695211,-0.95926192\C,0,0.714922,-0.52915127,-
 0.04984565\C,0,-1.89351033,1.76081688,1.35673249\C,0,-1.95771069,0.450
 66965,1.17666832\C,0,-1.80080066,-0.25114494,-0.13737132\C,0,-0.608825
 ,-1.22118669,-0.16283493\H,0,3.82440684,-0.60262017,-0.88635135\H,0,3.
 07128423,0.68413364,0.06653783\H,0,3.14318099,0.79789813,-1.69705497\H

 Normal termination of Gaussian 16 at Wed Apr  9 03:40:55 2025.
