 Gaussian 16, Revision C.01,

 ----------------------------------------------------------------------
 #t hf aug-cc-pvdz symm=none int=(grid=ultrafine) guess=(read,tcheck) s
 table=(opt,rrhf)
 ----------------------------------------------------------------------
 -----
 title
 -----
 Symbolic Z-matrix:
 Charge =  0 Multiplicity = 1

 SCF Done:  E(RHF) =  -193.971429707     A.U. after   13 cycles
 Normal termination of Gaussian 16 at Wed Apr  9 03:06:44 2025.
 Gaussian 16:  ES64L-G16RevC.01  3-Jul-2019

 ----------------------------------------------------------------------
 #t hf aug-cc-pvdz iop(5/13=1,5/36=2,99/5=2) pseudo=read geom=check gue
 ss=(read,tcheck) scf=(maxcycle=1)
 ----------------------------------------------------------------------
 -----
 title
 -----
 Structure from the checkpoint file:  "Grambow2020_b97d3_006545_reverse_mol2.chk"
 Charge =  0 Multiplicity = 1

                         Standard orientation:
 ---------------------------------------------------------------------
 Center     Atomic      Atomic             Coordinates (Angstroms)
 Number     Number       Type             X           Y           Z
 ---------------------------------------------------------------------
      1          6           0       -2.059387   -0.429927   -0.277098
      2          6           0        1.411711    0.385080   -0.087813
      3          6           0        0.019334    0.978522   -0.007048
      4          6           0       -1.038867    0.019063    0.467256
      5          6           0        1.706332   -0.922386   -0.047247
      6          1           0       -2.795808   -1.129064    0.120835
      7          1           0       -2.194590   -0.107954   -1.311814
      8          1           0        2.221679    1.112163   -0.199860
      9          1           0       -0.258060    1.385312   -0.994852
     10          1           0        0.054199    1.848738    0.672977
     11          1           0       -0.926299   -0.337039    1.495637
     12          1           0        2.735731   -1.273668   -0.122716
     13          1           0        0.928410   -1.680594    0.051496
 ---------------------------------------------------------------------

 SCF Done:  E(RHF) =  -194.181444985     A.U. after    2 cycles

 The electronic state is 1-A.
 Alpha  occ. eigenvalues --  -11.24726 -11.24654 -11.24616 -11.23553 -11.23217
 Alpha  occ. eigenvalues --   -1.09557  -1.02296  -0.93054  -0.79272  -0.73778
 Alpha  occ. eigenvalues --   -0.65071  -0.64902  -0.60538  -0.57162  -0.54508
 Alpha  occ. eigenvalues --   -0.51267  -0.48764  -0.37439  -0.36444
 Alpha virt. eigenvalues --    0.03717   0.03993   0.04317   0.04450   0.05951
 Alpha virt. eigenvalues --    0.06780   0.07063   0.07559   0.10522   0.11911
 Alpha virt. eigenvalues --    0.12779   0.13762   0.14654   0.15231   0.15656

 Mulliken charges:
               1
     1  C   -0.209625
     2  C    0.545075
     3  C   -0.870268
     4  C    0.883523
     5  C   -0.259592
     6  H   -0.075554
     7  H   -0.054089
     8  H   -0.164768
     9  H    0.189668
    10  H    0.263191
    11  H   -0.141969
    12  H   -0.092574
    13  H   -0.013018
 Sum of Mulliken charges =  -0.00000

 Dipole moment (field-independent basis, Debye):
    X=              0.0482    Y=              0.3551    Z=              0.0024  Tot=              0.3583

 Test job not archived.
 1\1\GINC-SE435\SP\RHF\Aug-CC-pVDZ\C5H8\OHZDE\09-Apr-2025\0\\#t hf aug-
 cc-pvdz iop(5/13=1,5/36=2,99/5=2) pseudo=read geom=check guess=(read,t
 check) scf=(maxcycle=1)\\title\\0,1\C,0,-1.10545599,1.41701575,-1.0945
 6767\C,0,0.5908629,-0.96268761,0.95679783\C,0,-0.61176588,-0.77778857,
 0.05296951\C,0,-0.42920106,0.26193448,-1.0198594\C,0,1.63335181,-0.124
 55073,1.04984181\H,0,-0.92735419,2.13543674,-1.89557341\H,0,-1.8656858
 5,1.68076876,-0.35628041\H,0,0.56971967,-1.8606831,1.58162575\H,0,-1.4
 9287456,-0.53023035,0.66985305\H,0,-0.84270547,-1.75068694,-0.41720188

 Normal termination of Gaussian 16 at Wed Apr  9 03:06:48 2025.
