 Gaussian 16, Revision C.01,

 ----------------------------------------------------------------------
 #t hf aug-cc-pvdz symm=none int=(grid=ultrafine) guess=(read,tcheck) s
 table=(opt,rrhf)
 ----------------------------------------------------------------------
 -----
 title
 -----
 Symbolic Z-matrix:
 Charge =  0 Multiplicity = 1

 SCF Done:  E(RHF) =  -322.530184965     A.U. after   15 cycles
 Normal termination of Gaussian 16 at Wed Apr  9 03:52:39 2025.
 Gaussian 16:  ES64L-G16RevC.01  3-Jul-2019

 ----------------------------------------------------------------------
 #t hf aug-cc-pvdz iop(5/13=1,5/36=2,99/5=2) pseudo=read geom=check gue
 ss=(read,tcheck) scf=(maxcycle=1)
 ----------------------------------------------------------------------
 -----
 title
 -----
 Structure from the checkpoint file:  "Grambow2020_wb97xd3_008263_forward_mol1.chk"
 Charge =  0 Multiplicity = 1

                         Standard orientation:
 ---------------------------------------------------------------------
 Center     Atomic      Atomic             Coordinates (Angstroms)
 Number     Number       Type             X           Y           Z
 ---------------------------------------------------------------------
      1          6           0       -1.402941    1.189766    0.183734
      2          6           0       -0.158435    0.337641   -0.991157
      3          7           0       -0.746458   -1.023004   -0.947114
      4          6           0       -0.950223   -0.594808    0.389515
      5          6           0        0.369352   -0.567205    1.144240
      6          6           0        1.038675    0.150174   -0.024585
      7          8           0        2.177518    0.455999   -0.210353
      8          1           0       -1.721217    1.192228    1.232457
      9          1           0       -2.270876    1.242292   -0.465417
     10          1           0       -0.801212    2.086595    0.068119
     11          1           0       -0.022407   -1.733546   -1.000894
     12          1           0       -1.898687   -0.866832    0.833055
     13          1           0        0.760915   -1.555121    1.394576
     14          1           0        0.379978    0.054014    2.040254
 ---------------------------------------------------------------------

 SCF Done:  E(RHF) =  -322.862015132     A.U. after    2 cycles

 The electronic state is 1-A.
 Alpha  occ. eigenvalues --  -20.55439 -15.52643 -11.34657 -11.34442 -11.29463
 Alpha  occ. eigenvalues --  -11.28420 -11.27298  -1.49095  -1.31296  -1.07205
 Alpha  occ. eigenvalues --   -0.99292  -0.93256  -0.84873  -0.74842  -0.71016
 Alpha  occ. eigenvalues --   -0.69507  -0.66039  -0.63223  -0.60335  -0.58064
 Alpha  occ. eigenvalues --   -0.57605  -0.52339  -0.49906  -0.48946  -0.41945
 Alpha  occ. eigenvalues --   -0.33790
 Alpha virt. eigenvalues --    0.02373   0.03465   0.03800   0.04213   0.06045
 Alpha virt. eigenvalues --    0.06560   0.06755   0.08761   0.09214   0.10613
 Alpha virt. eigenvalues --    0.12062   0.12833   0.13459   0.13882   0.14521

 Mulliken charges:
               1
     1  C   -0.086375
     2  C   -0.722307
     3  N    0.545741
     4  C   -0.957721
     5  C   -0.129526
     6  C    1.639728
     7  O   -1.306314
     8  H    0.090379
     9  H    0.190758
    10  H    0.148091
    11  H    0.402663
    12  H   -0.062397
    13  H    0.080407
    14  H    0.166871
 Sum of Mulliken charges =  -0.00000

 Dipole moment (field-independent basis, Debye):
    X=             -2.4678    Y=             -1.4339    Z=              3.9860  Tot=              4.9025

 Test job not archived.
 1\1\GINC-SE108\SP\RHF\Aug-CC-pVDZ\C5H7N1O1\OHZDE\09-Apr-2025\0\\#t hf
 aug-cc-pvdz iop(5/13=1,5/36=2,99/5=2) pseudo=read geom=check guess=(re
 ad,tcheck) scf=(maxcycle=1)\\title\\0,1\C,0,-1.47155957,0.39975556,0.3
 4242705\C,0,-0.5424697,-1.11172706,-0.36995763\N,0,0.31939546,-1.38466
 542,0.80552526\C,0,0.28053587,0.03298827,0.81955243\C,0,1.11105139,0.5
 9730991,-0.32212879\C,0,0.47340244,-0.39210454,-1.29333435\O,0,0.69948
 307,-0.62100117,-2.44289794\H,0,-1.30084156,1.43663134,0.65366874\H,0,
 -2.12325056,-0.09658114,1.05405583\H,0,-1.96545396,0.47115033,-0.62231

 Normal termination of Gaussian 16 at Wed Apr  9 03:52:44 2025.
