 Gaussian 16, Revision C.01,

 ----------------------------------------------------------------------
 #t hf aug-cc-pvdz symm=none int=(grid=ultrafine) guess=(read,tcheck) s
 table=(opt,rrhf)
 ----------------------------------------------------------------------
 -----
 title
 -----
 Symbolic Z-matrix:
 Charge =  0 Multiplicity = 1

 SCF Done:  E(RHF) =  -380.742196120     A.U. after   13 cycles
 Normal termination of Gaussian 16 at Wed Apr  9 18:23:13 2025.
 Gaussian 16:  ES64L-G16RevC.01  3-Jul-2019

 ----------------------------------------------------------------------
 #t hf aug-cc-pvdz iop(5/13=1,5/36=2,99/5=2) pseudo=read geom=check gue
 ss=(read,tcheck) scf=(maxcycle=1)
 ----------------------------------------------------------------------
 -----
 title
 -----
 Structure from the checkpoint file:  "Grambow2020_wb97xd3_007512_reverse_mol2.chk"
 Charge =  0 Multiplicity = 1

                         Standard orientation:
 ---------------------------------------------------------------------
 Center     Atomic      Atomic             Coordinates (Angstroms)
 Number     Number       Type             X           Y           Z
 ---------------------------------------------------------------------
      1          8           0        2.041324   -1.046672   -0.572106
      2          6           0        2.029398    0.252176   -0.008861
      3          6           0        0.852701    0.348643    0.947815
      4          6           0       -0.468525    0.315454    0.258246
      5          8           0       -0.670268    1.364522   -0.584643
      6          6           0       -1.389358   -0.624557    0.432188
      7          8           0       -2.609158   -0.493425   -0.210070
      8          1           0        2.673145   -1.066291   -1.291090
      9          1           0        1.931127    1.018064   -0.785996
     10          1           0        2.957152    0.442667    0.545199
     11          1           0        0.937298    1.285936    1.506649
     12          1           0        0.907497   -0.471418    1.666049
     13          1           0       -2.857882   -1.334681   -0.595511
     14          1           0       -1.251421   -1.463449    1.101339
     15          1           0       -1.537400    1.243479   -0.988417
 ---------------------------------------------------------------------

 SCF Done:  E(RHF) =  -381.132771525     A.U. after    2 cycles

 The electronic state is 1-A.
 Alpha  occ. eigenvalues --  -20.57031 -20.56428 -20.54582 -11.28784 -11.28385
 Alpha  occ. eigenvalues --  -11.26918 -11.23794  -1.49293  -1.46460  -1.44894
 Alpha  occ. eigenvalues --   -1.07126  -0.98438  -0.86208  -0.78200  -0.72274
 Alpha  occ. eigenvalues --   -0.71996  -0.70024  -0.64835  -0.61671  -0.57859
 Alpha  occ. eigenvalues --   -0.57114  -0.55616  -0.53625  -0.52623  -0.50132
 Alpha  occ. eigenvalues --   -0.49186  -0.44034  -0.32318
 Alpha virt. eigenvalues --    0.03474   0.03767   0.04434   0.04738   0.05938
 Alpha virt. eigenvalues --    0.06638   0.07072   0.08420   0.11301   0.12604
 Alpha virt. eigenvalues --    0.12945   0.13910   0.14227   0.15039   0.15858

 Mulliken charges:
               1
     1  O   -1.152277
     2  C    0.632550
     3  C   -0.574987
     4  C    1.936804
     5  O   -1.757182
     6  C    0.700655
     7  O   -1.354043
     8  H    0.303360
     9  H    0.143199
    10  H    0.077176
    11  H    0.234725
    12  H    0.167723
    13  H    0.323609
    14  H   -0.074415
    15  H    0.393104
 Sum of Mulliken charges =  -0.00000

 Dipole moment (field-independent basis, Debye):
    X=              0.7669    Y=             -0.9349    Z=             -0.6419  Tot=              1.3691

 Test job not archived.
 1\1\GINC-SE362\SP\RHF\Aug-CC-pVDZ\C4H8O3\OHZDE\09-Apr-2025\0\\#t hf au
 g-cc-pvdz iop(5/13=1,5/36=2,99/5=2) pseudo=read geom=check guess=(read
 ,tcheck) scf=(maxcycle=1)\\title\\0,1\O,0,-1.52264071,1.547464,0.18680
 952\C,0,-1.61784724,0.29008182,-0.45686548\C,0,-0.83680127,-0.72624293
 ,0.35934646\C,0,0.6354059,-0.49354096,0.33291631\O,0,1.18345896,-0.608
 14023,-0.9073306\C,0,1.37585009,-0.21021034,1.39747065\O,0,2.74777022,
 -0.09658581,1.24738703\H,0,-1.86948485,2.22142532,-0.39799451\H,0,-1.2
 0819981,0.33473839,-1.47193979\H,0,-2.66440444,-0.03290623,-0.52315384

 Normal termination of Gaussian 16 at Wed Apr  9 18:23:18 2025.
