 Gaussian 16, Revision C.01,

 ----------------------------------------------------------------------
 #t hf aug-cc-pvdz symm=none int=(grid=ultrafine) guess=(read,tcheck) s
 table=(opt,rrhf)
 ----------------------------------------------------------------------
 -----
 title
 -----
 Symbolic Z-matrix:
 Charge =  0 Multiplicity = 1

 SCF Done:  E(RHF) =  -302.700021355     A.U. after   18 cycles
 Normal termination of Gaussian 16 at Wed Apr  9 18:45:46 2025.
 Gaussian 16:  ES64L-G16RevC.01  3-Jul-2019

 ----------------------------------------------------------------------
 #t hf aug-cc-pvdz iop(5/13=1,5/36=2,99/5=2) pseudo=read geom=check gue
 ss=(read,tcheck) scf=(maxcycle=1)
 ----------------------------------------------------------------------
 -----
 title
 -----
 Structure from the checkpoint file:  "Grambow2020_wb97xd3_008031_reverse_mol1.chk"
 Charge =  0 Multiplicity = 1

                         Standard orientation:
 ---------------------------------------------------------------------
 Center     Atomic      Atomic             Coordinates (Angstroms)
 Number     Number       Type             X           Y           Z
 ---------------------------------------------------------------------
      1          6           0       -0.645330    1.681768   -0.214470
      2          6           0       -0.718677    0.397828    0.567502
      3          6           0       -1.740081   -0.611479   -0.597838
      4          7           0       -0.816918   -1.393361    0.008103
      5          6           0        0.603719   -0.145681    0.993029
      6          6           0        1.672729   -0.114847    0.099772
      7          7           0        2.508751   -0.107232   -0.705907
      8          1           0       -0.014341    1.578541   -1.097204
      9          1           0       -1.622706    2.071578   -0.495416
     10          1           0       -0.134797    2.378564    0.461934
     11          1           0       -1.418959    0.406651    1.393828
     12          1           0       -1.619207   -0.283786   -1.624388
     13          1           0       -2.736908   -0.622216   -0.175307
     14          1           0       -0.016695   -1.588556   -0.589319
     15          1           0        0.686622   -0.682154    1.922522
 ---------------------------------------------------------------------

 SCF Done:  E(RHF) =  -303.011242903     A.U. after    2 cycles

 The electronic state is 1-A.
 Alpha  occ. eigenvalues --  -15.63425 -15.46077 -11.35386 -11.31960 -11.26484
 Alpha  occ. eigenvalues --  -11.24446 -11.21835  -1.30698  -1.18806  -1.09345
 Alpha  occ. eigenvalues --   -0.98946  -0.92834  -0.85580  -0.76082  -0.71374
 Alpha  occ. eigenvalues --   -0.66562  -0.65425  -0.64781  -0.57729  -0.56416
 Alpha  occ. eigenvalues --   -0.55552  -0.54482  -0.53842  -0.49156  -0.45306
 Alpha  occ. eigenvalues --   -0.27277
 Alpha virt. eigenvalues --    0.01946   0.02682   0.03197   0.03479   0.04397
 Alpha virt. eigenvalues --    0.05727   0.06107   0.07181   0.07249   0.09469
 Alpha virt. eigenvalues --    0.11232   0.11874   0.13059   0.13351   0.13988

 Mulliken charges:
               1
     1  C   -0.147551
     2  C   -0.752986
     3  C   -0.498428
     4  N    0.528989
     5  C    1.101997
     6  C   -2.268592
     7  N    1.007158
     8  H    0.357256
     9  H    0.154802
    10  H    0.243908
    11  H    0.009611
    12  H   -0.005040
    13  H    0.058205
    14  H    0.402005
    15  H   -0.191332
 Sum of Mulliken charges =  -0.00000

 Dipole moment (field-independent basis, Debye):
    X=             -7.8376    Y=              0.5886    Z=              0.4581  Tot=              7.8730

 Test job not archived.
 1\1\GINC-SE162\SP\RHF\Aug-CC-pVDZ\C5H8N2\OHZDE\09-Apr-2025\0\\#t hf au
 g-cc-pvdz iop(5/13=1,5/36=2,99/5=2) pseudo=read geom=check guess=(read
 ,tcheck) scf=(maxcycle=1)\\title\\0,1\C,0,1.35045003,-0.33140391,-0.60
 546141\C,0,0.44955799,0.18396537,0.48456151\C,0,-0.3503319,1.58603673,
 -0.41785431\N,0,-1.24108932,1.00124562,0.41599406\C,0,-0.43303154,-0.8
 4917865,1.10007402\C,0,-1.05520171,-1.78957516,0.2814158\N,0,-1.584400
 04,-2.51201318,-0.45759793\H,0,0.78283454,-0.81756241,-1.39886303\H,0,
 2.00104919,0.43470907,-1.02491028\H,0,1.94474621,-1.1123427,-0.1149149

 Normal termination of Gaussian 16 at Wed Apr  9 18:45:51 2025.
