 Gaussian 16, Revision C.01,

 ----------------------------------------------------------------------
 #t hf aug-cc-pvdz symm=none int=(grid=ultrafine) guess=(read,tcheck) s
 table=(opt,rrhf)
 ----------------------------------------------------------------------
 -----
 title
 -----
 Symbolic Z-matrix:
 Charge =  0 Multiplicity = 1

 SCF Done:  E(RHF) =  -267.509964797     A.U. after   17 cycles
 Normal termination of Gaussian 16 at Wed Apr  9 03:20:55 2025.
 Gaussian 16:  ES64L-G16RevC.01  3-Jul-2019

 ----------------------------------------------------------------------
 #t hf aug-cc-pvdz iop(5/13=1,5/36=2,99/5=2) pseudo=read geom=check gue
 ss=(read,tcheck) scf=(maxcycle=1)
 ----------------------------------------------------------------------
 -----
 title
 -----
 Structure from the checkpoint file:  "Grambow2020_wb97xd3_006079_reverse_mol1.chk"
 Charge =  0 Multiplicity = 1

                         Standard orientation:
 ---------------------------------------------------------------------
 Center     Atomic      Atomic             Coordinates (Angstroms)
 Number     Number       Type             X           Y           Z
 ---------------------------------------------------------------------
      1          8           0       -2.386622   -0.684789   -0.064335
      2          6           0       -1.935050    0.424576   -0.013918
      3          6           0       -0.466154    0.746307    0.085371
      4          6           0        0.433102   -0.439614   -0.016592
      5          6           0        1.806560   -0.319319   -0.004542
      6          6           0        2.972444    0.185293   -0.245940
      7          1           0       -2.603848    1.308667   -0.030360
      8          1           0       -0.319732    1.294012    1.024402
      9          1           0       -0.201615    1.473087   -0.696168
     10          1           0        1.639053   -1.030113    0.907236
     11          1           0       -0.022318   -1.422763   -0.038037
     12          1           0        3.736021    0.271966    0.521330
 ---------------------------------------------------------------------

 SCF Done:  E(RHF) =  -267.782317154     A.U. after    2 cycles

 The electronic state is 1-A.
 Alpha  occ. eigenvalues --  -20.57080 -11.36661 -11.32208 -11.28536 -11.25837
 Alpha  occ. eigenvalues --  -11.23444  -1.50682  -1.14195  -1.04898  -0.94162
 Alpha  occ. eigenvalues --   -0.83137  -0.75285  -0.68985  -0.68111  -0.65622
 Alpha  occ. eigenvalues --   -0.63004  -0.59570  -0.55705  -0.52723  -0.44976
 Alpha  occ. eigenvalues --   -0.39420  -0.31125
 Alpha virt. eigenvalues --    0.02288   0.03071   0.04317   0.04446   0.05105
 Alpha virt. eigenvalues --    0.05912   0.06932   0.08927   0.09621   0.10834
 Alpha virt. eigenvalues --    0.11125   0.11886   0.12670   0.14109   0.14452

 Mulliken charges:
               1
     1  O   -1.133823
     2  C    1.107874
     3  C   -0.760008
     4  C    0.277679
     5  C    0.461258
     6  C   -0.776708
     7  H    0.125782
     8  H    0.305651
     9  H    0.306526
    10  H    0.290036
    11  H   -0.109816
    12  H   -0.094451
 Sum of Mulliken charges =  -0.00000

 Dipole moment (field-independent basis, Debye):
    X=             -1.7389    Y=              1.6850    Z=              2.4125  Tot=              3.4181

 Test job not archived.
 1\1\GINC-SE460\SP\RHF\Aug-CC-pVDZ\C5H6O1\OHZDE\09-Apr-2025\0\\#t hf au
 g-cc-pvdz iop(5/13=1,5/36=2,99/5=2) pseudo=read geom=check guess=(read
 ,tcheck) scf=(maxcycle=1)\\title\\0,1\O,0,-2.63433228,0.27428769,-0.54
 393554\C,0,-2.1479623,-0.097988,0.48660127\C,0,-0.66692058,-0.20233146
 ,0.74477484\C,0,0.18966183,0.32757971,-0.35564631\C,0,1.56459758,0.363
 8613,-0.2595289\C,0,2.72956303,0.50468382,0.28380929\H,0,-2.79013258,-
 0.40546999,1.3364538\H,0,-0.4519313,-1.2556974,0.96248726\H,0,-0.42517
 448,0.3224077,1.68029615\H,0,1.427461,-0.28309785,-1.22247396\H,0,-0.2

 Normal termination of Gaussian 16 at Wed Apr  9 03:20:58 2025.
