 Gaussian 16, Revision C.01,

 ----------------------------------------------------------------------
 #t hf aug-cc-pvdz symm=none int=(grid=ultrafine) guess=(read,tcheck) s
 table=(opt,rrhf)
 ----------------------------------------------------------------------
 -----
 title
 -----
 Symbolic Z-matrix:
 Charge =  0 Multiplicity = 1

 SCF Done:  E(RHF) =  -268.846236110     A.U. after   13 cycles
 Normal termination of Gaussian 16 at Wed Apr  9 17:09:20 2025.
 Gaussian 16:  ES64L-G16RevC.01  3-Jul-2019

 ----------------------------------------------------------------------
 #t hf aug-cc-pvdz iop(5/13=1,5/36=2,99/5=2) pseudo=read geom=check gue
 ss=(read,tcheck) scf=(maxcycle=1)
 ----------------------------------------------------------------------
 -----
 title
 -----
 Structure from the checkpoint file:  "Grambow2020_wb97xd3_006261_reverse_mol2.chk"
 Charge =  0 Multiplicity = 1

                         Standard orientation:
 ---------------------------------------------------------------------
 Center     Atomic      Atomic             Coordinates (Angstroms)
 Number     Number       Type             X           Y           Z
 ---------------------------------------------------------------------
      1          6           0       -2.722393   -0.697232   -0.141089
      2          6           0       -1.830200    0.256126   -0.355412
      3          6           0       -0.708921    0.612609    0.579130
      4          6           0        0.639306    0.549375   -0.081484
      5          6           0        1.596987   -0.285933    0.295321
      6          8           0        2.831504   -0.407720   -0.253593
      7          1           0       -2.697199   -1.305706    0.757280
      8          1           0       -3.510385   -0.907056   -0.854014
      9          1           0        2.918085    0.209591   -0.984615
     10          1           0       -1.888301    0.838751   -1.272788
     11          1           0       -0.729897   -0.052787    1.446059
     12          1           0       -0.878745    1.627482    0.958497
     13          1           0        0.815553    1.221903   -0.919449
     14          1           0        1.470182   -0.980097    1.118978
 ---------------------------------------------------------------------

 SCF Done:  E(RHF) =  -269.129263560     A.U. after    2 cycles

 The electronic state is 1-A.
 Alpha  occ. eigenvalues --  -20.57708 -11.29929 -11.24375 -11.24182 -11.22951
 Alpha  occ. eigenvalues --  -11.22879  -1.49184  -1.09851  -1.02959  -0.92721
 Alpha  occ. eigenvalues --   -0.82182  -0.76706  -0.69894  -0.66434  -0.63249
 Alpha  occ. eigenvalues --   -0.60050  -0.57875  -0.56384  -0.54361  -0.51810
 Alpha  occ. eigenvalues --   -0.50031  -0.37282  -0.34360
 Alpha virt. eigenvalues --    0.03225   0.04059   0.04214   0.04467   0.05911
 Alpha virt. eigenvalues --    0.06465   0.07413   0.07901   0.10673   0.11994
 Alpha virt. eigenvalues --    0.12541   0.13143   0.14045   0.14410   0.15127

 Mulliken charges:
               1
     1  C   -0.221124
     2  C    0.765126
     3  C   -0.855902
     4  C    0.710063
     5  C    0.819271
     6  O   -1.314450
     7  H   -0.083874
     8  H   -0.096319
     9  H    0.335310
    10  H   -0.176821
    11  H    0.140645
    12  H    0.298114
    13  H   -0.282468
    14  H   -0.037572
 Sum of Mulliken charges =   0.00000

 Dipole moment (field-independent basis, Debye):
    X=             -0.3164    Y=              0.9723    Z=             -0.5303  Tot=              1.1519

 Test job not archived.
 1\1\GINC-SE045\SP\RHF\Aug-CC-pVDZ\C5H8O1\OHZDE\09-Apr-2025\0\\#t hf au
 g-cc-pvdz iop(5/13=1,5/36=2,99/5=2) pseudo=read geom=check guess=(read
 ,tcheck) scf=(maxcycle=1)\\title\\0,1\C,0,-2.42889784,0.38915324,-0.39
 833879\C,0,-1.18412813,0.77016364,-0.63543556\C,0,-0.08181052,0.796004
 18,0.38532081\C,0,1.11620817,-0.00840703,-0.03396291\C,0,1.54958471,-1
 .07047175,0.63017278\O,0,2.6135185,-1.8495437,0.3119556\H,0,-2.7423202
 6,0.05691368,0.58620445\H,0,-3.18133918,0.39336834,-1.17746281\H,0,3.0
 2010399,-1.52084067,-0.49402472\H,0,-0.91072539,1.09024582,-1.63903057

 Normal termination of Gaussian 16 at Wed Apr  9 17:09:27 2025.
