 Gaussian 16, Revision C.01,

 ----------------------------------------------------------------------
 #t hf aug-cc-pvdz symm=none int=(grid=ultrafine) guess=(read,tcheck) s
 table=(opt,rrhf)
 ----------------------------------------------------------------------
 -----
 title
 -----
 Symbolic Z-matrix:
 Charge =  0 Multiplicity = 1

 SCF Done:  E(RHF) =  -268.812691886     A.U. after   14 cycles
 Normal termination of Gaussian 16 at Wed Apr  9 15:56:52 2025.
 Gaussian 16:  ES64L-G16RevC.01  3-Jul-2019

 ----------------------------------------------------------------------
 #t hf aug-cc-pvdz iop(5/13=1,5/36=2,99/5=2) pseudo=read geom=check gue
 ss=(read,tcheck) scf=(maxcycle=1)
 ----------------------------------------------------------------------
 -----
 title
 -----
 Structure from the checkpoint file:  "Grambow2020_b97d3_007039_reverse_mol2.chk"
 Charge =  0 Multiplicity = 1

                         Standard orientation:
 ---------------------------------------------------------------------
 Center     Atomic      Atomic             Coordinates (Angstroms)
 Number     Number       Type             X           Y           Z
 ---------------------------------------------------------------------
      1          6           0       -2.597690   -0.381574   -0.019590
      2          6           0       -1.166399   -0.670127    0.001545
      3          6           0        0.040855   -0.874029    0.018717
      4          6           0        1.442885   -1.129115    0.040820
      5          6           0        2.394331   -0.173694   -0.056471
      6          8           0        0.115667    2.308064   -0.035154
      7          1           0       -2.776577    0.697187    0.105054
      8          1           0       -3.051526   -0.690289   -0.973601
      9          1           0       -3.123837   -0.910597    0.789080
     10          1           0        0.153571    2.107245    0.916955
     11          1           0        1.738684   -2.177378    0.143118
     12          1           0        3.449847   -0.442828   -0.035888
     13          1           0        2.134394    0.880580   -0.161194
     14          1           0       -0.133786    1.442810   -0.412420
 ---------------------------------------------------------------------

 SCF Done:  E(RHF) =  -269.095044286     A.U. after    2 cycles

 The electronic state is 1-A.
 Alpha  occ. eigenvalues --  -20.54510 -11.27434 -11.27199 -11.25872 -11.25831
 Alpha  occ. eigenvalues --  -11.25109  -1.42056  -1.09670  -1.04748  -0.96477
 Alpha  occ. eigenvalues --   -0.84038  -0.70089  -0.68437  -0.65265  -0.63062
 Alpha  occ. eigenvalues --   -0.60368  -0.60324  -0.56917  -0.55023  -0.48254
 Alpha  occ. eigenvalues --   -0.46711  -0.39596  -0.34532
 Alpha virt. eigenvalues --    0.03210   0.03562   0.04566   0.04900   0.05872
 Alpha virt. eigenvalues --    0.06478   0.07173   0.09187   0.09668   0.10711
 Alpha virt. eigenvalues --    0.11722   0.12129   0.14041   0.14307   0.14521

 Mulliken charges:
               1
     1  C   -0.784144
     2  C   -0.032945
     3  C   -0.016768
     4  C    0.336057
     5  C    0.021626
     6  O   -0.928586
     7  H    0.252819
     8  H    0.281281
     9  H    0.261235
    10  H    0.380497
    11  H   -0.180831
    12  H   -0.081055
    13  H   -0.083109
    14  H    0.573924
 Sum of Mulliken charges =  -0.00000

 Dipole moment (field-independent basis, Debye):
    X=             -0.7476    Y=             -1.7415    Z=              0.8704  Tot=              2.0855

 Test job not archived.
 1\1\GINC-SE168\SP\RHF\Aug-CC-pVDZ\C5H8O1\OHZDE\09-Apr-2025\0\\#t hf au
 g-cc-pvdz iop(5/13=1,5/36=2,99/5=2) pseudo=read geom=check guess=(read
 ,tcheck) scf=(maxcycle=1)\\title\\0,1\C,0,2.40933813,0.74764116,0.0685
 8895\C,0,1.24289342,-0.13082814,0.06807812\C,0,0.24200958,-0.83620769,
 0.06577114\C,0,-0.91242317,-1.671981,0.06210732\C,0,-2.18474307,-1.216
 61707,0.09937929\O,0,-1.19710772,1.99939754,-0.08422578\H,0,2.10949053
 ,1.78870287,-0.12517367\H,0,2.92659272,0.72124147,1.03975397\H,0,3.133
 08926,0.45111038,-0.70529586\H,0,-1.11976998,1.74662539,-1.02145651\H,

 Normal termination of Gaussian 16 at Wed Apr  9 15:56:56 2025.
