 Gaussian 16, Revision C.01,

 ----------------------------------------------------------------------
 #t hf aug-cc-pvdz symm=none int=(grid=ultrafine) guess=(read,tcheck) s
 table=(opt,rrhf)
 ----------------------------------------------------------------------
 -----
 title
 -----
 Symbolic Z-matrix:
 Charge =  0 Multiplicity = 1

 SCF Done:  E(RHF) =  -308.952870672     A.U. after   14 cycles

 1\1\GINC-SE340\Stability\RHF\Aug-CC-pVDZ\C6H12O1\OHZDE\09-Apr-2025\0\\
 #t hf aug-cc-pvdz symm=none int=(grid=ultrafine) guess=(read,tcheck) s
 table=(opt,rrhf)\\title\\0,1\C,0,2.39551726,-0.01977997,-0.3041026\C,0
 ,1.08353609,-0.31769485,0.42271453\O,0,1.30849367,-0.65938147,1.779499
 86\C,0,0.25492476,0.93290051,0.31244115\C,0,-0.5588389,1.00955048,-0.9
 1888975\C,0,-1.55458992,0.48762326,0.10717106\C,0,-2.14127121,-0.89044
 941,-0.08957482\H,0,2.23879262,0.10250072,-1.3777175\H,0,3.08559725,-0
 .84733685,-0.14097379\H,0,2.84676307,0.8946595,0.08627275\H,0,0.640522

 Normal termination of Gaussian 16 at Wed Apr  9 18:26:34 2025.
 Gaussian 16:  ES64L-G16RevC.01  3-Jul-2019

 ----------------------------------------------------------------------
 #t hf aug-cc-pvdz iop(5/13=1,5/36=2,99/5=2) pseudo=read geom=check gue
 ss=(read,tcheck) scf=(maxcycle=1)
 ----------------------------------------------------------------------
 -----
 title
 -----
 Structure from the checkpoint file:  "Grambow2020_wb97xd3_007567_forward_mol1.chk"
 Charge =  0 Multiplicity = 1

                         Standard orientation:
 ---------------------------------------------------------------------
 Center     Atomic      Atomic             Coordinates (Angstroms)
 Number     Number       Type             X           Y           Z
 ---------------------------------------------------------------------
      1          6           0       -2.147271    0.739915    0.538450
      2          6           0       -1.011207   -0.227979    0.205509
      3          8           0       -1.504646   -1.436546   -0.345947
      4          6           0       -0.127925    0.491277   -0.776953
      5          6           0        0.908528    1.336735   -0.148281
      6          6           0        1.668387    0.056002   -0.463030
      7          6           0        2.226807   -0.754437    0.682982
      8          1           0       -1.783555    1.607680    1.092397
      9          1           0       -2.888031    0.219833    1.145460
     10          1           0       -2.628223    1.090298   -0.377046
     11          1           0       -0.526252   -0.520989    1.145644
     12          1           0       -1.636192   -1.263197   -1.283938
     13          1           0        0.842572   -0.553360   -1.066381
     14          1           0        0.836143    1.522119    0.925606
     15          1           0        1.235078    2.218502   -0.691114
     16          1           0        2.352643    0.195535   -1.296888
     17          1           0        1.479148   -0.932145    1.455840
     18          1           0        3.057350   -0.218411    1.146259
     19          1           0        2.592575   -1.722573    0.339678
 ---------------------------------------------------------------------

 SCF Done:  E(RHF) =  -309.284977702     A.U. after    2 cycles

 The electronic state is 1-A.
 Alpha  occ. eigenvalues --  -20.53457 -11.28365 -11.28108 -11.24947 -11.24632
 Alpha  occ. eigenvalues --  -11.24502 -11.22336  -1.44170  -1.15670  -1.02890
 Alpha  occ. eigenvalues --   -0.97996  -0.87040  -0.83754  -0.77360  -0.67849
 Alpha  occ. eigenvalues --   -0.66178  -0.62430  -0.60734  -0.59181  -0.58094
 Alpha  occ. eigenvalues --   -0.55695  -0.53086  -0.52349  -0.52104  -0.49468
 Alpha  occ. eigenvalues --   -0.46656  -0.42711  -0.33505
 Alpha virt. eigenvalues --    0.03173   0.03414   0.03692   0.04491   0.05825
 Alpha virt. eigenvalues --    0.06075   0.06328   0.06570   0.07575   0.09221
 Alpha virt. eigenvalues --    0.09748   0.10296   0.11097   0.13204   0.14105

 Mulliken charges:
               1
     1  C   -0.311867
     2  C    1.082117
     3  O   -1.370254
     4  C   -0.601668
     5  C    0.164348
     6  C   -0.460949
     7  C   -0.336297
     8  H    0.194557
     9  H    0.155034
    10  H    0.190043
    11  H    0.036459
    12  H    0.254585
    13  H    0.452227
    14  H    0.067810
    15  H   -0.021106
    16  H    0.003381
    17  H    0.106402
    18  H    0.217830
    19  H    0.177348
 Sum of Mulliken charges =  -0.00000

 Dipole moment (field-independent basis, Debye):
    X=              2.3462    Y=              0.9312    Z=              0.9307  Tot=              2.6903

 Test job not archived.
 1\1\GINC-SE340\SP\RHF\Aug-CC-pVDZ\C6H12O1\OHZDE\09-Apr-2025\0\\#t hf a
 ug-cc-pvdz iop(5/13=1,5/36=2,99/5=2) pseudo=read geom=check guess=(rea
 d,tcheck) scf=(maxcycle=1)\\title\\0,1\C,0,2.39551726,-0.01977997,-0.3
 041026\C,0,1.08353609,-0.31769485,0.42271453\O,0,1.30849367,-0.6593814
 7,1.77949986\C,0,0.25492476,0.93290051,0.31244115\C,0,-0.5588389,1.009
 55048,-0.91888975\C,0,-1.55458992,0.48762326,0.10717106\C,0,-2.1412712
 1,-0.89044941,-0.08957482\H,0,2.23879262,0.10250072,-1.3777175\H,0,3.0
 8559725,-0.84733685,-0.14097379\H,0,2.84676307,0.8946595,0.08627275\H,

 Normal termination of Gaussian 16 at Wed Apr  9 18:26:40 2025.
