 Gaussian 16, Revision C.01,

 ----------------------------------------------------------------------
 #t hf aug-cc-pvdz symm=none int=(grid=ultrafine) guess=(read,tcheck) s
 table=(opt,rrhf)
 ----------------------------------------------------------------------
 -----
 title
 -----
 Symbolic Z-matrix:
 Charge =  0 Multiplicity = 1

 SCF Done:  E(RHF) =  -344.929172476     A.U. after   14 cycles

 1\1\GINC-SE073\Stability\RHF\Aug-CC-pVDZ\C5H10O2\OHZDE\09-Apr-2025\0\\
 #t hf aug-cc-pvdz symm=none int=(grid=ultrafine) guess=(read,tcheck) s
 table=(opt,rrhf)\\title\\0,1\C,0,-2.25710099,-0.38024214,-0.06718237\C
 ,0,-0.79599162,-0.41511054,-0.48764604\O,0,-0.49476333,0.63967706,-1.3
 8348832\C,0,0.13705006,-0.42368755,0.7226313\C,0,1.60969142,-0.2983886
 1,0.35835286\C,0,2.09848827,1.10758168,0.15133833\O,0,1.43072813,2.101
 47857,0.26678575\H,0,-2.50982366,-1.23912907,0.55910416\H,0,-2.4689801
 8,0.52925921,0.50145814\H,0,-2.90017689,-0.38992689,-0.94733895\H,0,-0

 Normal termination of Gaussian 16 at Wed Apr  9 03:34:34 2025.
 Gaussian 16:  ES64L-G16RevC.01  3-Jul-2019

 ----------------------------------------------------------------------
 #t hf aug-cc-pvdz iop(5/13=1,5/36=2,99/5=2) pseudo=read geom=check gue
 ss=(read,tcheck) scf=(maxcycle=1)
 ----------------------------------------------------------------------
 -----
 title
 -----
 Structure from the checkpoint file:  "Grambow2020_wb97xd3_007087_forward_mol2.chk"
 Charge =  0 Multiplicity = 1

                         Standard orientation:
 ---------------------------------------------------------------------
 Center     Atomic      Atomic             Coordinates (Angstroms)
 Number     Number       Type             X           Y           Z
 ---------------------------------------------------------------------
      1          6           0       -2.498040   -0.051783   -0.453089
      2          6           0       -1.231177    0.123335    0.369857
      3          8           0       -0.691581   -1.128681    0.753448
      4          6           0       -0.204775    0.991889   -0.356451
      5          6           0        1.140244    1.068163    0.352194
      6          6           0        2.081270   -0.066314    0.059003
      7          8           0        1.854645   -0.985451   -0.683217
      8          1           0       -2.959057    0.912265   -0.680825
      9          1           0       -2.272804   -0.552735   -1.398474
     10          1           0       -3.217862   -0.661555    0.093126
     11          1           0       -1.489262    0.612587    1.316031
     12          1           0       -0.186093   -1.484008    0.014750
     13          1           0       -0.055031    0.604628   -1.369455
     14          1           0       -0.619608    1.996903   -0.463262
     15          1           0        1.023646    1.113987    1.441403
     16          1           0        1.684553    1.981229    0.082835
     17          1           0        3.061882   -0.001980    0.572938
 ---------------------------------------------------------------------

 SCF Done:  E(RHF) =  -345.289000062     A.U. after    2 cycles

 The electronic state is 1-A.
 Alpha  occ. eigenvalues --  -20.55274 -20.53374 -11.34935 -11.28480 -11.25577
 Alpha  occ. eigenvalues --  -11.23909 -11.22242  -1.48920  -1.44133  -1.09107
 Alpha  occ. eigenvalues --   -1.01837  -0.92297  -0.82782  -0.78252  -0.70204
 Alpha  occ. eigenvalues --   -0.67665  -0.65869  -0.63255  -0.61998  -0.57673
 Alpha  occ. eigenvalues --   -0.56983  -0.53877  -0.52298  -0.51474  -0.51080
 Alpha  occ. eigenvalues --   -0.46615  -0.42917  -0.42331
 Alpha virt. eigenvalues --    0.02960   0.03625   0.04000   0.04591   0.05935
 Alpha virt. eigenvalues --    0.06133   0.06739   0.07339   0.08668   0.09165
 Alpha virt. eigenvalues --    0.11260   0.11853   0.12182   0.13899   0.14059

 Mulliken charges:
               1
     1  C   -0.367139
     2  C    0.786027
     3  O   -1.393539
     4  C   -0.210054
     5  C   -0.413556
     6  C    1.025726
     7  O   -1.160125
     8  H    0.207519
     9  H    0.161277
    10  H    0.159268
    11  H    0.039106
    12  H    0.374950
    13  H    0.132554
    14  H    0.116469
    15  H    0.223186
    16  H    0.203832
    17  H    0.114498
 Sum of Mulliken charges =   0.00000

 Dipole moment (field-independent basis, Debye):
    X=              0.4300    Y=              3.1979    Z=              0.2052  Tot=              3.2332

 Test job not archived.
 1\1\GINC-SE073\SP\RHF\Aug-CC-pVDZ\C5H10O2\OHZDE\09-Apr-2025\0\\#t hf a
 ug-cc-pvdz iop(5/13=1,5/36=2,99/5=2) pseudo=read geom=check guess=(rea
 d,tcheck) scf=(maxcycle=1)\\title\\0,1\C,0,-2.25710099,-0.38024214,-0.
 06718237\C,0,-0.79599162,-0.41511054,-0.48764604\O,0,-0.49476333,0.639
 67706,-1.38348832\C,0,0.13705006,-0.42368755,0.7226313\C,0,1.60969142,
 -0.29838861,0.35835286\C,0,2.09848827,1.10758168,0.15133833\O,0,1.4307
 2813,2.10147857,0.26678575\H,0,-2.50982366,-1.23912907,0.55910416\H,0,
 -2.46898018,0.52925921,0.50145814\H,0,-2.90017689,-0.38992689,-0.94733

 Normal termination of Gaussian 16 at Wed Apr  9 03:34:40 2025.
