 Gaussian 16, Revision C.01,

 ----------------------------------------------------------------------
 #t hf aug-cc-pvdz symm=none int=(grid=ultrafine) guess=(read,tcheck) s
 table=(opt,rrhf)
 ----------------------------------------------------------------------
 -----
 title
 -----
 Symbolic Z-matrix:
 Charge =  0 Multiplicity = 1

 SCF Done:  E(RHF) =  -322.684631675     A.U. after   15 cycles
 Normal termination of Gaussian 16 at Wed Apr  9 18:21:19 2025.
 Gaussian 16:  ES64L-G16RevC.01  3-Jul-2019

 ----------------------------------------------------------------------
 #t hf aug-cc-pvdz iop(5/13=1,5/36=2,99/5=2) pseudo=read geom=check gue
 ss=(read,tcheck) scf=(maxcycle=1)
 ----------------------------------------------------------------------
 -----
 title
 -----
 Structure from the checkpoint file:  "Grambow2020_wb97xd3_007345_forward_mol2.chk"
 Charge =  0 Multiplicity = 1

                         Standard orientation:
 ---------------------------------------------------------------------
 Center     Atomic      Atomic             Coordinates (Angstroms)
 Number     Number       Type             X           Y           Z
 ---------------------------------------------------------------------
      1          8           0        2.166931   -0.647828   -0.324955
      2          6           0        1.159881   -0.110283    0.011743
      3          6           0        0.590350    1.307719   -0.079395
      4          7           0       -0.672468    0.836076    0.541914
      5          6           0       -1.640167    0.307141   -0.462368
      6          6           0       -1.208961   -1.149500   -0.191529
      7          6           0       -0.121919   -0.555892    0.716872
      8          1           0        1.124641    2.017129    0.557111
      9          1           0        0.498443    1.731673   -1.082414
     10          1           0       -1.448216    0.663697   -1.478150
     11          1           0       -2.672096    0.542742   -0.203564
     12          1           0       -0.858120   -1.734599   -1.040503
     13          1           0       -1.947699   -1.730364    0.357105
     14          1           0       -0.000218   -0.955298    1.724723
 ---------------------------------------------------------------------

 SCF Done:  E(RHF) =  -323.016556694     A.U. after    2 cycles

 The electronic state is 1-A.
 Alpha  occ. eigenvalues --  -20.55425 -15.50180 -11.34597 -11.27976 -11.27698
 Alpha  occ. eigenvalues --  -11.27318 -11.25281  -1.49181  -1.28974  -1.05526
 Alpha  occ. eigenvalues --   -0.98132  -0.91283  -0.82245  -0.73895  -0.69744
 Alpha  occ. eigenvalues --   -0.69623  -0.67659  -0.61704  -0.60591  -0.56692
 Alpha  occ. eigenvalues --   -0.54740  -0.53508  -0.49676  -0.48009  -0.42187
 Alpha  occ. eigenvalues --   -0.40448
 Alpha virt. eigenvalues --    0.03430   0.04006   0.04365   0.04689   0.05378
 Alpha virt. eigenvalues --    0.05830   0.07435   0.08675   0.10001   0.10989
 Alpha virt. eigenvalues --    0.11479   0.13000   0.13432   0.14440   0.14816

 Mulliken charges:
               1
     1  O   -1.286927
     2  C    1.336944
     3  C   -0.350305
     4  N    0.259550
     5  C   -0.010995
     6  C    0.020968
     7  C   -0.168515
     8  H    0.087350
     9  H    0.092424
    10  H    0.056609
    11  H   -0.021222
    12  H   -0.019699
    13  H    0.059069
    14  H   -0.055252
 Sum of Mulliken charges =  -0.00000

 Dipole moment (field-independent basis, Debye):
    X=             -2.2181    Y=              0.1319    Z=             -0.5155  Tot=              2.2810

 Test job not archived.
 1\1\GINC-SE135\SP\RHF\Aug-CC-pVDZ\C5H7N1O1\OHZDE\09-Apr-2025\0\\#t hf
 aug-cc-pvdz iop(5/13=1,5/36=2,99/5=2) pseudo=read geom=check guess=(re
 ad,tcheck) scf=(maxcycle=1)\\title\\0,1\O,0,1.67054756,1.73007165,-1.0
 6449479\C,0,1.14667129,0.7235694,-0.70536307\C,0,1.50929637,-0.4245008
 5,0.24006863\N,0,0.17901064,-1.03739648,-0.00051411\C,0,-0.86706796,-0
 .51272646,0.9242753\C,0,-1.37316992,0.49295905,-0.13097479\C,0,-0.1879
 5786,0.03488327,-0.99391266\H,0,2.32481166,-1.04277783,-0.1427324\H,0,
 1.72787275,-0.15167592,1.27545362\H,0,-0.45598754,-0.06151829,1.831587

 Normal termination of Gaussian 16 at Wed Apr  9 18:21:24 2025.
