 Gaussian 16, Revision C.01,

 ----------------------------------------------------------------------
 #t hf aug-cc-pvdz symm=none int=(grid=ultrafine) guess=(read,tcheck) s
 table=(opt,rrhf)
 ----------------------------------------------------------------------
 -----
 title
 -----
 Symbolic Z-matrix:
 Charge =  0 Multiplicity = 1

 SCF Done:  E(RHF) =  -354.663051679     A.U. after   15 cycles
 Normal termination of Gaussian 16 at Wed Apr  9 03:40:11 2025.
 Gaussian 16:  ES64L-G16RevC.01  3-Jul-2019

 ----------------------------------------------------------------------
 #t hf aug-cc-pvdz iop(5/13=1,5/36=2,99/5=2) pseudo=read geom=check gue
 ss=(read,tcheck) scf=(maxcycle=1)
 ----------------------------------------------------------------------
 -----
 title
 -----
 Structure from the checkpoint file:  "Grambow2020_wb97xd3_007474_reverse_mol1.chk"
 Charge =  0 Multiplicity = 1

                         Standard orientation:
 ---------------------------------------------------------------------
 Center     Atomic      Atomic             Coordinates (Angstroms)
 Number     Number       Type             X           Y           Z
 ---------------------------------------------------------------------
      1          7           0       -2.298618   -0.420775   -0.221053
      2          6           0       -1.042753   -0.250841    0.096018
      3          6           0       -0.747008    1.154516    0.087575
      4          7           0        0.691244    1.134935   -0.093983
      5          6           0        1.206206   -0.115994    0.003126
      6          8           0        2.341082   -0.503215   -0.100447
      7          7           0        0.078083   -0.984210    0.217513
      8          1           0       -2.822960   -1.256706    0.005041
      9          1           0       -2.130674    0.868514   -0.474783
     10          1           0       -1.041218    1.624451    1.029571
     11          1           0        1.294793    1.922686   -0.232756
     12          1           0        0.177776   -1.968961    0.038850
 ---------------------------------------------------------------------

 SCF Done:  E(RHF) =  -355.020548664     A.U. after    2 cycles

 The electronic state is 1-A.
 Alpha  occ. eigenvalues --  -20.51990 -15.57172 -15.53429 -15.52340 -11.40136
 Alpha  occ. eigenvalues --  -11.36254 -11.24762  -1.48342  -1.35188  -1.24598
 Alpha  occ. eigenvalues --   -1.21326  -1.00129  -0.90058  -0.87056  -0.82333
 Alpha  occ. eigenvalues --   -0.72602  -0.70751  -0.67008  -0.65629  -0.60260
 Alpha  occ. eigenvalues --   -0.58293  -0.54003  -0.48283  -0.45779  -0.45512
 Alpha  occ. eigenvalues --   -0.34354
 Alpha virt. eigenvalues --    0.02494   0.04384   0.04938   0.05537   0.06169
 Alpha virt. eigenvalues --    0.08866   0.09784   0.10178   0.10893   0.11205
 Alpha virt. eigenvalues --    0.12507   0.13353   0.14157   0.15048   0.15882

 Mulliken charges:
               1
     1  N    0.691514
     2  C   -1.679183
     3  C   -0.448693
     4  N    0.446034
     5  C    0.645859
     6  O   -1.213311
     7  N    0.638405
     8  H    0.026103
     9  H    0.607546
    10  H    0.103897
    11  H    0.090968
    12  H    0.090861
 Sum of Mulliken charges =  -0.00000

 Dipole moment (field-independent basis, Debye):
    X=             -2.5489    Y=             -0.7944    Z=              0.8850  Tot=              2.8126

 Test job not archived.
 1\1\GINC-SE368\SP\RHF\Aug-CC-pVDZ\C3H5N3O1\OHZDE\09-Apr-2025\0\\#t hf
 aug-cc-pvdz iop(5/13=1,5/36=2,99/5=2) pseudo=read geom=check guess=(re
 ad,tcheck) scf=(maxcycle=1)\\title\\0,1\N,0,2.0202506,-0.05289042,0.09
 240587\C,0,0.73960465,-0.16442116,-0.1402234\C,0,0.12106066,1.11944471
 ,0.03769771\N,0,-1.25373118,0.73342136,0.28839245\C,0,-1.46371994,-0.5
 9023972,0.08038342\O,0,-2.46350333,-1.24996087,0.19790242\N,0,-0.18162
 475,-1.13357923,-0.28490626\H,0,2.70897614,-0.71086478,-0.25046495\H,0
 ,1.57149946,1.1268218,0.49458741\H,0,0.22365471,1.73378834,-0.86052933

 Normal termination of Gaussian 16 at Wed Apr  9 03:40:15 2025.
