 Gaussian 16, Revision C.01,

 ----------------------------------------------------------------------
 #t hf aug-cc-pvdz symm=none int=(grid=ultrafine) guess=(read,tcheck) s
 table=(opt,rrhf)
 ----------------------------------------------------------------------
 -----
 title
 -----
 Symbolic Z-matrix:
 Charge =  0 Multiplicity = 1

 SCF Done:  E(RHF) =  -343.683962299     A.U. after   13 cycles
 Normal termination of Gaussian 16 at Wed Apr  9 18:31:28 2025.
 Gaussian 16:  ES64L-G16RevC.01  3-Jul-2019

 ----------------------------------------------------------------------
 #t hf aug-cc-pvdz iop(5/13=1,5/36=2,99/5=2) pseudo=read geom=check gue
 ss=(read,tcheck) scf=(maxcycle=1)
 ----------------------------------------------------------------------
 -----
 title
 -----
 Structure from the checkpoint file:  "Grambow2020_wb97xd3_007671_forward_mol2.chk"
 Charge =  0 Multiplicity = 1

                         Standard orientation:
 ---------------------------------------------------------------------
 Center     Atomic      Atomic             Coordinates (Angstroms)
 Number     Number       Type             X           Y           Z
 ---------------------------------------------------------------------
      1          6           0       -1.892944   -0.548552   -0.301538
      2          6           0       -0.705916   -0.445608    0.631007
      3          6           0        0.561354   -1.213055    0.268882
      4          8           0        1.045436   -0.668873   -0.955285
      5          6           0        1.379387    0.000441    0.257355
      6          6           0        0.170479    0.867236    0.596653
      7          8           0       -0.158308    1.876427   -0.307908
      8          1           0       -2.388912   -1.515515   -0.196892
      9          1           0       -1.584924   -0.443856   -1.342979
     10          1           0       -2.621460    0.234401   -0.085677
     11          1           0       -1.000138   -0.653474    1.662279
     12          1           0        0.842131   -2.232812    0.497398
     13          1           0        2.429498    0.155642    0.467673
     14          1           0        0.240598    1.327774    1.581844
     15          1           0       -0.087981    1.504636   -1.192254
 ---------------------------------------------------------------------

 SCF Done:  E(RHF) =  -344.038239369     A.U. after    2 cycles

 The electronic state is 1-A.
 Alpha  occ. eigenvalues --  -20.56757 -20.55011 -11.29837 -11.29697 -11.29401
 Alpha  occ. eigenvalues --  -11.24749 -11.22677  -1.51674  -1.45638  -1.10743
 Alpha  occ. eigenvalues --   -0.98815  -0.89534  -0.85480  -0.78188  -0.74408
 Alpha  occ. eigenvalues --   -0.66895  -0.64310  -0.62711  -0.60239  -0.56567
 Alpha  occ. eigenvalues --   -0.54954  -0.53325  -0.51091  -0.49046  -0.46387
 Alpha  occ. eigenvalues --   -0.42383  -0.40752
 Alpha virt. eigenvalues --    0.03094   0.03725   0.03958   0.04507   0.05991
 Alpha virt. eigenvalues --    0.06324   0.06885   0.07945   0.10223   0.12380
 Alpha virt. eigenvalues --    0.12835   0.13706   0.13944   0.14277   0.14596

 Mulliken charges:
               1
     1  C   -0.321608
     2  C   -0.609931
     3  C    0.873626
     4  O   -1.345238
     5  C    0.525869
     6  C    1.560868
     7  O   -1.457382
     8  H    0.160498
     9  H    0.183222
    10  H    0.191941
    11  H    0.084616
    12  H   -0.099594
    13  H   -0.111583
    14  H    0.076902
    15  H    0.287793
 Sum of Mulliken charges =   0.00000

 Dipole moment (field-independent basis, Debye):
    X=              0.0485    Y=             -1.4633    Z=              1.5985  Tot=              2.1677

 Test job not archived.
 1\1\GINC-SE219\SP\RHF\Aug-CC-pVDZ\C5H8O2\OHZDE\09-Apr-2025\0\\#t hf au
 g-cc-pvdz iop(5/13=1,5/36=2,99/5=2) pseudo=read geom=check guess=(read
 ,tcheck) scf=(maxcycle=1)\\title\\0,1\C,0,1.64413781,-0.56825317,0.142
 17219\C,0,0.43469572,0.22045423,0.59434913\C,0,-0.07545471,1.33641228,
 -0.31144747\O,0,-0.50405341,0.72754656,-1.52579512\C,0,-1.40563662,0.7
 362882,-0.42258562\C,0,-0.99278196,-0.44004252,0.45702382\O,0,-1.09771
 269,-1.71413746,-0.10017403\H,0,2.55860316,0.01576523,0.26311864\H,0,1
 .56255537,-0.84408659,-0.91029973\H,0,1.74513538,-1.48581719,0.7237418

 Normal termination of Gaussian 16 at Wed Apr  9 18:31:34 2025.
