 Gaussian 16, Revision C.01,

 ----------------------------------------------------------------------
 #t hf aug-cc-pvdz symm=none int=(grid=ultrafine) guess=(read,tcheck) s
 table=(opt,rrhf)
 ----------------------------------------------------------------------
 -----
 title
 -----
 Symbolic Z-matrix:
 Charge =  0 Multiplicity = 1

 SCF Done:  E(RHF) =  -342.335189823     A.U. after   16 cycles
 Normal termination of Gaussian 16 at Wed Apr  9 03:59:40 2025.
 Gaussian 16:  ES64L-G16RevC.01  3-Jul-2019

 ----------------------------------------------------------------------
 #t hf aug-cc-pvdz iop(5/13=1,5/36=2,99/5=2) pseudo=read geom=check gue
 ss=(read,tcheck) scf=(maxcycle=1)
 ----------------------------------------------------------------------
 -----
 title
 -----
 Structure from the checkpoint file:  "Grambow2020_wb97xd3_008767_reverse_mol1.chk"
 Charge =  0 Multiplicity = 1

                         Standard orientation:
 ---------------------------------------------------------------------
 Center     Atomic      Atomic             Coordinates (Angstroms)
 Number     Number       Type             X           Y           Z
 ---------------------------------------------------------------------
      1          8           0       -1.389029    1.179069   -0.086634
      2          6           0       -1.424456   -0.072954    0.149069
      3          6           0       -0.288883   -0.870634    0.619239
      4          8           0       -0.298351   -1.041230   -0.813605
      5          6           0        1.378025   -0.101384   -0.629282
      6          6           0        1.124895    1.086549    0.009839
      7          6           0        1.052696   -0.207149    0.806857
      8          1           0       -2.387584   -0.574129    0.047527
      9          1           0       -0.488745   -1.771719    1.197167
     10          1           0        2.006041   -0.562713   -1.371711
     11          1           0        1.789906    1.930766    0.098194
     12          1           0       -0.234431    1.401322   -0.062005
     13          1           0        1.760191   -0.532809    1.558410
 ---------------------------------------------------------------------

 SCF Done:  E(RHF) =  -342.684150218     A.U. after    2 cycles

 The electronic state is 1-A.
 Alpha  occ. eigenvalues --  -20.54035 -20.53815 -11.37087 -11.33904 -11.30150
 Alpha  occ. eigenvalues --  -11.26412 -11.21735  -1.49369  -1.41861  -1.18752
 Alpha  occ. eigenvalues --   -0.98500  -0.88162  -0.82511  -0.78727  -0.74147
 Alpha  occ. eigenvalues --   -0.69189  -0.66029  -0.61747  -0.59283  -0.57310
 Alpha  occ. eigenvalues --   -0.53200  -0.49549  -0.46732  -0.43626  -0.39207
 Alpha  occ. eigenvalues --   -0.33182
 Alpha virt. eigenvalues --    0.02987   0.03517   0.04144   0.04537   0.05824
 Alpha virt. eigenvalues --    0.07103   0.07963   0.09269   0.10276   0.12360
 Alpha virt. eigenvalues --    0.13177   0.13416   0.14091   0.14221   0.14682

 Mulliken charges:
               1
     1  O   -1.650091
     2  C    1.074020
     3  C    1.114569
     4  O   -1.327308
     5  C    0.604133
     6  C   -0.104599
     7  C    0.032081
     8  H    0.057772
     9  H   -0.070568
    10  H   -0.182694
    11  H   -0.220346
    12  H    0.855520
    13  H   -0.182488
 Sum of Mulliken charges =  -0.00000

 Dipole moment (field-independent basis, Debye):
    X=              2.0524    Y=             -1.3114    Z=              1.6146  Tot=              2.9222

 Test job not archived.
 1\1\GINC-SE335\SP\RHF\Aug-CC-pVDZ\C5H6O2\OHZDE\09-Apr-2025\0\\#t hf au
 g-cc-pvdz iop(5/13=1,5/36=2,99/5=2) pseudo=read geom=check guess=(read
 ,tcheck) scf=(maxcycle=1)\\title\\0,1\O,0,0.86481936,1.7256705,0.49984
 918\C,0,1.48843523,0.72438657,0.01724382\C,0,0.85733341,-0.40545012,-0
 .66982135\O,0,1.01761362,-0.84059589,0.69663121\C,0,-0.91089261,-0.809
 12481,0.6106291\C,0,-1.29377629,0.45620832,0.24175599\C,0,-0.64519354,
 -0.44756671,-0.79585555\H,0,2.57748874,0.74025493,0.07027399\H,0,1.438
 7846,-0.95824428,-1.40618612\H,0,-1.20142422,-1.65709923,1.20641495\H,

 Normal termination of Gaussian 16 at Wed Apr  9 03:59:44 2025.
