 Gaussian 16, Revision C.01,

 ----------------------------------------------------------------------
 #t hf aug-cc-pvdz symm=none int=(grid=ultrafine) guess=(read,tcheck) s
 table=(opt,rrhf)
 ----------------------------------------------------------------------
 -----
 title
 -----
 Symbolic Z-matrix:
 Charge =  0 Multiplicity = 1

 SCF Done:  E(RHF) =  -343.566217628     A.U. after   15 cycles
 Normal termination of Gaussian 16 at Wed Apr  9 18:51:48 2025.
 Gaussian 16:  ES64L-G16RevC.01  3-Jul-2019

 ----------------------------------------------------------------------
 #t hf aug-cc-pvdz iop(5/13=1,5/36=2,99/5=2) pseudo=read geom=check gue
 ss=(read,tcheck) scf=(maxcycle=1)
 ----------------------------------------------------------------------
 -----
 title
 -----
 Structure from the checkpoint file:  "Grambow2020_wb97xd3_008130_reverse_mol2.chk"
 Charge =  0 Multiplicity = 1

                         Standard orientation:
 ---------------------------------------------------------------------
 Center     Atomic      Atomic             Coordinates (Angstroms)
 Number     Number       Type             X           Y           Z
 ---------------------------------------------------------------------
      1          6           0       -1.626096   -0.794724    0.784937
      2          8           0       -1.467121   -0.439557   -0.501348
      3          6           0       -0.735261    0.496101   -0.942578
      4          6           0        1.803004   -0.892680   -0.667439
      5          6           0        1.353715   -0.544665    0.531168
      6          6           0        0.855020    0.830734    0.836674
      7          8           0       -0.100270    1.345039   -0.153387
      8          1           0       -2.397773   -1.541238    0.884962
      9          1           0       -1.535746    0.002617    1.508538
     10          1           0       -0.729897    0.647643   -2.010735
     11          1           0        1.889102   -0.173742   -1.475136
     12          1           0        2.105266   -1.909629   -0.881932
     13          1           0        1.273967   -1.272084    1.330663
     14          1           0        0.376076    0.864336    1.813433
     15          1           0        1.655840    1.569641    0.811520
 ---------------------------------------------------------------------

 SCF Done:  E(RHF) =  -343.914902485     A.U. after    2 cycles

 The electronic state is 1-A.
 Alpha  occ. eigenvalues --  -20.66178 -20.60036 -11.38955 -11.31487 -11.24990
 Alpha  occ. eigenvalues --  -11.24168 -11.23094  -1.60734  -1.51073  -1.08639
 Alpha  occ. eigenvalues --   -1.01838  -0.95445  -0.83204  -0.78056  -0.76047
 Alpha  occ. eigenvalues --   -0.71535  -0.69466  -0.66389  -0.63251  -0.60440
 Alpha  occ. eigenvalues --   -0.58932  -0.58094  -0.52282  -0.50769  -0.48257
 Alpha  occ. eigenvalues --   -0.38587  -0.24483
 Alpha virt. eigenvalues --    0.03347   0.03864   0.04244   0.04541   0.05992
 Alpha virt. eigenvalues --    0.06413   0.06623   0.07468   0.09750   0.10327
 Alpha virt. eigenvalues --    0.11667   0.12305   0.12627   0.13476   0.14652

 Mulliken charges:
               1
     1  C    0.151890
     2  O   -0.860354
     3  C    1.486089
     4  C   -0.103449
     5  C    0.524523
     6  C    0.380701
     7  O   -1.252551
     8  H   -0.125346
     9  H    0.011608
    10  H   -0.013267
    11  H   -0.070358
    12  H   -0.113182
    13  H   -0.193239
    14  H    0.138364
    15  H    0.038571
 Sum of Mulliken charges =  -0.00000

 Dipole moment (field-independent basis, Debye):
    X=              1.5065    Y=              1.1242    Z=             -1.0232  Tot=              2.1402

 Test job not archived.
 1\1\GINC-SE104\SP\RHF\Aug-CC-pVDZ\C5H8O2\OHZDE\09-Apr-2025\0\\#t hf au
 g-cc-pvdz iop(5/13=1,5/36=2,99/5=2) pseudo=read geom=check guess=(read
 ,tcheck) scf=(maxcycle=1)\\title\\0,1\C,0,-1.55327317,1.27593811,0.321
 33909\O,0,-0.96424466,1.22218719,-0.88535127\C,0,0.26555975,1.02461612
 ,-1.11838495\C,0,0.25321383,-1.84029226,-0.62915024\C,0,0.14305821,-1.
 19148045,0.52260626\C,0,1.03654862,-0.05258556,0.89455471\O,0,1.176341
 26,0.95697187,-0.16306579\H,0,-2.58476796,1.57740855,0.23241006\H,0,-0
 .93963417,1.64819738,1.12904171\H,0,0.57008024,1.01785491,-2.15336092\

 Normal termination of Gaussian 16 at Wed Apr  9 18:51:53 2025.
