 Gaussian 16, Revision C.01,

 ----------------------------------------------------------------------
 #t hf aug-cc-pvdz symm=none int=(grid=ultrafine) guess=(read,tcheck) s
 table=(opt,rrhf)
 ----------------------------------------------------------------------
 -----
 title
 -----
 Symbolic Z-matrix:
 Charge =  0 Multiplicity = 1

 SCF Done:  E(RHF) =  -322.590932059     A.U. after   16 cycles
 Normal termination of Gaussian 16 at Wed Apr  9 18:01:40 2025.
 Gaussian 16:  ES64L-G16RevC.01  3-Jul-2019

 ----------------------------------------------------------------------
 #t hf aug-cc-pvdz iop(5/13=1,5/36=2,99/5=2) pseudo=read geom=check gue
 ss=(read,tcheck) scf=(maxcycle=1)
 ----------------------------------------------------------------------
 -----
 title
 -----
 Structure from the checkpoint file:  "Grambow2020_wb97xd3_006940_forward_mol1.chk"
 Charge =  0 Multiplicity = 1

                         Standard orientation:
 ---------------------------------------------------------------------
 Center     Atomic      Atomic             Coordinates (Angstroms)
 Number     Number       Type             X           Y           Z
 ---------------------------------------------------------------------
      1          8           0       -2.349840   -0.177653   -0.673159
      2          6           0       -1.646373    0.582955   -0.056977
      3          7           0       -0.628234    0.232063    0.825561
      4          6           0       -0.129135   -0.994499    0.696377
      5          6           0        1.590205   -1.082385   -0.454287
      6          6           0        1.867711    0.236839   -0.348513
      7          6           0        1.560769    1.409773   -0.015017
      8          1           0       -1.793449    1.674780   -0.109750
      9          1           0        0.479556    1.142742    0.567547
     10          1           0       -0.636150   -1.686733    0.029587
     11          1           0        0.348752   -1.416277    1.573650
     12          1           0        2.156883   -1.792823    0.136883
     13          1           0        1.239051   -1.450447   -1.412729
     14          1           0        1.942661    2.409443   -0.108336
 ---------------------------------------------------------------------

 SCF Done:  E(RHF) =  -322.921411266     A.U. after    2 cycles

 The electronic state is 1-A.
 Alpha  occ. eigenvalues --  -20.52306 -15.49387 -11.34959 -11.32127 -11.29671
 Alpha  occ. eigenvalues --  -11.27651 -11.25429  -1.46789  -1.23555  -1.10984
 Alpha  occ. eigenvalues --   -0.99569  -0.93929  -0.78966  -0.73908  -0.73621
 Alpha  occ. eigenvalues --   -0.67738  -0.66043  -0.65564  -0.63281  -0.60849
 Alpha  occ. eigenvalues --   -0.54410  -0.48277  -0.44152  -0.41918  -0.41558
 Alpha  occ. eigenvalues --   -0.38437
 Alpha virt. eigenvalues --    0.03145   0.03423   0.04072   0.04776   0.05239
 Alpha virt. eigenvalues --    0.06125   0.07163   0.07614   0.09040   0.09927
 Alpha virt. eigenvalues --    0.11180   0.12250   0.13231   0.13587   0.14042

 Mulliken charges:
               1
     1  O   -1.057117
     2  C    0.626220
     3  N    0.446913
     4  C   -0.564884
     5  C   -0.468906
     6  C    0.390422
     7  C   -0.259963
     8  H    0.056134
     9  H    0.715721
    10  H    0.151666
    11  H    0.028222
    12  H    0.115407
    13  H    0.062118
    14  H   -0.241954
 Sum of Mulliken charges =  -0.00000

 Dipole moment (field-independent basis, Debye):
    X=              3.6457    Y=             -0.2591    Z=              0.2820  Tot=              3.6658

 Test job not archived.
 1\1\GINC-SE131\SP\RHF\Aug-CC-pVDZ\C5H7N1O1\OHZDE\09-Apr-2025\0\\#t hf
 aug-cc-pvdz iop(5/13=1,5/36=2,99/5=2) pseudo=read geom=check guess=(re
 ad,tcheck) scf=(maxcycle=1)\\title\\0,1\O,0,-1.82794417,-0.71015345,-1
 .65008168\C,0,-1.55430571,0.28925022,-1.03413918\N,0,-1.1839942,0.3553
 9016,0.3064206\C,0,-0.72056704,-0.76764823,0.84887921\C,0,1.34564865,-
 0.90396284,0.85614008\C,0,1.5495336,0.4197376,0.66960189\C,0,1.1358224
 9,1.57760498,0.40617459\H,0,-1.62620655,1.2883488,-1.49580076\H,0,-0.0
 9397713,1.31862975,0.39091719\H,0,-0.80025004,-1.68594764,0.27334687\H

 Normal termination of Gaussian 16 at Wed Apr  9 18:01:44 2025.
