 Gaussian 16, Revision C.01,

 ----------------------------------------------------------------------
 #t hf aug-cc-pvdz symm=none int=(grid=ultrafine) guess=(read,tcheck) s
 table=(opt,rrhf)
 ----------------------------------------------------------------------
 -----
 title
 -----
 Symbolic Z-matrix:
 Charge =  0 Multiplicity = 1

 SCF Done:  E(RHF) =  -323.734985976     A.U. after   16 cycles
 Normal termination of Gaussian 16 at Wed Apr  9 17:54:48 2025.
 Gaussian 16:  ES64L-G16RevC.01  3-Jul-2019

 ----------------------------------------------------------------------
 #t hf aug-cc-pvdz iop(5/13=1,5/36=2,99/5=2) pseudo=read geom=check gue
 ss=(read,tcheck) scf=(maxcycle=1)
 ----------------------------------------------------------------------
 -----
 title
 -----
 Structure from the checkpoint file:  "Grambow2020_wb97xd3_006869_reverse_mol2.chk"
 Charge =  0 Multiplicity = 1

                         Standard orientation:
 ---------------------------------------------------------------------
 Center     Atomic      Atomic             Coordinates (Angstroms)
 Number     Number       Type             X           Y           Z
 ---------------------------------------------------------------------
      1          6           0        1.796447    0.886298   -0.931489
      2          7           0        1.247345    0.175511   -0.006203
      3          6           0        1.047524   -0.274575    1.216712
      4          6           0        0.145982   -0.764405    0.136490
      5          6           0       -1.239196   -0.220961   -0.107076
      6          8           0       -2.071139   -0.941261   -0.599852
      7          6           0       -1.565588    1.175333    0.362484
      8          1           0        3.415906   -2.063084   -0.271376
      9          1           0        2.559263    1.600692   -0.658702
     10          1           0        1.503031    0.717123   -1.955534
     11          1           0        3.048224   -1.836856    0.339897
     12          1           0        0.903664    0.302516    2.115943
     13          1           0        0.291760   -1.763431   -0.269863
     14          1           0       -2.380864    1.567872   -0.241460
     15          1           0       -1.905929    1.119860    1.399514
     16          1           0       -0.708371    1.846679    0.321094
 ---------------------------------------------------------------------

 SCF Done:  E(RHF) =  -324.074477756     A.U. after    2 cycles

 The electronic state is 1-A.
 Alpha  occ. eigenvalues --  -20.54269 -15.62834 -11.34630 -11.30487 -11.29801
 Alpha  occ. eigenvalues --  -11.25959 -11.24843  -1.48143  -1.37925  -1.11988
 Alpha  occ. eigenvalues --   -1.02906  -0.93244  -0.81360  -0.78068  -0.72509
 Alpha  occ. eigenvalues --   -0.70932  -0.68256  -0.63101  -0.61565  -0.60099
 Alpha  occ. eigenvalues --   -0.57426  -0.56337  -0.53620  -0.53252  -0.47885
 Alpha  occ. eigenvalues --   -0.42384  -0.29815
 Alpha virt. eigenvalues --    0.03013   0.03956   0.04028   0.04425   0.05595
 Alpha virt. eigenvalues --    0.05915   0.06323   0.06851   0.07620   0.08566
 Alpha virt. eigenvalues --    0.10205   0.11641   0.12081   0.12788   0.14248

 Mulliken charges:
               1
     1  C   -0.048966
     2  N    1.684519
     3  C   -0.218907
     4  C   -0.275693
     5  C    0.979115
     6  O   -1.360769
     7  C   -0.574701
     8  H   -0.012198
     9  H    0.004912
    10  H   -0.030413
    11  H    0.029315
    12  H   -0.391726
    13  H   -0.397851
    14  H    0.143545
    15  H    0.287395
    16  H    0.182424
 Sum of Mulliken charges =  -0.00000

 Dipole moment (field-independent basis, Debye):
    X=              1.4407    Y=              3.1602    Z=              0.0626  Tot=              3.4737

 Test job not archived.
 1\1\GINC-SE131\SP\RHF\Aug-CC-pVDZ\C5H9N1O1\OHZDE\09-Apr-2025\0\\#t hf
 aug-cc-pvdz iop(5/13=1,5/36=2,99/5=2) pseudo=read geom=check guess=(re
 ad,tcheck) scf=(maxcycle=1)\\title\\0,1\C,0,0.62991306,0.56328575,-1.7
 6127318\N,0,0.6993303,0.04663987,-0.58180608\C,0,1.20121092,-0.1681772
 1,0.6181928\C,0,-0.09153976,-0.82408961,0.27443989\C,0,-1.43671603,-0.
 30003696,0.70946117\O,0,-2.34657862,-1.07725032,0.85737444\C,0,-1.5742
 8875,1.16604222,1.03861399\H,0,2.57252611,-2.25568109,-1.56909537\H,0,
 1.36673002,1.29634537,-2.05518247\H,0,-0.14083315,0.2177789,-2.4320620

 Normal termination of Gaussian 16 at Wed Apr  9 17:54:53 2025.
