 Gaussian 16, Revision C.01,

 ----------------------------------------------------------------------
 #t hf aug-cc-pvdz symm=none int=(grid=ultrafine) guess=(read,tcheck) s
 table=(opt,rrhf)
 ----------------------------------------------------------------------
 -----
 title
 -----
 Symbolic Z-matrix:
 Charge =  0 Multiplicity = 1

 SCF Done:  E(RHF) =  -231.779617690     A.U. after   12 cycles
 Normal termination of Gaussian 16 at Wed Apr  9 15:51:52 2025.
 Gaussian 16:  ES64L-G16RevC.01  3-Jul-2019

 ----------------------------------------------------------------------
 #t hf aug-cc-pvdz iop(5/13=1,5/36=2,99/5=2) pseudo=read geom=check gue
 ss=(read,tcheck) scf=(maxcycle=1)
 ----------------------------------------------------------------------
 -----
 title
 -----
 Structure from the checkpoint file:  "Grambow2020_b97d3_006870_forward_mol2.chk"
 Charge =  0 Multiplicity = 1

                         Standard orientation:
 ---------------------------------------------------------------------
 Center     Atomic      Atomic             Coordinates (Angstroms)
 Number     Number       Type             X           Y           Z
 ---------------------------------------------------------------------
      1          6           0        1.228902   -0.631138   -0.345463
      2          6           0        0.768565    0.826686   -0.368689
      3          6           0       -0.770410    0.826119   -0.367421
      4          6           0       -1.228043   -0.632520   -0.345138
      5          6           0        0.000613   -0.889830    0.575107
      6          6           0       -0.000138    0.658689    0.922582
      7          1           0        2.173138   -0.736416    0.205503
      8          1           0        1.279050   -1.194009   -1.291595
      9          1           0        1.322543    1.704406   -0.697286
     10          1           0       -1.325773    1.702481   -0.697181
     11          1           0       -2.172266   -0.740739    0.205506
     12          1           0       -1.276379   -1.193619   -1.292431
     13          1           0        0.000702   -1.715944    1.291982
     14          1           0        0.002050    1.225803    1.849634
 ---------------------------------------------------------------------

 SCF Done:  E(RHF) =  -232.029651172     A.U. after    2 cycles

 The electronic state is 1-A.
 Alpha  occ. eigenvalues --  -11.24222 -11.23666 -11.23632 -11.23367 -11.23108
 Alpha  occ. eigenvalues --  -11.23067  -1.22859  -0.96812  -0.96002  -0.84974
 Alpha  occ. eigenvalues --   -0.74167  -0.72498  -0.70480  -0.61264  -0.60137
 Alpha  occ. eigenvalues --   -0.57531  -0.52516  -0.48887  -0.45045  -0.44395
 Alpha  occ. eigenvalues --   -0.39591  -0.37347
 Alpha virt. eigenvalues --    0.03603   0.03679   0.03959   0.04069   0.06030
 Alpha virt. eigenvalues --    0.06096   0.06450   0.07044   0.11108   0.12624
 Alpha virt. eigenvalues --    0.12697   0.12946   0.14187   0.14191   0.15131

 Mulliken charges:
               1
     1  C   -0.145395
     2  C    0.316894
     3  C    0.316610
     4  C   -0.146402
     5  C    0.163803
     6  C    0.131709
     7  H    0.080470
     8  H    0.016913
     9  H   -0.213017
    10  H   -0.213226
    11  H    0.080120
    12  H    0.017509
    13  H   -0.137611
    14  H   -0.268378
 Sum of Mulliken charges =  -0.00000

 Dipole moment (field-independent basis, Debye):
    X=              0.0006    Y=              0.1081    Z=              0.2189  Tot=              0.2441

 Test job not archived.
 1\1\GINC-SE163\SP\RHF\Aug-CC-pVDZ\C6H8\OHZDE\09-Apr-2025\0\\#t hf aug-
 cc-pvdz iop(5/13=1,5/36=2,99/5=2) pseudo=read geom=check guess=(read,t
 check) scf=(maxcycle=1)\\title\\0,1\C,0,-1.17365639,-0.23099073,0.7153
 2253\C,0,-0.46384139,1.07283265,0.34938707\C,0,0.98506945,0.72000286,-
 0.0308965\C,0,1.13989125,-0.79451211,0.10991213\C,0,-0.32319229,-0.882
 86358,-0.41376359\C,0,-0.13349301,0.56472968,-1.03596851\H,0,-2.237075
 93,-0.18911014,0.44400211\H,0,-1.05942337,-0.63771185,1.73317905\H,0,-
 0.73089902,2.08946049,0.63294802\H,0,1.76283836,1.48165918,-0.01930196

 Normal termination of Gaussian 16 at Wed Apr  9 15:51:56 2025.
