 Gaussian 16, Revision C.01,

 ----------------------------------------------------------------------
 #t hf aug-cc-pvdz symm=none int=(grid=ultrafine) guess=(read,tcheck) s
 table=(opt,rrhf)
 ----------------------------------------------------------------------
 -----
 title
 -----
 Symbolic Z-matrix:
 Charge =  0 Multiplicity = 1

 SCF Done:  E(RHF) =  -281.157757800     A.U. after   17 cycles
 Normal termination of Gaussian 16 at Wed Apr  9 03:05:35 2025.
 Gaussian 16:  ES64L-G16RevC.01  3-Jul-2019

 ----------------------------------------------------------------------
 #t hf aug-cc-pvdz iop(5/13=1,5/36=2,99/5=2) pseudo=read geom=check gue
 ss=(read,tcheck) scf=(maxcycle=1)
 ----------------------------------------------------------------------
 -----
 title
 -----
 Structure from the checkpoint file:  "Grambow2020_b97d3_006502_forward_mol1.chk"
 Charge =  0 Multiplicity = 1

                         Standard orientation:
 ---------------------------------------------------------------------
 Center     Atomic      Atomic             Coordinates (Angstroms)
 Number     Number       Type             X           Y           Z
 ---------------------------------------------------------------------
      1          8           0        2.066738   -0.649119   -0.005534
      2          6           0        1.127919    0.039637    0.000755
      3          6           0        0.461487    1.250266   -0.000406
      4          6           0       -0.820245    1.213543    0.002570
      5          6           0       -0.867397   -1.053236    0.022032
      6          7           0       -2.022515   -0.742322   -0.016025
      7          1           0       -1.786885    1.687950    0.006741
 ---------------------------------------------------------------------

 SCF Done:  E(RHF) =  -281.417201103     A.U. after    2 cycles

 The electronic state is 1-A.
 Alpha  occ. eigenvalues --  -20.70181 -15.50600 -11.51098 -11.42641 -11.31458
 Alpha  occ. eigenvalues --  -11.25527  -1.62958  -1.21674  -1.16943  -0.95533
 Alpha  occ. eigenvalues --   -0.82366  -0.76930  -0.71193  -0.68590  -0.63433
 Alpha  occ. eigenvalues --   -0.56234  -0.51340  -0.47361  -0.46964  -0.42536
 Alpha virt. eigenvalues --   -0.00466  -0.00396   0.03215   0.05565   0.07109
 Alpha virt. eigenvalues --    0.09380   0.09768   0.10083   0.11194   0.12322
 Alpha virt. eigenvalues --    0.12426   0.13578   0.14356   0.15323   0.15401

 Mulliken charges:
               1
     1  O   -0.759731
     2  C    0.723175
     3  C    0.559374
     4  C    0.226532
     5  C   -1.071979
     6  N    0.391215
     7  H   -0.068587
 Sum of Mulliken charges =  -0.00000

 Dipole moment (field-independent basis, Debye):
    X=              2.1183    Y=              3.1520    Z=              0.0345  Tot=              3.7978

 Test job not archived.
 1\1\GINC-SE132\SP\RHF\Aug-CC-pVDZ\C4H1N1O1\OHZDE\09-Apr-2025\0\\#t hf
 aug-cc-pvdz iop(5/13=1,5/36=2,99/5=2) pseudo=read geom=check guess=(re
 ad,tcheck) scf=(maxcycle=1)\\title\\0,1\O,0,-1.18252515,-2.18217143,0.
 25152537\C,0,-0.3880449,-1.33847928,0.13842792\C,0,0.89102257,-0.82906
 12,0.01911203\C,0,1.00683422,0.44279633,-0.09560707\C,0,-1.23348282,0.
 77062888,0.02437852\N,0,-0.79043346,1.87088771,-0.13546557\H,0,1.59201
 254,1.34023898,-0.20347221\\Version=ES64L-G16RevC.01\State=1-A\HF=-281
 .4172011\RMSD=1.683e-02\Dipole=1.1312152,-0.975598,0.0336856\Quadrupol

 Normal termination of Gaussian 16 at Wed Apr  9 03:05:38 2025.
