 Gaussian 16, Revision C.01,

 ----------------------------------------------------------------------
 #t hf aug-cc-pvdz symm=none int=(grid=ultrafine) guess=(read,tcheck) s
 table=(opt,rrhf)
 ----------------------------------------------------------------------
 -----
 title
 -----
 Symbolic Z-matrix:
 Charge =  0 Multiplicity = 1

 SCF Done:  E(RHF) =  -286.678443164     A.U. after   17 cycles
 Normal termination of Gaussian 16 at Wed Apr  9 18:26:35 2025.
 Gaussian 16:  ES64L-G16RevC.01  3-Jul-2019

 ----------------------------------------------------------------------
 #t hf aug-cc-pvdz iop(5/13=1,5/36=2,99/5=2) pseudo=read geom=check gue
 ss=(read,tcheck) scf=(maxcycle=1)
 ----------------------------------------------------------------------
 -----
 title
 -----
 Structure from the checkpoint file:  "Grambow2020_wb97xd3_007561_reverse_mol1.chk"
 Charge =  0 Multiplicity = 1

                         Standard orientation:
 ---------------------------------------------------------------------
 Center     Atomic      Atomic             Coordinates (Angstroms)
 Number     Number       Type             X           Y           Z
 ---------------------------------------------------------------------
      1          6           0        1.150727   -0.616870    1.211069
      2          6           0        0.648860   -0.002597   -0.087772
      3          6           0       -0.434645   -1.117268   -0.767782
      4          6           0       -1.615118   -0.592694   -0.175719
      5          6           0       -1.938319    0.460639    0.397696
      6          6           0       -0.122188    1.254823    0.069807
      7          7           0        1.565525    0.562728   -0.926044
      8          1           0        0.334599   -0.990279    1.831509
      9          1           0        1.703048    0.131407    1.784341
     10          1           0        1.826501   -1.445843    0.990059
     11          1           0       -0.134214   -2.116595   -0.460239
     12          1           0       -0.412203   -1.021361   -1.852380
     13          1           0       -2.685503    1.087838    0.839953
     14          1           0       -0.407986    1.750108   -0.847924
     15          1           0        0.168455    1.920636    0.880020
     16          1           0        2.512722    0.428797   -0.566830
 ---------------------------------------------------------------------

 SCF Done:  E(RHF) =  -286.977839488     A.U. after    2 cycles

 The electronic state is 1-A.
 Alpha  occ. eigenvalues --  -15.46500 -11.29962 -11.28536 -11.27610 -11.25932
 Alpha  occ. eigenvalues --  -11.25901 -11.23107  -1.20653  -1.10107  -0.98650
 Alpha  occ. eigenvalues --   -0.96501  -0.93495  -0.76774  -0.74333  -0.67470
 Alpha  occ. eigenvalues --   -0.64067  -0.63728  -0.60619  -0.59867  -0.56426
 Alpha  occ. eigenvalues --   -0.52804  -0.51694  -0.45668  -0.40841  -0.39823
 Alpha  occ. eigenvalues --   -0.32237
 Alpha virt. eigenvalues --    0.02177   0.03265   0.03840   0.04307   0.04540
 Alpha virt. eigenvalues --    0.05542   0.06129   0.06479   0.07470   0.08271
 Alpha virt. eigenvalues --    0.10383   0.11839   0.12855   0.13316   0.14330

 Mulliken charges:
               1
     1  C   -0.198848
     2  C   -2.323345
     3  C   -0.484629
     4  C    0.284013
     5  C    0.260444
     6  C    0.392649
     7  N    0.900682
     8  H    0.269800
     9  H    0.147062
    10  H    0.175521
    11  H    0.171320
    12  H    0.181187
    13  H   -0.216830
    14  H    0.158874
    15  H    0.017343
    16  H    0.264758
 Sum of Mulliken charges =   0.00000

 Dipole moment (field-independent basis, Debye):
    X=             -1.9825    Y=             -0.1747    Z=              2.5310  Tot=              3.2198

 Test job not archived.
 1\1\GINC-SE229\SP\RHF\Aug-CC-pVDZ\C6H9N1\OHZDE\09-Apr-2025\0\\#t hf au
 g-cc-pvdz iop(5/13=1,5/36=2,99/5=2) pseudo=read geom=check guess=(read
 ,tcheck) scf=(maxcycle=1)\\title\\0,1\C,0,-0.59940048,1.46754679,0.342
 43958\C,0,-0.55591006,-0.0417821,0.15210757\C,0,0.40062607,-0.33315925
 ,-1.21866732\C,0,1.63847608,-0.48003612,-0.53647428\C,0,1.99835318,-0.
 66055035,0.63854809\C,0,0.09071512,-0.79470267,1.25457647\N,0,-1.72767
 429,-0.73455194,0.25011965\H,0,0.39427881,1.91610485,0.29953608\H,0,-1
 .04150684,1.70486569,1.31292408\H,0,-1.21858439,1.91967505,-0.43531649

 Normal termination of Gaussian 16 at Wed Apr  9 18:26:41 2025.
