 Gaussian 16, Revision C.01,

 ----------------------------------------------------------------------
 #t hf aug-cc-pvdz symm=none int=(grid=ultrafine) guess=(read,tcheck) s
 table=(opt,rrhf)
 ----------------------------------------------------------------------
 -----
 title
 -----
 Symbolic Z-matrix:
 Charge =  0 Multiplicity = 1

 SCF Done:  E(RHF) =  -380.781059759     A.U. after   13 cycles
 Normal termination of Gaussian 16 at Wed Apr  9 19:02:51 2025.
 Gaussian 16:  ES64L-G16RevC.01  3-Jul-2019

 ----------------------------------------------------------------------
 #t hf aug-cc-pvdz iop(5/13=1,5/36=2,99/5=2) pseudo=read geom=check gue
 ss=(read,tcheck) scf=(maxcycle=1)
 ----------------------------------------------------------------------
 -----
 title
 -----
 Structure from the checkpoint file:  "Grambow2020_wb97xd3_008483_forward_mol2.chk"
 Charge =  0 Multiplicity = 1

                         Standard orientation:
 ---------------------------------------------------------------------
 Center     Atomic      Atomic             Coordinates (Angstroms)
 Number     Number       Type             X           Y           Z
 ---------------------------------------------------------------------
      1          6           0        2.913925   -0.168809    0.006744
      2          8           0        1.606925   -0.739469    0.000132
      3          6           0        0.592067    0.133911   -0.004968
      4          8           0        0.746536    1.326458   -0.004410
      5          6           0       -0.735402   -0.572356   -0.009273
      6          6           0       -1.901730    0.391392    0.004235
      7          8           0       -3.083423   -0.388258    0.004174
      8          1           0        3.060264    0.444175    0.896224
      9          1           0        3.603085   -1.009164    0.005815
     10          1           0        3.067279    0.450133   -0.877444
     11          1           0       -0.785626   -1.217287   -0.889851
     12          1           0       -0.780926   -1.237318    0.856347
     13          1           0       -1.844150    1.030645    0.892072
     14          1           0       -1.853936    1.044602   -0.873966
     15          1           0       -3.839459    0.199544    0.011210
 ---------------------------------------------------------------------

 SCF Done:  E(RHF) =  -381.169135190     A.U. after    2 cycles

 The electronic state is 1-A.
 Alpha  occ. eigenvalues --  -20.59130 -20.55295 -20.53528 -11.38810 -11.29648
 Alpha  occ. eigenvalues --  -11.28967 -11.25014  -1.55150  -1.45727  -1.45419
 Alpha  occ. eigenvalues --   -1.07074  -0.97717  -0.87335  -0.78121  -0.73623
 Alpha  occ. eigenvalues --   -0.69296  -0.68808  -0.66505  -0.65569  -0.59768
 Alpha  occ. eigenvalues --   -0.57505  -0.57161  -0.52936  -0.52102  -0.50479
 Alpha  occ. eigenvalues --   -0.46028  -0.44468  -0.44372
 Alpha virt. eigenvalues --    0.03679   0.03711   0.04607   0.04881   0.05684
 Alpha virt. eigenvalues --    0.06705   0.06883   0.07491   0.10545   0.12202
 Alpha virt. eigenvalues --    0.13344   0.14436   0.14655   0.14998   0.15299

 Mulliken charges:
               1
     1  C    0.246532
     2  O   -1.334010
     3  C    2.147734
     4  O   -1.199461
     5  C   -0.975686
     6  C    0.998607
     7  O   -1.226451
     8  H    0.170609
     9  H    0.007063
    10  H    0.171126
    11  H    0.233471
    12  H    0.229734
    13  H    0.108375
    14  H    0.108982
    15  H    0.313376
 Sum of Mulliken charges =  -0.00000

 Dipole moment (field-independent basis, Debye):
    X=              0.3286    Y=             -0.2303    Z=              0.0122  Tot=              0.4015

 Test job not archived.
 1\1\GINC-SE117\SP\RHF\Aug-CC-pVDZ\C4H8O3\OHZDE\09-Apr-2025\0\\#t hf au
 g-cc-pvdz iop(5/13=1,5/36=2,99/5=2) pseudo=read geom=check guess=(read
 ,tcheck) scf=(maxcycle=1)\\title\\0,1\C,0,-2.8589994,-0.00371978,-0.21
 666892\O,0,-1.63055555,-0.21052944,0.47766548\C,0,-0.51852456,0.066822
 99,-0.214592\O,0,-0.52853996,0.46577341,-1.34894916\C,0,0.71399615,-0.
 18763946,0.60829711\C,0,1.98765548,0.09954267,-0.15631647\O,0,3.066781
 58,-0.18074554,0.71613712\H,0,-2.90950138,-0.63586193,-1.10333937\H,0,
 -3.64395836,-0.27018042,0.48616591\H,0,-2.95779982,1.0385879,-0.520359

 Normal termination of Gaussian 16 at Wed Apr  9 19:02:56 2025.
