 Gaussian 16, Revision C.01,

 ----------------------------------------------------------------------
 #t hf aug-cc-pvdz symm=none int=(grid=ultrafine) guess=(read,tcheck) s
 table=(opt,rrhf)
 ----------------------------------------------------------------------
 -----
 title
 -----
 Symbolic Z-matrix:
 Charge =  0 Multiplicity = 1

 SCF Done:  E(RHF) =  -268.710084301     A.U. after   18 cycles
 Normal termination of Gaussian 16 at Wed Apr  9 15:59:56 2025.
 Gaussian 16:  ES64L-G16RevC.01  3-Jul-2019

 ----------------------------------------------------------------------
 #t hf aug-cc-pvdz iop(5/13=1,5/36=2,99/5=2) pseudo=read geom=check gue
 ss=(read,tcheck) scf=(maxcycle=1)
 ----------------------------------------------------------------------
 -----
 title
 -----
 Structure from the checkpoint file:  "Grambow2020_b97d3_007076_reverse_mol1.chk"
 Charge =  0 Multiplicity = 1

                         Standard orientation:
 ---------------------------------------------------------------------
 Center     Atomic      Atomic             Coordinates (Angstroms)
 Number     Number       Type             X           Y           Z
 ---------------------------------------------------------------------
      1          6           0       -2.210926   -0.316238    0.219807
      2          6           0       -0.801466   -0.017231   -0.236523
      3          6           0        0.225744   -0.963226   -0.222543
      4          6           0        1.632931   -0.428091   -0.318749
      5          8           0        1.593040    0.388529    0.804551
      6          6           0       -0.324888    1.302639   -0.322713
      7          1           0       -2.495348    0.322747    1.070193
      8          1           0       -2.309678   -1.363366    0.534226
      9          1           0       -2.940650   -0.136060   -0.583442
     10          1           0        0.029646   -1.969599    0.155777
     11          1           0        1.843060    0.092595   -1.278604
     12          1           0        2.383736   -1.241289   -0.234788
     13          1           0        0.532420    1.600770   -0.915704
     14          1           0       -0.915870    2.118857    0.100259
 ---------------------------------------------------------------------

 SCF Done:  E(RHF) =  -268.989427090     A.U. after    2 cycles

 The electronic state is 1-A.
 Alpha  occ. eigenvalues --  -20.44212 -11.34241 -11.31847 -11.26694 -11.26620
 Alpha  occ. eigenvalues --  -11.25789  -1.31810  -1.13243  -0.98246  -0.96872
 Alpha  occ. eigenvalues --   -0.85514  -0.75872  -0.70218  -0.65412  -0.60919
 Alpha  occ. eigenvalues --   -0.58998  -0.57141  -0.55057  -0.54243  -0.49705
 Alpha  occ. eigenvalues --   -0.43532  -0.32959  -0.32050
 Alpha virt. eigenvalues --    0.00537   0.02939   0.03738   0.04019   0.04487
 Alpha virt. eigenvalues --    0.05712   0.05863   0.07887   0.08596   0.10405
 Alpha virt. eigenvalues --    0.11442   0.12866   0.13768   0.14294   0.14579

 Mulliken charges:
               1
     1  C   -0.743648
     2  C    0.686587
     3  C    0.074287
     4  C    0.361095
     5  O   -1.176425
     6  C    0.161502
     7  H    0.211401
     8  H    0.137767
     9  H    0.265216
    10  H   -0.109930
    11  H    0.246687
    12  H   -0.010455
    13  H   -0.015726
    14  H   -0.088357
 Sum of Mulliken charges =  -0.00000

 Dipole moment (field-independent basis, Debye):
    X=             -4.2717    Y=             -0.4458    Z=             -2.6827  Tot=              5.0638

 Test job not archived.
 1\1\GINC-SE174\SP\RHF\Aug-CC-pVDZ\C5H8O1\OHZDE\09-Apr-2025\0\\#t hf au
 g-cc-pvdz iop(5/13=1,5/36=2,99/5=2) pseudo=read geom=check guess=(read
 ,tcheck) scf=(maxcycle=1)\\title\\0,1\C,0,-1.84676392,0.26738316,-0.67
 676358\C,0,-0.53972723,0.10412007,0.06432991\C,0,0.62045234,0.80908345
 ,-0.26319754\C,0,1.91568022,0.26182273,0.283327\O,0,1.83406121,-1.0014
 8146,-0.28909293\C,0,-0.28258878,-1.03120959,0.85269386\H,0,-2.1621682
 8,-0.68213492,-1.13642592\H,0,-1.75703897,1.01691449,-1.47378351\H,0,-
 2.6542808,0.58867977,-0.00233534\H,0,0.61278241,1.50086938,-1.10921139

 Normal termination of Gaussian 16 at Wed Apr  9 16:00:00 2025.
