 Gaussian 16, Revision C.01,

 ----------------------------------------------------------------------
 #t hf aug-cc-pvdz symm=none int=(grid=ultrafine) guess=(read,tcheck) s
 table=(opt,rrhf)
 ----------------------------------------------------------------------
 -----
 title
 -----
 Symbolic Z-matrix:
 Charge =  0 Multiplicity = 1

 SCF Done:  E(RHF) =  -359.637933620     A.U. after   15 cycles
 Normal termination of Gaussian 16 at Wed Apr  9 03:52:36 2025.
 Gaussian 16:  ES64L-G16RevC.01  3-Jul-2019

 ----------------------------------------------------------------------
 #t hf aug-cc-pvdz iop(5/13=1,5/36=2,99/5=2) pseudo=read geom=check gue
 ss=(read,tcheck) scf=(maxcycle=1)
 ----------------------------------------------------------------------
 -----
 title
 -----
 Structure from the checkpoint file:  "Grambow2020_wb97xd3_008277_reverse_mol1.chk"
 Charge =  0 Multiplicity = 1

                         Standard orientation:
 ---------------------------------------------------------------------
 Center     Atomic      Atomic             Coordinates (Angstroms)
 Number     Number       Type             X           Y           Z
 ---------------------------------------------------------------------
      1          6           0       -2.364182   -0.561949    0.027768
      2          6           0       -1.052893    0.029670   -0.375771
      3          6           0       -0.513550    1.216284    0.390110
      4          7           0        0.806932    1.073489   -0.288621
      5          6           0        1.171074   -0.332190    0.009897
      6          8           0        2.293114   -0.711853    0.144268
      7          8           0        0.039913   -0.961187    0.006382
      8          1           0       -2.414697   -0.845412    1.088016
      9          1           0       -2.587520   -1.446130   -0.569970
     10          1           0       -3.152916    0.167651   -0.169018
     11          1           0        0.205593    0.860633   -1.244484
     12          1           0       -0.386052    1.121167    1.477255
     13          1           0       -0.983239    2.158782    0.116682
     14          1           0        1.563390    1.742317   -0.195360
 ---------------------------------------------------------------------

 SCF Done:  E(RHF) =  -360.005011236     A.U. after    2 cycles

 The electronic state is 1-A.
 Alpha  occ. eigenvalues --  -20.59234 -20.54953 -15.62378 -11.43661 -11.30600
 Alpha  occ. eigenvalues --  -11.25147 -11.21999  -1.56732  -1.48268  -1.31244
 Alpha  occ. eigenvalues --   -1.05247  -0.96141  -0.88431  -0.84568  -0.80564
 Alpha  occ. eigenvalues --   -0.72512  -0.67582  -0.67091  -0.61494  -0.60556
 Alpha  occ. eigenvalues --   -0.56590  -0.56360  -0.54112  -0.50655  -0.48473
 Alpha  occ. eigenvalues --   -0.47292  -0.30411
 Alpha virt. eigenvalues --    0.02082   0.03820   0.04229   0.04993   0.05924
 Alpha virt. eigenvalues --    0.06717   0.06933   0.09433   0.09974   0.11333
 Alpha virt. eigenvalues --    0.12422   0.12619   0.14024   0.14689   0.15470

 Mulliken charges:
               1
     1  C   -0.441936
     2  C   -0.003335
     3  C   -0.341856
     4  N    0.127538
     5  C    1.588815
     6  O   -1.174703
     7  O   -1.204694
     8  H    0.205178
     9  H    0.166136
    10  H    0.187815
    11  H    0.654080
    12  H    0.057118
    13  H    0.065488
    14  H    0.114355
 Sum of Mulliken charges =  -0.00000

 Dipole moment (field-independent basis, Debye):
    X=             -0.8564    Y=              4.6654    Z=              0.6064  Tot=              4.7820

 Test job not archived.
 1\1\GINC-SE402\SP\RHF\Aug-CC-pVDZ\C4H7N1O2\OHZDE\09-Apr-2025\0\\#t hf
 aug-cc-pvdz iop(5/13=1,5/36=2,99/5=2) pseudo=read geom=check guess=(re
 ad,tcheck) scf=(maxcycle=1)\\title\\0,1\C,0,-1.7319107,-1.00143099,-0.
 10514638\C,0,-0.4233856,-0.36221568,-0.43906667\C,0,-0.11820206,1.0164
 0091,0.10111315\N,0,1.30490727,0.88529765,-0.32586506\C,0,1.72563548,-
 0.37045263,0.34026158\O,0,2.83589197,-0.57867918,0.72124035\O,0,0.6656
 6226,-1.11282799,0.31764919\H,0,-1.9373239,-1.0530969,0.97289168\H,0,-
 1.77935154,-2.01371071,-0.50762001\H,0,-2.53241204,-0.42859932,-0.5786

 Normal termination of Gaussian 16 at Wed Apr  9 03:52:41 2025.
