 Gaussian 16, Revision C.01,

 ----------------------------------------------------------------------
 #t hf aug-cc-pvdz symm=none int=(grid=ultrafine) guess=(read,tcheck) s
 table=(opt,rrhf)
 ----------------------------------------------------------------------
 -----
 title
 -----
 Symbolic Z-matrix:
 Charge =  0 Multiplicity = 1

 SCF Done:  E(RHF) =  -322.553583956     A.U. after   15 cycles
 Normal termination of Gaussian 16 at Wed Apr  9 04:05:46 2025.
 Gaussian 16:  ES64L-G16RevC.01  3-Jul-2019

 ----------------------------------------------------------------------
 #t hf aug-cc-pvdz iop(5/13=1,5/36=2,99/5=2) pseudo=read geom=check gue
 ss=(read,tcheck) scf=(maxcycle=1)
 ----------------------------------------------------------------------
 -----
 title
 -----
 Structure from the checkpoint file:  "Grambow2020_wb97xd3_009201_reverse_mol1.chk"
 Charge =  0 Multiplicity = 1

                         Standard orientation:
 ---------------------------------------------------------------------
 Center     Atomic      Atomic             Coordinates (Angstroms)
 Number     Number       Type             X           Y           Z
 ---------------------------------------------------------------------
      1          8           0        1.992500   -0.968108   -0.274348
      2          6           0        1.812544    0.329757    0.236502
      3          6           0        0.540587    0.967713   -0.134776
      4          6           0       -0.489135    1.635369   -0.389326
      5          6           0       -1.030297    0.307322    0.482335
      6          6           0       -2.187361   -0.364556   -0.153677
      7          7           0       -0.972354   -1.117878    0.070593
      8          1           0        1.449242   -1.573161    0.238321
      9          1           0        1.916198    0.348847    1.327438
     10          1           0        2.603061    0.961273   -0.175094
     11          1           0       -1.060481    0.453180    1.554262
     12          1           0       -2.431086   -0.054184   -1.161795
     13          1           0       -3.027523   -0.635844    0.475355
     14          1           0       -0.460950   -1.183729   -0.804190
 ---------------------------------------------------------------------

 SCF Done:  E(RHF) =  -322.888457324     A.U. after    2 cycles

 The electronic state is 1-A.
 Alpha  occ. eigenvalues --  -20.57687 -15.52724 -11.33876 -11.32260 -11.28445
 Alpha  occ. eigenvalues --  -11.27849 -11.24230  -1.48407  -1.29874  -1.11674
 Alpha  occ. eigenvalues --   -0.99356  -0.92817  -0.83974  -0.75197  -0.71640
 Alpha  occ. eigenvalues --   -0.70309  -0.69071  -0.64952  -0.56617  -0.55813
 Alpha  occ. eigenvalues --   -0.54006  -0.50040  -0.49167  -0.47980  -0.40648
 Alpha  occ. eigenvalues --   -0.39091
 Alpha virt. eigenvalues --    0.03312   0.03886   0.04462   0.05045   0.05658
 Alpha virt. eigenvalues --    0.06164   0.07501   0.09180   0.10084   0.11125
 Alpha virt. eigenvalues --    0.11727   0.12435   0.13687   0.13817   0.14169

 Mulliken charges:
               1
     1  O   -1.113739
     2  C    0.635403
     3  C    0.311633
     4  C   -0.384401
     5  C   -0.436468
     6  C    0.048087
     7  N    0.279501
     8  H    0.382914
     9  H    0.241287
    10  H    0.113454
    11  H   -0.236742
    12  H   -0.040616
    13  H   -0.037394
    14  H    0.237081
 Sum of Mulliken charges =  -0.00000

 Dipole moment (field-independent basis, Debye):
    X=              0.4109    Y=             -1.0561    Z=              1.5745  Tot=              1.9399

 Test job not archived.
 1\1\GINC-SE135\SP\RHF\Aug-CC-pVDZ\C5H7N1O1\OHZDE\09-Apr-2025\0\\#t hf
 aug-cc-pvdz iop(5/13=1,5/36=2,99/5=2) pseudo=read geom=check guess=(re
 ad,tcheck) scf=(maxcycle=1)\\title\\0,1\O,0,1.63939399,-1.06778622,1.5
 1097962\C,0,1.91198414,-0.39559379,0.3061317\C,0,0.77131587,-0.2972973
 4,-0.61686487\C,0,-0.10446754,-0.15853389,-1.50266168\C,0,-0.68059078,
 0.69424789,-0.17706627\C,0,-2.0903032,0.37201554,0.14481492\N,0,-1.069
 66449,0.13973372,1.14400218\H,0,1.1313695,-0.48009324,2.07717344\H,0,2
 .31051862,0.60887436,0.48906393\H,0,2.68456735,-0.95950732,-0.22136995

 Normal termination of Gaussian 16 at Wed Apr  9 04:05:51 2025.
