 Gaussian 16, Revision C.01,

 ----------------------------------------------------------------------
 #t hf aug-cc-pvdz symm=none int=(grid=ultrafine) guess=(read,tcheck) s
 table=(opt,rrhf)
 ----------------------------------------------------------------------
 -----
 title
 -----
 Symbolic Z-matrix:
 Charge =  0 Multiplicity = 1

 SCF Done:  E(RHF) =  -322.585894962     A.U. after   14 cycles
 Normal termination of Gaussian 16 at Wed Apr  9 18:09:11 2025.
 Gaussian 16:  ES64L-G16RevC.01  3-Jul-2019

 ----------------------------------------------------------------------
 #t hf aug-cc-pvdz iop(5/13=1,5/36=2,99/5=2) pseudo=read geom=check gue
 ss=(read,tcheck) scf=(maxcycle=1)
 ----------------------------------------------------------------------
 -----
 title
 -----
 Structure from the checkpoint file:  "Grambow2020_wb97xd3_007135_forward_mol1.chk"
 Charge =  0 Multiplicity = 1

                         Standard orientation:
 ---------------------------------------------------------------------
 Center     Atomic      Atomic             Coordinates (Angstroms)
 Number     Number       Type             X           Y           Z
 ---------------------------------------------------------------------
      1          7           0       -2.107082   -0.378596   -0.082382
      2          6           0       -0.898259    0.062692    0.022408
      3          8           0       -0.419907    1.246042    0.329820
      4          6           0        0.987319    1.240694   -0.081564
      5          6           0        1.314573   -0.187902   -0.488674
      6          6           0        1.120375   -1.199423    0.582762
      7          6           0        0.005743   -0.968927   -0.417765
      8          1           0       -2.940019    0.136885    0.164420
      9          1           0        1.565908    1.616624    0.763783
     10          1           0        1.067873    1.936788   -0.916869
     11          1           0        2.044813   -0.325588   -1.275434
     12          1           0        1.025708   -0.847961    1.607695
     13          1           0        1.639330   -2.144922    0.486329
     14          1           0       -1.473286   -1.372788   -0.594814
 ---------------------------------------------------------------------

 SCF Done:  E(RHF) =  -322.917694681     A.U. after    2 cycles

 The electronic state is 1-A.
 Alpha  occ. eigenvalues --  -20.60699 -15.51627 -11.36306 -11.31236 -11.24472
 Alpha  occ. eigenvalues --  -11.23395 -11.19664  -1.54701  -1.25295  -1.15439
 Alpha  occ. eigenvalues --   -0.98509  -0.91029  -0.82774  -0.78001  -0.74777
 Alpha  occ. eigenvalues --   -0.68998  -0.66365  -0.63024  -0.59034  -0.58327
 Alpha  occ. eigenvalues --   -0.55448  -0.51204  -0.46993  -0.44907  -0.39866
 Alpha  occ. eigenvalues --   -0.33485
 Alpha virt. eigenvalues --    0.03519   0.03813   0.04245   0.04531   0.06141
 Alpha virt. eigenvalues --    0.06706   0.07101   0.08912   0.11075   0.11878
 Alpha virt. eigenvalues --    0.13049   0.13216   0.13864   0.14047   0.14875

 Mulliken charges:
               1
     1  N    0.727267
     2  C   -0.017266
     3  O   -1.504865
     4  C    0.397369
     5  C    0.206476
     6  C    0.287086
     7  C   -0.527372
     8  H    0.054821
     9  H    0.096623
    10  H    0.075770
    11  H   -0.175676
    12  H   -0.095545
    13  H   -0.115215
    14  H    0.590526
 Sum of Mulliken charges =   0.00000

 Dipole moment (field-independent basis, Debye):
    X=              0.7829    Y=              1.9750    Z=              0.6184  Tot=              2.2127

 Test job not archived.
 1\1\GINC-SE174\SP\RHF\Aug-CC-pVDZ\C5H7N1O1\OHZDE\09-Apr-2025\0\\#t hf
 aug-cc-pvdz iop(5/13=1,5/36=2,99/5=2) pseudo=read geom=check guess=(re
 ad,tcheck) scf=(maxcycle=1)\\title\\0,1\N,0,1.51696418,-1.62853552,0.1
 7390751\C,0,0.92805002,-0.59098772,-0.31969577\O,0,1.38845714,0.453202
 24,-0.96879652\C,0,0.32429974,1.46114665,-0.93462136\C,0,-0.90085126,0
 .77833953,-0.34598074\C,0,-1.37957454,-0.40429327,-1.10825869\C,0,-0.4
 5717151,-0.61960038,0.07470561\H,0,2.49180356,-1.86141531,0.04792521\H
 ,0,0.19689602,1.82205712,-1.95648835\H,0,0.68752282,2.27293453,-0.3038

 Normal termination of Gaussian 16 at Wed Apr  9 18:09:16 2025.
