 Gaussian 16, Revision C.01,

 ----------------------------------------------------------------------
 #t hf aug-cc-pvdz symm=none int=(grid=ultrafine) guess=(read,tcheck) s
 table=(opt,rrhf)
 ----------------------------------------------------------------------
 -----
 title
 -----
 Symbolic Z-matrix:
 Charge =  0 Multiplicity = 1

 SCF Done:  E(RHF) =  -374.512312489     A.U. after   14 cycles
 Normal termination of Gaussian 16 at Wed Apr  9 18:20:00 2025.
 Gaussian 16:  ES64L-G16RevC.01  3-Jul-2019

 ----------------------------------------------------------------------
 #t hf aug-cc-pvdz iop(5/13=1,5/36=2,99/5=2) pseudo=read geom=check gue
 ss=(read,tcheck) scf=(maxcycle=1)
 ----------------------------------------------------------------------
 -----
 title
 -----
 Structure from the checkpoint file:  "Grambow2020_wb97xd3_007331_reverse_mol2.chk"
 Charge =  0 Multiplicity = 1

                         Standard orientation:
 ---------------------------------------------------------------------
 Center     Atomic      Atomic             Coordinates (Angstroms)
 Number     Number       Type             X           Y           Z
 ---------------------------------------------------------------------
      1          7           0        2.412146   -0.508908   -0.002380
      2          6           0        1.122608    0.053040    0.001007
      3          6           0        0.691657    1.337993    0.001030
      4          8           0       -0.791593    1.125102    0.000348
      5          6           0       -1.056438   -0.127227   -0.000122
      6          8           0       -2.286535   -0.603495   -0.000352
      7          7           0        0.021836   -0.857445   -0.000040
      8          1           0        2.933570   -0.248109    0.821873
      9          1           0        2.939453   -0.220449   -0.813492
     10          1           0       -2.901115    0.139143   -0.001525
     11          1           0        0.068273   -1.861799   -0.001375
 ---------------------------------------------------------------------

 SCF Done:  E(RHF) =  -374.884369024     A.U. after    2 cycles

 The electronic state is 1-A.
 Alpha  occ. eigenvalues --  -20.65584 -20.61847 -15.58322 -15.49967 -11.45334
 Alpha  occ. eigenvalues --  -11.26879 -11.22921  -1.61773  -1.54017  -1.31129
 Alpha  occ. eigenvalues --   -1.19163  -1.00488  -0.92231  -0.86075  -0.83461
 Alpha  occ. eigenvalues --   -0.73268  -0.72622  -0.69724  -0.68404  -0.65549
 Alpha  occ. eigenvalues --   -0.58411  -0.58356  -0.52328  -0.46852  -0.35522
 Alpha  occ. eigenvalues --   -0.32818
 Alpha virt. eigenvalues --    0.02401   0.03579   0.04919   0.06696   0.08624
 Alpha virt. eigenvalues --    0.08980   0.10229   0.10816   0.12164   0.13369
 Alpha virt. eigenvalues --    0.13791   0.15046   0.15552   0.16398   0.17046

 Mulliken charges:
               1
     1  N    0.503039
     2  C   -1.297426
     3  C    0.113534
     4  O   -1.183938
     5  C    1.443596
     6  O   -1.233260
     7  N    0.820741
     8  H    0.284065
     9  H    0.282345
    10  H    0.245899
    11  H    0.021404
 Sum of Mulliken charges =  -0.00000

 Dipole moment (field-independent basis, Debye):
    X=             -2.9952    Y=             -3.7795    Z=              0.0144  Tot=              4.8224

 Test job not archived.
 1\1\GINC-SE229\SP\RHF\Aug-CC-pVDZ\C3H4N2O2\OHZDE\09-Apr-2025\0\\#t hf
 aug-cc-pvdz iop(5/13=1,5/36=2,99/5=2) pseudo=read geom=check guess=(re
 ad,tcheck) scf=(maxcycle=1)\\title\\0,1\N,0,-1.93312176,-0.92458755,0.
 05245685\C,0,-0.82857298,-0.06041585,0.16146669\C,0,-0.70134205,1.1924
 0188,0.66254915\O,0,0.75970144,1.42932369,0.4289427\C,0,1.28863714,0.4
 0406385,-0.12562081\O,0,2.56639134,0.33721881,-0.44631545\N,0,0.421895
 83,-0.54626257,-0.32941275\H,0,-2.65784341,-0.53014803,-0.52934175\H,0
 ,-2.33203902,-1.13121215,0.9565221\H,0,2.98859713,1.165396,-0.19119484

 Normal termination of Gaussian 16 at Wed Apr  9 18:20:04 2025.
