 Gaussian 16, Revision C.01,

 ----------------------------------------------------------------------
 #t hf aug-cc-pvdz symm=none int=(grid=ultrafine) guess=(read,tcheck) s
 table=(opt,rrhf)
 ----------------------------------------------------------------------
 -----
 title
 -----
 Symbolic Z-matrix:
 Charge =  0 Multiplicity = 1

 SCF Done:  E(RHF) =  -344.715425060     A.U. after   14 cycles

 1\1\GINC-SE014\Stability\RHF\Aug-CC-pVDZ\C5H10O2\OHZDE\09-Apr-2025\0\\
 #t hf aug-cc-pvdz symm=none int=(grid=ultrafine) guess=(read,tcheck) s
 table=(opt,rrhf)\\title\\0,1\C,0,-1.11965947,-1.03269989,0.70674054\C,
 0,-0.75926119,0.11570769,-0.1991867\C,0,0.70477261,0.25260813,-0.58939
 318\C,0,1.60970651,-0.01380464,0.59889642\O,0,1.63592675,0.8285297,1.6
 1151669\C,0,-1.75489284,0.6669794,-1.11709417\O,0,-1.42442444,1.333977
 69,0.08898138\H,0,-0.78711509,-1.98412488,0.2843421\H,0,-0.652157,-0.9
 0186886,1.68493315\H,0,-2.19853439,-1.07530748,0.85109063\H,0,0.868981

 Normal termination of Gaussian 16 at Wed Apr  9 18:27:55 2025.
 Gaussian 16:  ES64L-G16RevC.01  3-Jul-2019

 ----------------------------------------------------------------------
 #t hf aug-cc-pvdz iop(5/13=1,5/36=2,99/5=2) pseudo=read geom=check gue
 ss=(read,tcheck) scf=(maxcycle=1)
 ----------------------------------------------------------------------
 -----
 title
 -----
 Structure from the checkpoint file:  "Grambow2020_wb97xd3_007588_reverse_mol1.chk"
 Charge =  0 Multiplicity = 1

                         Standard orientation:
 ---------------------------------------------------------------------
 Center     Atomic      Atomic             Coordinates (Angstroms)
 Number     Number       Type             X           Y           Z
 ---------------------------------------------------------------------
      1          6           0        0.711932    1.593917   -0.123045
      2          6           0        0.752391    0.088616   -0.166204
      3          6           0       -0.449353   -0.615952   -0.777590
      4          6           0       -1.744577    0.038264   -0.334522
      5          8           0       -2.132359   -0.047656    0.921606
      6          6           0        2.035928   -0.610279   -0.208842
      7          8           0        1.288836   -0.526941    0.992667
      8          1           0        0.540841    2.009896   -1.118989
      9          1           0       -0.088869    1.930376    0.538807
     10          1           0        1.653448    1.985932    0.259701
     11          1           0       -0.437442   -1.656672   -0.453582
     12          1           0       -0.378384   -0.575180   -1.869378
     13          1           0       -2.667302   -0.738495   -1.105003
     14          1           0       -1.960970    0.975062   -0.879375
     15          1           0       -2.805264   -0.665523   -0.144508
     16          1           0        2.957404   -0.034230   -0.229264
     17          1           0        2.096797   -1.601777   -0.651373
 ---------------------------------------------------------------------

 SCF Done:  E(RHF) =  -345.074538826     A.U. after    2 cycles

 The electronic state is 1-A.
 Alpha  occ. eigenvalues --  -20.55741 -20.49223 -11.37355 -11.30793 -11.29169
 Alpha  occ. eigenvalues --  -11.25946 -11.23890  -1.50437  -1.42858  -1.08411
 Alpha  occ. eigenvalues --   -0.99750  -0.92820  -0.88489  -0.78387  -0.73427
 Alpha  occ. eigenvalues --   -0.69780  -0.66835  -0.65396  -0.60503  -0.58883
 Alpha  occ. eigenvalues --   -0.56870  -0.55784  -0.52413  -0.52212  -0.44580
 Alpha  occ. eigenvalues --   -0.44055  -0.39661  -0.38985
 Alpha virt. eigenvalues --    0.02434   0.03247   0.03480   0.04653   0.05553
 Alpha virt. eigenvalues --    0.05685   0.06684   0.07456   0.08619   0.09834
 Alpha virt. eigenvalues --    0.10580   0.12351   0.12546   0.13604   0.14182

 Mulliken charges:
               1
     1  C   -0.506237
     2  C    1.092144
     3  C   -0.549310
     4  C    0.799588
     5  O   -1.370118
     6  C    0.494125
     7  O   -1.451266
     8  H    0.233850
     9  H    0.320111
    10  H    0.115615
    11  H    0.195157
    12  H    0.244137
    13  H    0.157070
    14  H    0.167856
    15  H    0.179778
    16  H   -0.054952
    17  H   -0.067548
 Sum of Mulliken charges =  -0.00000

 Dipole moment (field-independent basis, Debye):
    X=              0.7222    Y=              0.1319    Z=             -5.0509  Tot=              5.1040

 Test job not archived.
 1\1\GINC-SE014\SP\RHF\Aug-CC-pVDZ\C5H10O2\OHZDE\09-Apr-2025\0\\#t hf a
 ug-cc-pvdz iop(5/13=1,5/36=2,99/5=2) pseudo=read geom=check guess=(rea
 d,tcheck) scf=(maxcycle=1)\\title\\0,1\C,0,-1.11965947,-1.03269989,0.7
 0674054\C,0,-0.75926119,0.11570769,-0.1991867\C,0,0.70477261,0.2526081
 3,-0.58939318\C,0,1.60970651,-0.01380464,0.59889642\O,0,1.63592675,0.8
 285297,1.61151669\C,0,-1.75489284,0.6669794,-1.11709417\O,0,-1.4244244
 4,1.33397769,0.08898138\H,0,-0.78711509,-1.98412488,0.2843421\H,0,-0.6
 52157,-0.90186886,1.68493315\H,0,-2.19853439,-1.07530748,0.85109063\H,

 Normal termination of Gaussian 16 at Wed Apr  9 18:28:02 2025.
