 Gaussian 16, Revision C.01,

 ----------------------------------------------------------------------
 #t hf aug-cc-pvdz symm=none int=(grid=ultrafine) guess=(read,tcheck) s
 table=(opt,rrhf)
 ----------------------------------------------------------------------
 -----
 title
 -----
 Symbolic Z-matrix:
 Charge =  0 Multiplicity = 1

 SCF Done:  E(RHF) =  -288.036502607     A.U. after   14 cycles

 1\1\GINC-SE412\Stability\RHF\Aug-CC-pVDZ\C6H11N1\OHZDE\09-Apr-2025\0\\
 #t hf aug-cc-pvdz symm=none int=(grid=ultrafine) guess=(read,tcheck) s
 table=(opt,rrhf)\\title\\0,1\C,0,1.80161853,-0.58961993,0.59883324\C,0
 ,0.4554703,0.12153793,0.51919199\C,0,0.49832018,1.30879163,-0.4450804\
 C,0,-0.63779818,-0.78086086,-0.10854436\C,0,-2.02167384,-0.58465866,0.
 51487879\C,0,-0.72552054,-0.41080517,-1.57931567\N,0,-0.09656867,0.728
 83542,-1.66099778\H,0,1.73858697,-1.4726141,1.23783442\H,0,2.57727315,
 0.06396015,1.00414454\H,0,2.12316924,-0.92185288,-0.39216433\H,0,0.162

 Normal termination of Gaussian 16 at Wed Apr  9 03:46:46 2025.
 Gaussian 16:  ES64L-G16RevC.01  3-Jul-2019

 ----------------------------------------------------------------------
 #t hf aug-cc-pvdz iop(5/13=1,5/36=2,99/5=2) pseudo=read geom=check gue
 ss=(read,tcheck) scf=(maxcycle=1)
 ----------------------------------------------------------------------
 -----
 title
 -----
 Structure from the checkpoint file:  "Grambow2020_wb97xd3_007880_reverse_mol2.chk"
 Charge =  0 Multiplicity = 1

                         Standard orientation:
 ---------------------------------------------------------------------
 Center     Atomic      Atomic             Coordinates (Angstroms)
 Number     Number       Type             X           Y           Z
 ---------------------------------------------------------------------
      1          6           0        1.778871   -1.102670   -0.397931
      2          6           0        0.607677   -0.565731    0.417057
      3          6           0        0.813670    0.899371    0.807278
      4          6           0       -0.698284   -0.510160   -0.416604
      5          6           0       -1.953264   -0.841475    0.394270
      6          6           0       -0.832071    0.911818   -0.934179
      7          7           0        0.010273    1.596490   -0.211190
      8          1           0        1.588654   -2.126627   -0.725504
      9          1           0        2.704789   -1.101627    0.181516
     10          1           0        1.939093   -0.494511   -1.292538
     11          1           0        0.475762   -1.181476    1.309682
     12          1           0        0.088822    2.596578   -0.314170
     13          1           0        1.858364    1.214813    0.756177
     14          1           0        0.434587    1.136691    1.804908
     15          1           0       -0.647533   -1.197611   -1.265590
     16          1           0       -2.849783   -0.709951   -0.211808
     17          1           0       -1.921064   -1.872744    0.751352
     18          1           0       -2.043186   -0.185885    1.264956
 ---------------------------------------------------------------------

 SCF Done:  E(RHF) =  -288.345031043     A.U. after    2 cycles

 The electronic state is 1-A.
 Alpha  occ. eigenvalues --  -15.53617 -11.27150 -11.23700 -11.23578 -11.22794
 Alpha  occ. eigenvalues --  -11.22523 -11.22419  -1.27429  -1.08514  -1.02152
 Alpha  occ. eigenvalues --   -0.95148  -0.89835  -0.80234  -0.78400  -0.69932
 Alpha  occ. eigenvalues --   -0.66393  -0.61351  -0.59558  -0.57875  -0.57171
 Alpha  occ. eigenvalues --   -0.52596  -0.51976  -0.50113  -0.49692  -0.46700
 Alpha  occ. eigenvalues --   -0.44686  -0.33956
 Alpha virt. eigenvalues --    0.03233   0.03531   0.03941   0.04299   0.05518
 Alpha virt. eigenvalues --    0.05768   0.05884   0.06818   0.07279   0.09129
 Alpha virt. eigenvalues --    0.09758   0.11518   0.12306   0.12805   0.13479

 Mulliken charges:
               1
     1  C   -0.271569
     2  C   -0.347544
     3  C   -0.188165
     4  C   -0.451629
     5  C   -0.122630
     6  C   -0.875650
     7  N    0.785409
     8  H    0.128441
     9  H    0.124981
    10  H    0.266631
    11  H    0.078240
    12  H    0.093194
    13  H    0.081983
    14  H    0.046314
    15  H    0.114124
    16  H    0.165461
    17  H    0.177278
    18  H    0.195130
 Sum of Mulliken charges =   0.00000

 Dipole moment (field-independent basis, Debye):
    X=              2.0771    Y=             -0.3822    Z=              2.3364  Tot=              3.1495

 Test job not archived.
 1\1\GINC-SE412\SP\RHF\Aug-CC-pVDZ\C6H11N1\OHZDE\09-Apr-2025\0\\#t hf a
 ug-cc-pvdz iop(5/13=1,5/36=2,99/5=2) pseudo=read geom=check guess=(rea
 d,tcheck) scf=(maxcycle=1)\\title\\0,1\C,0,1.80161853,-0.58961993,0.59
 883324\C,0,0.4554703,0.12153793,0.51919199\C,0,0.49832018,1.30879163,-
 0.4450804\C,0,-0.63779818,-0.78086086,-0.10854436\C,0,-2.02167384,-0.5
 8465866,0.51487879\C,0,-0.72552054,-0.41080517,-1.57931567\N,0,-0.0965
 6867,0.72883542,-1.66099778\H,0,1.73858697,-1.4726141,1.23783442\H,0,2
 .57727315,0.06396015,1.00414454\H,0,2.12316924,-0.92185288,-0.39216433

 Normal termination of Gaussian 16 at Wed Apr  9 03:46:52 2025.
