 Gaussian 16, Revision C.01,

 ----------------------------------------------------------------------
 #t hf aug-cc-pvdz symm=none int=(grid=ultrafine) guess=(read,tcheck) s
 table=(opt,rrhf)
 ----------------------------------------------------------------------
 -----
 title
 -----
 Symbolic Z-matrix:
 Charge =  0 Multiplicity = 1

 SCF Done:  E(RHF) =  -307.858668572     A.U. after   13 cycles

 1\1\GINC-SE125\Stability\RHF\Aug-CC-pVDZ\C6H10O1\OHZDE\09-Apr-2025\0\\
 #t hf aug-cc-pvdz symm=none int=(grid=ultrafine) guess=(read,tcheck) s
 table=(opt,rrhf)\\title\\0,1\C,0,2.01635947,0.5193182,-0.15696226\C,0,
 0.88503442,-0.48664256,-0.23461663\C,0,-0.00253449,-0.7188331,1.027370
 19\C,0,-1.22683789,-0.36430919,0.19218861\O,0,-2.426066,-1.0507823,0.2
 4631908\C,0,-1.11324586,1.01443024,-0.36226427\C,0,-0.37390803,-0.1219
 8792,-1.0243433\H,0,2.78608245,0.18793516,0.54377602\H,0,1.66371751,1.
 49704592,0.17902929\H,0,2.48726448,0.65289362,-1.1334606\H,0,1.2721965

 Normal termination of Gaussian 16 at Wed Apr  9 19:08:07 2025.
 Gaussian 16:  ES64L-G16RevC.01  3-Jul-2019

 ----------------------------------------------------------------------
 #t hf aug-cc-pvdz iop(5/13=1,5/36=2,99/5=2) pseudo=read geom=check gue
 ss=(read,tcheck) scf=(maxcycle=1)
 ----------------------------------------------------------------------
 -----
 title
 -----
 Structure from the checkpoint file:  "Grambow2020_wb97xd3_008606_forward_mol2.chk"
 Charge =  0 Multiplicity = 1

                         Standard orientation:
 ---------------------------------------------------------------------
 Center     Atomic      Atomic             Coordinates (Angstroms)
 Number     Number       Type             X           Y           Z
 ---------------------------------------------------------------------
      1          6           0       -2.406472    0.079623   -0.154415
      2          6           0       -1.097673   -0.364708    0.468080
      3          6           0       -0.077528   -1.154289   -0.409512
      4          6           0        0.968124   -0.091854   -0.093319
      5          8           0        2.286166   -0.371417    0.218022
      6          6           0        0.517190    1.253070   -0.550573
      7          6           0       -0.016614    0.683456    0.740554
      8          1           0       -3.025925   -0.780961   -0.417082
      9          1           0       -2.242890    0.658488   -1.066201
     10          1           0       -2.975890    0.703462    0.538212
     11          1           0       -1.300186   -0.927437    1.381434
     12          1           0       -0.330657   -1.281837   -1.465684
     13          1           0        0.176596   -2.122685    0.020042
     14          1           0        2.808386   -0.317917   -0.584904
     15          1           0        1.249830    2.038535   -0.410312
     16          1           0       -0.116742    1.373313   -1.423500
     17          1           0        0.145982    1.196592    1.678924
 ---------------------------------------------------------------------

 SCF Done:  E(RHF) =  -308.186924642     A.U. after    2 cycles

 The electronic state is 1-A.
 Alpha  occ. eigenvalues --  -20.55458 -11.28600 -11.23600 -11.23119 -11.23020
 Alpha  occ. eigenvalues --  -11.22684 -11.22025  -1.46289  -1.19461  -1.02256
 Alpha  occ. eigenvalues --   -0.94949  -0.86038  -0.80197  -0.72910  -0.71499
 Alpha  occ. eigenvalues --   -0.65336  -0.62658  -0.61435  -0.57258  -0.56251
 Alpha  occ. eigenvalues --   -0.53842  -0.53304  -0.49299  -0.46944  -0.45181
 Alpha  occ. eigenvalues --   -0.39597  -0.38214
 Alpha virt. eigenvalues --    0.03509   0.03836   0.03858   0.04150   0.05841
 Alpha virt. eigenvalues --    0.06101   0.06342   0.06810   0.07608   0.09615
 Alpha virt. eigenvalues --    0.11221   0.12966   0.13257   0.14084   0.14724

 Mulliken charges:
               1
     1  C   -0.391531
     2  C   -0.322121
     3  C   -0.157453
     4  C    1.546087
     5  O   -1.520149
     6  C    0.251029
     7  C    0.276420
     8  H    0.177776
     9  H    0.167292
    10  H    0.173678
    11  H    0.039088
    12  H    0.008009
    13  H    0.070179
    14  H    0.222926
    15  H   -0.107737
    16  H   -0.176117
    17  H   -0.257375
 Sum of Mulliken charges =  -0.00000

 Dipole moment (field-independent basis, Debye):
    X=             -0.3828    Y=              0.2434    Z=             -1.1696  Tot=              1.2544

 Test job not archived.
 1\1\GINC-SE125\SP\RHF\Aug-CC-pVDZ\C6H10O1\OHZDE\09-Apr-2025\0\\#t hf a
 ug-cc-pvdz iop(5/13=1,5/36=2,99/5=2) pseudo=read geom=check guess=(rea
 d,tcheck) scf=(maxcycle=1)\\title\\0,1\C,0,2.01635947,0.5193182,-0.156
 96226\C,0,0.88503442,-0.48664256,-0.23461663\C,0,-0.00253449,-0.718833
 1,1.02737019\C,0,-1.22683789,-0.36430919,0.19218861\O,0,-2.426066,-1.0
 507823,0.24631908\C,0,-1.11324586,1.01443024,-0.36226427\C,0,-0.373908
 03,-0.12198792,-1.0243433\H,0,2.78608245,0.18793516,0.54377602\H,0,1.6
 6371751,1.49704592,0.17902929\H,0,2.48726448,0.65289362,-1.1334606\H,0

 Normal termination of Gaussian 16 at Wed Apr  9 19:08:13 2025.
