 Gaussian 16, Revision C.01,

 ----------------------------------------------------------------------
 #t hf aug-cc-pvdz symm=none int=(grid=ultrafine) guess=(read,tcheck) s
 table=(opt,rrhf)
 ----------------------------------------------------------------------
 -----
 title
 -----
 Symbolic Z-matrix:
 Charge =  0 Multiplicity = 1

 SCF Done:  E(RHF) =  -325.033974175     A.U. after   12 cycles
 Normal termination of Gaussian 16 at Wed Apr  9 04:05:54 2025.
 Gaussian 16:  ES64L-G16RevC.01  3-Jul-2019

 ----------------------------------------------------------------------
 #t hf aug-cc-pvdz iop(5/13=1,5/36=2,99/5=2) pseudo=read geom=check gue
 ss=(read,tcheck) scf=(maxcycle=1)
 ----------------------------------------------------------------------
 -----
 title
 -----
 Structure from the checkpoint file:  "Grambow2020_wb97xd3_009230_forward_mol2.chk"
 Charge =  0 Multiplicity = 1

                         Standard orientation:
 ---------------------------------------------------------------------
 Center     Atomic      Atomic             Coordinates (Angstroms)
 Number     Number       Type             X           Y           Z
 ---------------------------------------------------------------------
      1          6           0        2.736447   -0.387315    0.136975
      2          8           0        1.658966    0.463629    0.433866
      3          6           0        0.580619    0.290219   -0.431458
      4          6           0       -0.332848   -0.938696   -0.240255
      5          7           0       -1.484178   -0.044920   -0.404937
      6          6           0       -2.653164   -0.288416    0.398234
      7          6           0       -0.653376    1.122366   -0.085310
      8          1           0        3.531460   -0.167263    0.847857
      9          1           0        3.111138   -0.218565   -0.881055
     10          1           0        2.456963   -1.444222    0.233652
     11          1           0        0.894612    0.409887   -1.475435
     12          1           0       -0.277706   -1.763925   -0.953583
     13          1           0       -0.232162   -1.325693    0.785762
     14          1           0       -2.425265   -0.337621    1.477105
     15          1           0       -3.114833   -1.232819    0.102868
     16          1           0       -3.384518    0.506793    0.239623
     17          1           0       -0.646602    1.368860    0.986567
     18          1           0       -0.861637    2.021026   -0.668848
 ---------------------------------------------------------------------

 SCF Done:  E(RHF) =  -325.380164473     A.U. after    2 cycles

 The electronic state is 1-A.
 Alpha  occ. eigenvalues --  -20.54641 -15.48304 -11.28427 -11.28261 -11.25282
 Alpha  occ. eigenvalues --  -11.25121 -11.24878  -1.47313  -1.25130  -1.03356
 Alpha  occ. eigenvalues --   -0.94649  -0.92423  -0.85978  -0.77391  -0.69791
 Alpha  occ. eigenvalues --   -0.69104  -0.65633  -0.63660  -0.60705  -0.59921
 Alpha  occ. eigenvalues --   -0.56758  -0.55919  -0.51514  -0.49955  -0.49730
 Alpha  occ. eigenvalues --   -0.45965  -0.41227  -0.39103
 Alpha virt. eigenvalues --    0.03750   0.04074   0.04322   0.04653   0.05666
 Alpha virt. eigenvalues --    0.05879   0.05997   0.06366   0.07802   0.09226
 Alpha virt. eigenvalues --    0.09443   0.10913   0.12606   0.14294   0.14991

 Mulliken charges:
               1
     1  C    0.125655
     2  O   -1.473412
     3  C    1.368399
     4  C   -0.470970
     5  N    0.498737
     6  C   -0.347411
     7  C   -0.385787
     8  H   -0.026255
     9  H    0.187725
    10  H    0.186088
    11  H    0.072497
    12  H   -0.079798
    13  H    0.027523
    14  H    0.163535
    15  H    0.078936
    16  H    0.078096
    17  H    0.029362
    18  H   -0.032919
 Sum of Mulliken charges =  -0.00000

 Dipole moment (field-independent basis, Debye):
    X=              0.5788    Y=             -0.8593    Z=              0.0811  Tot=              1.0392

 Test job not archived.
 1\1\GINC-SE452\SP\RHF\Aug-CC-pVDZ\C5H11N1O1\OHZDE\09-Apr-2025\0\\#t hf
  aug-cc-pvdz iop(5/13=1,5/36=2,99/5=2) pseudo=read geom=check guess=(r
 ead,tcheck) scf=(maxcycle=1)\\title\\0,1\C,0,2.74045605,0.61324638,0.0
 9028812\O,0,1.51730246,0.98973789,-0.48881789\C,0,0.65176634,-0.087351
 5,-0.66885472\C,0,-0.09783101,-0.64875952,0.55757883\N,0,-1.31415264,-
 0.67546132,-0.26179161\C,0,-2.56423328,-0.34037779,0.36742823\C,0,-0.7
 3001588,0.28877844,-1.20199227\H,0,3.35212704,1.51037471,0.17299995\H,
 0,3.26792257,-0.12236119,-0.53093371\H,0,2.60055202,0.18601796,1.09149

 Normal termination of Gaussian 16 at Wed Apr  9 04:06:00 2025.
