 Gaussian 16, Revision C.01,

 ----------------------------------------------------------------------
 #t hf aug-cc-pvdz symm=none int=(grid=ultrafine) guess=(read,tcheck) s
 table=(opt,rrhf)
 ----------------------------------------------------------------------
 -----
 title
 -----
 Symbolic Z-matrix:
 Charge =  0 Multiplicity = 1

 SCF Done:  E(RHF) =  -299.600907216     A.U. after   14 cycles
 Normal termination of Gaussian 16 at Wed Apr  9 16:17:39 2025.
 Gaussian 16:  ES64L-G16RevC.01  3-Jul-2019

 ----------------------------------------------------------------------
 #t hf aug-cc-pvdz iop(5/13=1,5/36=2,99/5=2) pseudo=read geom=check gue
 ss=(read,tcheck) scf=(maxcycle=1)
 ----------------------------------------------------------------------
 -----
 title
 -----
 Structure from the checkpoint file:  "Grambow2020_b97d3_007183_reverse_mol2.chk"
 Charge =  0 Multiplicity = 1

                         Standard orientation:
 ---------------------------------------------------------------------
 Center     Atomic      Atomic             Coordinates (Angstroms)
 Number     Number       Type             X           Y           Z
 ---------------------------------------------------------------------
      1          6           0       -2.715548   -1.076847    0.002517
      2          6           0       -1.669314   -0.057995   -0.007047
      3          7           0       -0.835262    0.767130   -0.000026
      4          8           0        0.037308    1.622242    0.000999
      5          6           0        2.562322   -0.174616    0.002309
      6          7           0        3.381784   -1.005057   -0.001800
      7          1           0       -3.654975   -0.670476   -0.398983
      8          1           0       -2.421643   -1.938334   -0.613950
      9          1           0       -2.902204   -1.432805    1.025858
     10          1           0        1.789942    0.585921    0.005199
 ---------------------------------------------------------------------

 SCF Done:  E(RHF) =  -299.893118741     A.U. after    2 cycles

 The electronic state is 1-A.
 Alpha  occ. eigenvalues --  -20.57674 -15.69594 -15.51879 -11.35201 -11.32731
 Alpha  occ. eigenvalues --  -11.27750  -1.57257  -1.27367  -1.21866  -1.07021
 Alpha  occ. eigenvalues --   -0.79721  -0.77099  -0.71836  -0.71566  -0.71433
 Alpha  occ. eigenvalues --   -0.63754  -0.63727  -0.60364  -0.50190  -0.50179
 Alpha  occ. eigenvalues --   -0.42140  -0.41898
 Alpha virt. eigenvalues --    0.01671   0.03933   0.04149   0.05185   0.07160
 Alpha virt. eigenvalues --    0.08870   0.09330   0.10976   0.11298   0.11540
 Alpha virt. eigenvalues --    0.12688   0.13308   0.14213   0.14728   0.15652

 Mulliken charges:
               1
     1  C   -0.366566
     2  C   -0.351149
     3  N    1.420900
     4  O   -1.517931
     5  C   -0.699760
     6  N    0.614999
     7  H    0.265995
     8  H    0.263178
     9  H    0.268003
    10  H    0.102332
 Sum of Mulliken charges =  -0.00000

 Dipole moment (field-independent basis, Debye):
    X=             -7.8737    Y=             -1.2661    Z=              0.0100  Tot=              7.9749

 Test job not archived.
 1\1\GINC-SE162\SP\RHF\Aug-CC-pVDZ\C3H4N2O1\OHZDE\09-Apr-2025\0\\#t hf
 aug-cc-pvdz iop(5/13=1,5/36=2,99/5=2) pseudo=read geom=check guess=(re
 ad,tcheck) scf=(maxcycle=1)\\title\\0,1\C,0,-2.1179363,-0.12105837,-0.
 58022671\C,0,-0.67927165,-0.29210536,-0.76392461\N,0,0.47575405,-0.419
 60082,-0.92573772\O,0,1.67915372,-0.55590851,-1.08650258\C,0,2.7197578
 4,0.55663149,1.61234881\N,0,2.91587674,1.00087281,2.67317572\H,0,-2.67
 563144,-0.80984703,-1.23092563\H,0,-2.40152373,-0.32619237,0.46191949\
 H,0,-2.42147328,0.9071089,-0.82417438\H,0,2.52217006,0.14485026,0.6292

 Normal termination of Gaussian 16 at Wed Apr  9 16:17:42 2025.
