 Gaussian 16, Revision C.01,

 ----------------------------------------------------------------------
 #t hf aug-cc-pvdz symm=none int=(grid=ultrafine) guess=(read,tcheck) s
 table=(opt,rrhf)
 ----------------------------------------------------------------------
 -----
 title
 -----
 Symbolic Z-matrix:
 Charge =  0 Multiplicity = 1

 SCF Done:  E(RHF) =  -260.576633682     A.U. after   16 cycles
 Normal termination of Gaussian 16 at Wed Apr  9 03:20:16 2025.
 Gaussian 16:  ES64L-G16RevC.01  3-Jul-2019

 ----------------------------------------------------------------------
 #t hf aug-cc-pvdz iop(5/13=1,5/36=2,99/5=2) pseudo=read geom=check gue
 ss=(read,tcheck) scf=(maxcycle=1)
 ----------------------------------------------------------------------
 -----
 title
 -----
 Structure from the checkpoint file:  "Grambow2020_wb97xd3_006039_reverse_mol2.chk"
 Charge =  0 Multiplicity = 1

                         Standard orientation:
 ---------------------------------------------------------------------
 Center     Atomic      Atomic             Coordinates (Angstroms)
 Number     Number       Type             X           Y           Z
 ---------------------------------------------------------------------
      1          8           0        2.205579    0.022408    0.000439
      2          6           0        0.918007    0.361819   -0.000513
      3          6           0       -0.069571   -0.546362   -0.000832
      4          7           0       -1.295947   -0.081131   -0.000187
      5          7           0       -2.388584    0.142083    0.000643
      6          1           0        0.797516    1.443239   -0.000485
      7          1           0        2.258953   -0.941910    0.001847
 ---------------------------------------------------------------------

 SCF Done:  E(RHF) =  -260.828012261     A.U. after    2 cycles

 The electronic state is 1-A.
 Alpha  occ. eigenvalues --  -20.60394 -15.70798 -15.63615 -11.35179 -11.24742
 Alpha  occ. eigenvalues --   -1.52911  -1.52274  -1.18178  -0.95407  -0.81365
 Alpha  occ. eigenvalues --   -0.75234  -0.73709  -0.73695  -0.67089  -0.59774
 Alpha  occ. eigenvalues --   -0.58763  -0.38425  -0.37157
 Alpha virt. eigenvalues --    0.03503   0.03584   0.04442   0.06406   0.07851
 Alpha virt. eigenvalues --    0.10074   0.10724   0.11234   0.12073   0.12779
 Alpha virt. eigenvalues --    0.13794   0.17011   0.17931   0.19492   0.20907

 Mulliken charges:
               1
     1  O   -1.162051
     2  C    1.337103
     3  C   -0.891291
     4  N   -0.705704
     5  N    1.001507
     6  H    0.036177
     7  H    0.384258
 Sum of Mulliken charges =  -0.00000

 Dipole moment (field-independent basis, Debye):
    X=              1.3092    Y=              0.8689    Z=              0.0023  Tot=              1.5713

 Test job not archived.
 1\1\GINC-SE162\SP\RHF\Aug-CC-pVDZ\C2H2N2O1\OHZDE\09-Apr-2025\0\\#t hf
 aug-cc-pvdz iop(5/13=1,5/36=2,99/5=2) pseudo=read geom=check guess=(re
 ad,tcheck) scf=(maxcycle=1)\\title\\0,1\O,0,-0.88696668,1.35585412,-0.
 70027805\C,0,-0.37202044,0.5120527,0.19183926\C,0,0.42689133,-0.508568
 01,-0.15482475\N,0,0.86957098,-1.26595226,0.82028667\N,0,1.33025099,-2
 .00175765,1.52031782\H,0,-0.68630148,0.76881477,1.20143759\H,0,-0.5789
 9269,1.08777633,-1.57551954\\Version=ES64L-G16RevC.01\State=1-A\HF=-26
 0.8280123\RMSD=6.465e-02\Dipole=-0.3705728,0.4905905,0.0645797\Quadrup

 Normal termination of Gaussian 16 at Wed Apr  9 03:20:18 2025.
