 Gaussian 16, Revision C.01,

 ----------------------------------------------------------------------
 #t hf aug-cc-pvdz symm=none int=(grid=ultrafine) guess=(read,tcheck) s
 table=(opt,rrhf)
 ----------------------------------------------------------------------
 -----
 title
 -----
 Symbolic Z-matrix:
 Charge =  0 Multiplicity = 1

 SCF Done:  E(RHF) =  -269.796280180     A.U. after   16 cycles

 1\1\GINC-SE043\Stability\RHF\Aug-CC-pVDZ\C5H10O1\OHZDE\09-Apr-2025\0\\
 #t hf aug-cc-pvdz symm=none int=(grid=ultrafine) guess=(read,tcheck) s
 table=(opt,rrhf)\\title\\0,1\O,0,1.76482309,0.15457185,1.54073951\C,0,
 1.55285655,-0.55139133,0.42153442\C,0,0.31888694,-0.56961625,-0.268132
 73\C,0,-1.12663781,-0.76381978,0.3881194\C,0,-1.72783288,0.32951874,-0
 .48093842\C,0,-0.27216477,0.80905393,-0.60036754\H,0,1.05236503,0.7917
 9022,1.65900228\H,0,1.98337185,0.76341149,-1.0387105\H,0,2.33404258,-1
 .27840588,0.24672356\H,0,0.39708179,-1.18968587,-1.16224164\H,0,-1.120

 Normal termination of Gaussian 16 at Wed Apr  9 16:47:16 2025.
 Gaussian 16:  ES64L-G16RevC.01  3-Jul-2019

 ----------------------------------------------------------------------
 #t hf aug-cc-pvdz iop(5/13=1,5/36=2,99/5=2) pseudo=read geom=check gue
 ss=(read,tcheck) scf=(maxcycle=1)
 ----------------------------------------------------------------------
 -----
 title
 -----
 Structure from the checkpoint file:  "Grambow2020_wb97xd3_006152_forward_mol1.chk"
 Charge =  0 Multiplicity = 1

                         Standard orientation:
 ---------------------------------------------------------------------
 Center     Atomic      Atomic             Coordinates (Angstroms)
 Number     Number       Type             X           Y           Z
 ---------------------------------------------------------------------
      1          8           0       -2.013237   -0.264614   -0.690493
      2          6           0       -1.435095   -0.091408    0.506038
      3          6           0       -0.035751   -0.019369    0.693921
      4          6           0        1.053056   -1.009640    0.067994
      5          6           0        1.983901    0.142944   -0.274299
      6          6           0        0.700201    0.985867   -0.205150
      7          1           0       -1.366260   -0.106851   -1.386309
      8          1           0       -1.231994    1.905861    0.632650
      9          1           0       -2.129090   -0.254777    1.319083
     10          1           0        0.193857    0.152930    1.746359
     11          1           0        0.667923   -1.518184   -0.814111
     12          1           0        1.380758   -1.737208    0.809820
     13          1           0        2.692312    0.366169    0.524775
     14          1           0        2.503862    0.093112   -1.227798
     15          1           0        0.247600    1.050653   -1.204273
     16          1           0       -0.450940    2.114856    0.392719
 ---------------------------------------------------------------------

 SCF Done:  E(RHF) =  -270.084132651     A.U. after    2 cycles

 The electronic state is 1-A.
 Alpha  occ. eigenvalues --  -20.61148 -11.35521 -11.26861 -11.24475 -11.23044
 Alpha  occ. eigenvalues --  -11.22954  -1.52959  -1.15773  -1.00759  -0.88532
 Alpha  occ. eigenvalues --   -0.87415  -0.77699  -0.73509  -0.68490  -0.64859
 Alpha  occ. eigenvalues --   -0.61261  -0.60149  -0.56289  -0.54170  -0.52377
 Alpha  occ. eigenvalues --   -0.48673  -0.46761  -0.44323  -0.25232
 Alpha virt. eigenvalues --    0.02760   0.03206   0.04010   0.04798   0.05693
 Alpha virt. eigenvalues --    0.06157   0.06673   0.06853   0.07755   0.08418
 Alpha virt. eigenvalues --    0.10416   0.11842   0.12756   0.14021   0.14103

 Mulliken charges:
               1
     1  O   -1.445740
     2  C    1.183124
     3  C    0.002269
     4  C   -0.023729
     5  C    0.035944
     6  C   -0.250403
     7  H    0.417632
     8  H   -0.034324
     9  H   -0.050742
    10  H   -0.087872
    11  H   -0.030123
    12  H    0.069718
    13  H    0.015003
    14  H    0.043517
    15  H   -0.155282
    16  H    0.311006
 Sum of Mulliken charges =  -0.00000

 Dipole moment (field-independent basis, Debye):
    X=              0.1862    Y=             -2.7401    Z=             -0.2754  Tot=              2.7602

 Test job not archived.
 1\1\GINC-SE043\SP\RHF\Aug-CC-pVDZ\C5H10O1\OHZDE\09-Apr-2025\0\\#t hf a
 ug-cc-pvdz iop(5/13=1,5/36=2,99/5=2) pseudo=read geom=check guess=(rea
 d,tcheck) scf=(maxcycle=1)\\title\\0,1\O,0,1.76482309,0.15457185,1.540
 73951\C,0,1.55285655,-0.55139133,0.42153442\C,0,0.31888694,-0.56961625
 ,-0.26813273\C,0,-1.12663781,-0.76381978,0.3881194\C,0,-1.72783288,0.3
 2951874,-0.48093842\C,0,-0.27216477,0.80905393,-0.60036754\H,0,1.05236
 503,0.79179022,1.65900228\H,0,1.98337185,0.76341149,-1.0387105\H,0,2.3
 3404258,-1.27840588,0.24672356\H,0,0.39708179,-1.18968587,-1.16224164\

 Normal termination of Gaussian 16 at Wed Apr  9 16:47:21 2025.
