 Gaussian 16, Revision C.01,

 ----------------------------------------------------------------------
 #t hf aug-cc-pvdz symm=none int=(grid=ultrafine) guess=(read,tcheck) s
 table=(opt,rrhf)
 ----------------------------------------------------------------------
 -----
 title
 -----
 Symbolic Z-matrix:
 Charge =  0 Multiplicity = 1

 SCF Done:  E(RHF) =  -306.596735780     A.U. after   15 cycles
 Normal termination of Gaussian 16 at Wed Apr  9 18:54:49 2025.
 Gaussian 16:  ES64L-G16RevC.01  3-Jul-2019

 ----------------------------------------------------------------------
 #t hf aug-cc-pvdz iop(5/13=1,5/36=2,99/5=2) pseudo=read geom=check gue
 ss=(read,tcheck) scf=(maxcycle=1)
 ----------------------------------------------------------------------
 -----
 title
 -----
 Structure from the checkpoint file:  "Grambow2020_wb97xd3_008210_reverse_mol2.chk"
 Charge =  0 Multiplicity = 1

                         Standard orientation:
 ---------------------------------------------------------------------
 Center     Atomic      Atomic             Coordinates (Angstroms)
 Number     Number       Type             X           Y           Z
 ---------------------------------------------------------------------
      1          6           0       -1.468784   -0.170418   -0.612532
      2          8           0       -0.889719   -1.391989   -0.117891
      3          6           0        0.060071   -0.662676    0.663783
      4          6           0        1.439377   -0.730902    0.060495
      5          6           0        2.248527    0.081736   -0.527557
      6          6           0        0.017434    1.908757    0.032272
      7          6           0       -0.711685    0.651525    0.438141
      8          1           0       -1.155909    0.029600   -1.643056
      9          1           0       -2.558237   -0.186904   -0.554153
     10          1           0        0.101818   -1.038069    1.688822
     11          1           0        1.958135   -1.701668    0.053102
     12          1           0        0.708174    1.725711   -0.798328
     13          1           0        0.590157    2.320951    0.864530
     14          1           0       -0.687691    2.674407   -0.298359
     15          1           0       -1.348337    0.843749    1.302962
 ---------------------------------------------------------------------

 SCF Done:  E(RHF) =  -306.912514732     A.U. after    2 cycles

 The electronic state is 1-A.
 Alpha  occ. eigenvalues --  -20.55196 -11.32174 -11.29705 -11.29421 -11.25562
 Alpha  occ. eigenvalues --  -11.24372 -11.24110  -1.48413  -1.10249  -1.05976
 Alpha  occ. eigenvalues --   -0.94950  -0.93468  -0.79672  -0.72474  -0.69340
 Alpha  occ. eigenvalues --   -0.65460  -0.63295  -0.59330  -0.58744  -0.57309
 Alpha  occ. eigenvalues --   -0.52729  -0.48150  -0.47880  -0.45374  -0.42540
 Alpha  occ. eigenvalues --   -0.40960
 Alpha virt. eigenvalues --    0.02987   0.03502   0.04189   0.04399   0.05889
 Alpha virt. eigenvalues --    0.06308   0.06624   0.07142   0.07776   0.09215
 Alpha virt. eigenvalues --    0.11373   0.12678   0.13107   0.13540   0.14483

 Mulliken charges:
               1
     1  C    0.799100
     2  O   -1.395428
     3  C    0.824965
     4  C    0.760165
     5  C   -0.563759
     6  C   -0.360120
     7  C   -0.740565
     8  H    0.055419
     9  H    0.045663
    10  H    0.060478
    11  H   -0.063530
    12  H    0.201254
    13  H    0.198448
    14  H    0.162521
    15  H    0.015389
 Sum of Mulliken charges =  -0.00000

 Dipole moment (field-independent basis, Debye):
    X=             -1.8289    Y=              0.7507    Z=              1.4541  Tot=              2.4542

 Test job not archived.
 1\1\GINC-SE224\SP\RHF\Aug-CC-pVDZ\C6H8O1\OHZDE\09-Apr-2025\0\\#t hf au
 g-cc-pvdz iop(5/13=1,5/36=2,99/5=2) pseudo=read geom=check guess=(read
 ,tcheck) scf=(maxcycle=1)\\title\\0,1\C,0,-1.3030981,-0.54400706,-0.72
 219043\O,0,-0.70908892,-1.7160214,-0.13418077\C,0,0.15100992,-0.911934
 27,0.67741389\C,0,1.57125786,-0.94247946,0.17436099\C,0,2.38473415,-0.
 11922183,-0.39256888\C,0,0.04384931,1.62605595,-0.07092648\C,0,-0.6580
 3836,0.35505152,0.34002108\H,0,-0.9267663,-0.37342349,-1.7366628\H,0,-
 2.39225831,-0.60769606,-0.73838543\H,0,0.13593791,-1.24161149,1.718784

 Normal termination of Gaussian 16 at Wed Apr  9 18:54:55 2025.
