 Gaussian 16, Revision C.01,

 ----------------------------------------------------------------------
 #t hf aug-cc-pvdz symm=none int=(grid=ultrafine) guess=(read,tcheck) s
 table=(opt,rrhf)
 ----------------------------------------------------------------------
 -----
 title
 -----
 Symbolic Z-matrix:
 Charge =  0 Multiplicity = 1

 SCF Done:  E(RHF) =  -339.099410580     A.U. after   17 cycles
 Normal termination of Gaussian 16 at Wed Apr  9 15:50:36 2025.
 Gaussian 16:  ES64L-G16RevC.01  3-Jul-2019

 ----------------------------------------------------------------------
 #t hf aug-cc-pvdz iop(5/13=1,5/36=2,99/5=2) pseudo=read geom=check gue
 ss=(read,tcheck) scf=(maxcycle=1)
 ----------------------------------------------------------------------
 -----
 title
 -----
 Structure from the checkpoint file:  "Grambow2020_b97d3_006816_reverse_mol2.chk"
 Charge =  0 Multiplicity = 1

                         Standard orientation:
 ---------------------------------------------------------------------
 Center     Atomic      Atomic             Coordinates (Angstroms)
 Number     Number       Type             X           Y           Z
 ---------------------------------------------------------------------
      1          8           0        0.709715    1.381286    0.000541
      2          6           0       -2.355843    0.247232   -0.000303
      3          6           0       -1.175319   -0.089219   -0.000195
      4          8           0       -0.249635   -1.075156    0.000851
      5          6           0        1.049552   -0.845650   -0.000510
      6          8           0        1.591006    0.312692   -0.000448
      7          1           0       -3.208219    0.895521   -0.000904
      8          1           0        1.689180   -1.720275   -0.000599
 ---------------------------------------------------------------------

 SCF Done:  E(RHF) =  -339.424211155     A.U. after    2 cycles

 The electronic state is 1-A.
 Alpha  occ. eigenvalues --  -20.70989 -20.69514 -20.52729 -11.49015 -11.34286
 Alpha  occ. eigenvalues --  -11.26158  -1.67839  -1.61052  -1.25701  -1.07155
 Alpha  occ. eigenvalues --   -0.96776  -0.82638  -0.81802  -0.73754  -0.71739
 Alpha  occ. eigenvalues --   -0.67292  -0.62591  -0.60184  -0.46624  -0.43063
 Alpha  occ. eigenvalues --   -0.37981  -0.37701
 Alpha virt. eigenvalues --    0.02050   0.04233   0.04425   0.07316   0.09388
 Alpha virt. eigenvalues --    0.09721   0.10081   0.11719   0.12403   0.14241
 Alpha virt. eigenvalues --    0.14682   0.16322   0.16818   0.17456   0.19210

 Mulliken charges:
               1
     1  O   -0.559278
     2  C    0.007033
     3  C    0.703075
     4  O   -1.063889
     5  C    1.601091
     6  O   -0.617657
     7  H   -0.185141
     8  H    0.114767
 Sum of Mulliken charges =  -0.00000

 Dipole moment (field-independent basis, Debye):
    X=              0.4782    Y=             -4.4089    Z=             -0.0027  Tot=              4.4348

 Test job not archived.
 1\1\GINC-SE100\SP\RHF\Aug-CC-pVDZ\C3H2O3\OHZDE\09-Apr-2025\0\\#t hf au
 g-cc-pvdz iop(5/13=1,5/36=2,99/5=2) pseudo=read geom=check guess=(read
 ,tcheck) scf=(maxcycle=1)\\title\\0,1\O,0,0.18158888,-1.12381498,1.367
 29405\C,0,-1.39042876,1.5807126,0.41965633\C,0,-0.58373317,0.72731598,
 0.06217471\O,0,0.23597777,0.23316674,-0.89325904\C,0,0.96882008,-0.851
 00305,-0.72568763\O,0,0.99728371,-1.56156298,0.33696056\H,0,-2.0779619
 ,2.09863298,1.05674372\H,0,1.58614038,-1.14498328,-1.56627369\\Version
 =ES64L-G16RevC.01\State=1-A\HF=-339.4242112\RMSD=1.633e-02\Dipole=0.56

 Normal termination of Gaussian 16 at Wed Apr  9 15:50:39 2025.
