 Gaussian 16, Revision C.01,

 ----------------------------------------------------------------------
 #t hf aug-cc-pvdz symm=none int=(grid=ultrafine) guess=(read,tcheck) s
 table=(opt,rrhf)
 ----------------------------------------------------------------------
 -----
 title
 -----
 Symbolic Z-matrix:
 Charge =  0 Multiplicity = 1

 SCF Done:  E(RHF) =  -305.507064791     A.U. after   14 cycles
 Normal termination of Gaussian 16 at Wed Apr  9 18:55:39 2025.
 Gaussian 16:  ES64L-G16RevC.01  3-Jul-2019

 ----------------------------------------------------------------------
 #t hf aug-cc-pvdz iop(5/13=1,5/36=2,99/5=2) pseudo=read geom=check gue
 ss=(read,tcheck) scf=(maxcycle=1)
 ----------------------------------------------------------------------
 -----
 title
 -----
 Structure from the checkpoint file:  "Grambow2020_wb97xd3_008359_reverse_mol2.chk"
 Charge =  0 Multiplicity = 1

                         Standard orientation:
 ---------------------------------------------------------------------
 Center     Atomic      Atomic             Coordinates (Angstroms)
 Number     Number       Type             X           Y           Z
 ---------------------------------------------------------------------
      1          6           0        2.951667    0.011520    0.001256
      2          6           0        1.651498    0.038913   -0.001203
      3          6           0        0.347451    0.055840   -0.000688
      4          6           0       -0.566460    1.199826   -0.000911
      5          6           0       -1.806580    0.714677    0.000603
      6          8           0       -1.900834   -0.634959    0.001633
      7          6           0       -0.564067   -1.160191   -0.001117
      8          1           0        3.518706    0.000540   -0.924410
      9          1           0       -0.280761    2.238195   -0.001488
     10          1           0        3.515549    0.002136    0.929018
     11          1           0       -2.753279    1.235385    0.000886
     12          1           0       -0.438575   -1.778516   -0.891631
     13          1           0       -0.436020   -1.781573    0.886917
 ---------------------------------------------------------------------

 SCF Done:  E(RHF) =  -305.819903440     A.U. after    2 cycles

 The electronic state is 1-A.
 Alpha  occ. eigenvalues --  -20.57638 -11.30919 -11.30500 -11.26214 -11.25208
 Alpha  occ. eigenvalues --  -11.24720 -11.23662  -1.51138  -1.11600  -1.04262
 Alpha  occ. eigenvalues --   -1.00490  -0.89333  -0.80062  -0.75250  -0.68826
 Alpha  occ. eigenvalues --   -0.67499  -0.63224  -0.61255  -0.59248  -0.56463
 Alpha  occ. eigenvalues --   -0.54074  -0.51787  -0.43978  -0.38396  -0.30429
 Alpha virt. eigenvalues --    0.03586   0.03834   0.04465   0.04566   0.05412
 Alpha virt. eigenvalues --    0.06213   0.09182   0.09409   0.10575   0.10886
 Alpha virt. eigenvalues --    0.11619   0.12581   0.13353   0.14350   0.14575

 Mulliken charges:
               1
     1  C   -0.117272
     2  C    0.642587
     3  C   -0.120489
     4  C   -0.009229
     5  C    0.824727
     6  O   -1.406200
     7  C    0.374351
     8  H   -0.065369
     9  H   -0.241407
    10  H   -0.065436
    11  H   -0.107111
    12  H    0.145720
    13  H    0.145128
 Sum of Mulliken charges =   0.00000

 Dipole moment (field-independent basis, Debye):
    X=              0.2662    Y=              0.2248    Z=             -0.0004  Tot=              0.3484

 Test job not archived.
 1\1\GINC-SE114\SP\RHF\Aug-CC-pVDZ\C6H6O1\OHZDE\09-Apr-2025\0\\#t hf au
 g-cc-pvdz iop(5/13=1,5/36=2,99/5=2) pseudo=read geom=check guess=(read
 ,tcheck) scf=(maxcycle=1)\\title\\0,1\C,0,2.28315438,-0.19015257,1.677
 40837\C,0,1.19070875,-0.07314374,0.98165935\C,0,0.09311932,0.03353444,
 0.2854239\C,0,-0.64606172,1.23578185,-0.10464083\C,0,-1.7035565,0.8379
 9242,-0.80943658\O,0,-1.81889034,-0.49963918,-0.97629717\C,0,-0.705897
 98,-1.11464659,-0.30858665\H,0,3.25926701,-0.18546329,1.20233605\H,0,-
 0.37798516,2.25021385,0.13804813\H,0,2.25739416,-0.29316773,2.75792573

 Normal termination of Gaussian 16 at Wed Apr  9 18:55:44 2025.
