 Gaussian 16, Revision C.01,

 ----------------------------------------------------------------------
 #t hf aug-cc-pvdz symm=none int=(grid=ultrafine) guess=(read,tcheck) s
 table=(opt,rrhf)
 ----------------------------------------------------------------------
 -----
 title
 -----
 Symbolic Z-matrix:
 Charge =  0 Multiplicity = 1

 SCF Done:  E(RHF) =  -359.575322223     A.U. after   15 cycles
 Normal termination of Gaussian 16 at Wed Apr  9 19:21:05 2025.
 Gaussian 16:  ES64L-G16RevC.01  3-Jul-2019

 ----------------------------------------------------------------------
 #t hf aug-cc-pvdz iop(5/13=1,5/36=2,99/5=2) pseudo=read geom=check gue
 ss=(read,tcheck) scf=(maxcycle=1)
 ----------------------------------------------------------------------
 -----
 title
 -----
 Structure from the checkpoint file:  "Grambow2020_wb97xd3_009401_reverse_mol1.chk"
 Charge =  0 Multiplicity = 1

                         Standard orientation:
 ---------------------------------------------------------------------
 Center     Atomic      Atomic             Coordinates (Angstroms)
 Number     Number       Type             X           Y           Z
 ---------------------------------------------------------------------
      1          8           0       -1.778599    0.069701   -0.923200
      2          6           0       -1.254342    0.041890    0.289849
      3          6           0       -0.352582   -1.116665    0.666868
      4          8           0        0.766104   -1.276534   -0.192710
      5          6           0        1.555838   -0.208850   -0.364367
      6          7           0        1.344520    1.002963   -0.087214
      7          6           0        0.069675    1.427229    0.400436
      8          1           0       -0.909698    1.033374   -0.444315
      9          1           0       -1.892736    0.339529    1.140380
     10          1           0       -0.005365   -1.034390    1.701767
     11          1           0       -0.950140   -2.022535    0.556304
     12          1           0        2.497634   -0.502904   -0.819450
     13          1           0        0.016609    1.550747    1.480306
     14          1           0       -0.179528    2.408486   -0.033934
 ---------------------------------------------------------------------

 SCF Done:  E(RHF) =  -359.940103846     A.U. after    2 cycles

 The electronic state is 1-A.
 Alpha  occ. eigenvalues --  -20.60525 -20.48817 -15.50937 -11.36782 -11.36396
 Alpha  occ. eigenvalues --  -11.32439 -11.30915  -1.54364  -1.42531  -1.25366
 Alpha  occ. eigenvalues --   -1.07067  -0.98732  -0.90528  -0.77599  -0.75487
 Alpha  occ. eigenvalues --   -0.73676  -0.71379  -0.68291  -0.63360  -0.60870
 Alpha  occ. eigenvalues --   -0.59428  -0.55255  -0.53639  -0.50722  -0.44151
 Alpha  occ. eigenvalues --   -0.39816  -0.36102
 Alpha virt. eigenvalues --    0.02655   0.03958   0.04022   0.04707   0.05596
 Alpha virt. eigenvalues --    0.06301   0.08127   0.09258   0.09918   0.11675
 Alpha virt. eigenvalues --    0.12069   0.12718   0.13931   0.14316   0.14836

 Mulliken charges:
               1
     1  O   -1.565112
     2  C    0.929804
     3  C    0.617663
     4  O   -1.195666
     5  C    0.281921
     6  N    0.739142
     7  C   -0.967304
     8  H    0.533299
     9  H    0.200135
    10  H    0.198279
    11  H    0.059348
    12  H   -0.025986
    13  H    0.130928
    14  H    0.063548
 Sum of Mulliken charges =   0.00000

 Dipole moment (field-independent basis, Debye):
    X=              0.9231    Y=             -0.3012    Z=              3.7554  Tot=              3.8789

 Test job not archived.
 1\1\GINC-SE029\SP\RHF\Aug-CC-pVDZ\C4H7N1O2\OHZDE\09-Apr-2025\0\\#t hf
 aug-cc-pvdz iop(5/13=1,5/36=2,99/5=2) pseudo=read geom=check guess=(re
 ad,tcheck) scf=(maxcycle=1)\\title\\0,1\O,0,-1.25141795,-0.41054166,1.
 58523684\C,0,-1.10573529,0.14141827,0.39308598\C,0,-0.14756595,1.30620
 375,0.24225577\O,0,1.18109457,1.01257787,0.64763921\C,0,1.76717234,-0.
 04918323,0.07995136\N,0,1.25688125,-0.99418761,-0.58075243\C,0,-0.1611
 0298,-1.09788446,-0.72772292\H,0,-0.75959416,-1.08847475,0.48455553\H,
 0,-2.00770187,0.28811329,-0.22697538\H,0,-0.13738619,1.6868814,-0.7840

 Normal termination of Gaussian 16 at Wed Apr  9 19:21:10 2025.
