 Gaussian 16, Revision C.01,

 ----------------------------------------------------------------------
 #t hf aug-cc-pvdz symm=none int=(grid=ultrafine) guess=(read,tcheck) s
 table=(opt,rrhf)
 ----------------------------------------------------------------------
 -----
 title
 -----
 Symbolic Z-matrix:
 Charge =  0 Multiplicity = 1

 SCF Done:  E(RHF) =  -359.760899138     A.U. after   14 cycles
 Normal termination of Gaussian 16 at Wed Apr  9 04:05:42 2025.
 Gaussian 16:  ES64L-G16RevC.01  3-Jul-2019

 ----------------------------------------------------------------------
 #t hf aug-cc-pvdz iop(5/13=1,5/36=2,99/5=2) pseudo=read geom=check gue
 ss=(read,tcheck) scf=(maxcycle=1)
 ----------------------------------------------------------------------
 -----
 title
 -----
 Structure from the checkpoint file:  "Grambow2020_wb97xd3_009244_reverse_mol2.chk"
 Charge =  0 Multiplicity = 1

                         Standard orientation:
 ---------------------------------------------------------------------
 Center     Atomic      Atomic             Coordinates (Angstroms)
 Number     Number       Type             X           Y           Z
 ---------------------------------------------------------------------
      1          6           0       -1.179489   -0.963221    0.822974
      2          6           0       -0.069616   -0.861809   -0.212974
      3          6           0       -1.444338   -0.242369   -0.441784
      4          8           0       -1.612881    1.123490   -0.490267
      5          6           0        1.040789    0.076528    0.075171
      6          8           0        0.864295    1.139157    0.657334
      7          7           0        2.267040   -0.294399   -0.359387
      8          1           0       -0.891638    1.521151    0.024553
      9          1           0       -1.616516   -1.939279    0.985488
     10          1           0       -1.040379   -0.355773    1.708569
     11          1           0        0.178142   -1.753336   -0.775698
     12          1           0       -2.055437   -0.736282   -1.186861
     13          1           0        2.424010   -1.162803   -0.833102
     14          1           0        3.037154    0.331171   -0.204106
 ---------------------------------------------------------------------

 SCF Done:  E(RHF) =  -360.127938176     A.U. after    2 cycles

 The electronic state is 1-A.
 Alpha  occ. eigenvalues --  -20.53802 -20.51701 -15.53883 -11.37200 -11.30446
 Alpha  occ. eigenvalues --  -11.25565 -11.24738  -1.47604  -1.44952  -1.23822
 Alpha  occ. eigenvalues --   -1.15406  -0.93141  -0.83956  -0.82478  -0.76312
 Alpha  occ. eigenvalues --   -0.72965  -0.69956  -0.64352  -0.62269  -0.59591
 Alpha  occ. eigenvalues --   -0.56014  -0.55793  -0.55023  -0.45271  -0.44082
 Alpha  occ. eigenvalues --   -0.43272  -0.39337
 Alpha virt. eigenvalues --    0.02241   0.03592   0.04481   0.05134   0.06311
 Alpha virt. eigenvalues --    0.06831   0.07883   0.09943   0.11433   0.12143
 Alpha virt. eigenvalues --    0.12742   0.13231   0.13629   0.14645   0.15153

 Mulliken charges:
               1
     1  C    0.082061
     2  C    0.519104
     3  C    1.498523
     4  O   -1.413231
     5  C    0.102442
     6  O   -1.359094
     7  N    0.663831
     8  H    0.358124
     9  H   -0.138492
    10  H   -0.098082
    11  H   -0.231301
    12  H   -0.136204
    13  H    0.038066
    14  H    0.114254
 Sum of Mulliken charges =  -0.00000

 Dipole moment (field-independent basis, Debye):
    X=              2.2312    Y=             -3.9140    Z=             -0.9100  Tot=              4.5963

 Test job not archived.
 1\1\GINC-SE437\SP\RHF\Aug-CC-pVDZ\C4H7N1O2\OHZDE\09-Apr-2025\0\\#t hf
 aug-cc-pvdz iop(5/13=1,5/36=2,99/5=2) pseudo=read geom=check guess=(re
 ad,tcheck) scf=(maxcycle=1)\\title\\0,1\C,0,-1.3354302,-0.85945864,0.0
 4621146\C,0,-0.20935852,-0.05843251,-0.59066462\C,0,-1.3814074,0.61798
 979,0.11266653\O,0,-1.20482366,1.30861309,1.29087979\C,0,1.09138419,-0
 .03778968,0.11936655\O,0,1.1692326,-0.03858687,1.34132539\N,0,2.197940
 75,0.00280782,-0.6578103\H,0,-0.42070242,0.93739333,1.72758968\H,0,-2.
 00472351,-1.3873318,-0.6197384\H,0,-1.07240481,-1.37900631,0.95918012\

 Normal termination of Gaussian 16 at Wed Apr  9 04:05:47 2025.
