 Gaussian 16, Revision C.01,

 ----------------------------------------------------------------------
 #t hf aug-cc-pvdz symm=none int=(grid=ultrafine) guess=(read,tcheck) s
 table=(opt,rrhf)
 ----------------------------------------------------------------------
 -----
 title
 -----
 Symbolic Z-matrix:
 Charge =  0 Multiplicity = 1

 SCF Done:  E(RHF) =  -323.669983623     A.U. after   17 cycles
 Normal termination of Gaussian 16 at Wed Apr  9 17:48:13 2025.
 Gaussian 16:  ES64L-G16RevC.01  3-Jul-2019

 ----------------------------------------------------------------------
 #t hf aug-cc-pvdz iop(5/13=1,5/36=2,99/5=2) pseudo=read geom=check gue
 ss=(read,tcheck) scf=(maxcycle=1)
 ----------------------------------------------------------------------
 -----
 title
 -----
 Structure from the checkpoint file:  "Grambow2020_wb97xd3_006826_forward_mol1.chk"
 Charge =  0 Multiplicity = 1

                         Standard orientation:
 ---------------------------------------------------------------------
 Center     Atomic      Atomic             Coordinates (Angstroms)
 Number     Number       Type             X           Y           Z
 ---------------------------------------------------------------------
      1          6           0        2.352269   -0.640116   -0.265206
      2          6           0        1.171628    0.056588    0.384745
      3          6           0        0.667083    1.371214   -0.221936
      4          6           0       -0.792130    1.248552    0.182522
      5          6           0       -0.146028   -0.626031    0.251729
      6          7           0       -0.863441   -1.550320    0.072348
      7          8           0       -2.358645   -0.230506   -0.239710
      8          1           0        3.245020   -0.017573   -0.180327
      9          1           0        2.159167   -0.822804   -1.323307
     10          1           0        2.556520   -1.598113    0.213372
     11          1           0        1.349304    0.194207    1.455735
     12          1           0        1.147123    2.292669    0.123230
     13          1           0        0.759934    1.328284   -1.309019
     14          1           0       -1.514195    1.793172   -0.406524
     15          1           0       -0.985696    1.320899    1.247035
     16          1           0       -3.320862   -0.255696   -0.400069
 ---------------------------------------------------------------------

 SCF Done:  E(RHF) =  -324.003277604     A.U. after    2 cycles

 The electronic state is 1-A.
 Alpha  occ. eigenvalues --  -20.48496 -15.55107 -11.32335 -11.29357 -11.26953
 Alpha  occ. eigenvalues --  -11.26752 -11.25167  -1.30772  -1.22659  -1.14325
 Alpha  occ. eigenvalues --   -1.01962  -0.89753  -0.85841  -0.72872  -0.67108
 Alpha  occ. eigenvalues --   -0.65085  -0.62666  -0.61699  -0.59124  -0.56230
 Alpha  occ. eigenvalues --   -0.55439  -0.53615  -0.51573  -0.49179  -0.41087
 Alpha  occ. eigenvalues --   -0.40374  -0.34652
 Alpha virt. eigenvalues --    0.01522   0.02580   0.03534   0.03739   0.04575
 Alpha virt. eigenvalues --    0.05713   0.05921   0.06512   0.07949   0.08767
 Alpha virt. eigenvalues --    0.11063   0.11713   0.12741   0.13492   0.13900

 Mulliken charges:
               1
     1  C   -0.091490
     2  C   -0.468169
     3  C    0.022805
     4  C    0.282776
     5  C   -1.636568
     6  N    1.232466
     7  O   -0.937573
     8  H    0.197875
     9  H    0.249055
    10  H    0.209082
    11  H    0.164018
    12  H    0.113096
    13  H    0.164895
    14  H   -0.042709
    15  H    0.152492
    16  H    0.387949
 Sum of Mulliken charges =   0.00000

 Dipole moment (field-independent basis, Debye):
    X=              3.9103    Y=              4.1970    Z=              0.7466  Tot=              5.7847

 Test job not archived.
 1\1\GINC-SE131\SP\RHF\Aug-CC-pVDZ\C5H9N1O1\OHZDE\09-Apr-2025\0\\#t hf
 aug-cc-pvdz iop(5/13=1,5/36=2,99/5=2) pseudo=read geom=check guess=(re
 ad,tcheck) scf=(maxcycle=1)\\title\\0,1\C,0,-1.81667521,-1.22519023,-0
 .29335572\C,0,-0.62366497,-0.34709862,-0.62111448\C,0,-0.55171016,1.05
 638939,-0.00799669\C,0,0.96062242,1.1878244,0.05124264\C,0,0.68202924,
 -0.77419976,-0.04437621\N,0,1.45019126,-1.54638384,0.41911974\O,0,2.54
 059774,0.03262444,1.04575386\H,0,-2.72904445,-0.77834855,-0.6929608\H,
 0,-1.9312392,-1.33515983,0.7860061\H,0,-1.70469248,-2.21943438,-0.7263

 Normal termination of Gaussian 16 at Wed Apr  9 17:48:19 2025.
