 Gaussian 16, Revision C.01,

 ----------------------------------------------------------------------
 #t hf aug-cc-pvdz symm=none int=(grid=ultrafine) guess=(read,tcheck) s
 table=(opt,rrhf)
 ----------------------------------------------------------------------
 -----
 title
 -----
 Symbolic Z-matrix:
 Charge =  0 Multiplicity = 1

 SCF Done:  E(RHF) =  -309.050829062     A.U. after   12 cycles

 1\1\GINC-SE362\Stability\RHF\Aug-CC-pVDZ\C6H12O1\OHZDE\09-Apr-2025\0\\
 #t hf aug-cc-pvdz symm=none int=(grid=ultrafine) guess=(read,tcheck) s
 table=(opt,rrhf)\\title\\0,1\C,0,2.54340868,-0.56077795,-0.07331276\O,
 0,1.19442956,-0.93808444,0.00867021\C,0,0.37887184,0.06861538,0.531124
 41\C,0,0.07136613,1.31502107,-0.3242173\C,0,-1.38567067,1.21836439,0.1
 793518\C,0,-1.12657745,-0.25567936,0.57800799\C,0,-1.5818095,-1.258869
 86,-0.46705229\H,0,2.94450822,-0.29234876,0.91337578\H,0,2.68588272,0.
 29214837,-0.74877304\H,0,3.09914184,-1.41316445,-0.46191235\H,0,0.7430

 Normal termination of Gaussian 16 at Wed Apr  9 18:57:57 2025.
 Gaussian 16:  ES64L-G16RevC.01  3-Jul-2019

 ----------------------------------------------------------------------
 #t hf aug-cc-pvdz iop(5/13=1,5/36=2,99/5=2) pseudo=read geom=check gue
 ss=(read,tcheck) scf=(maxcycle=1)
 ----------------------------------------------------------------------
 -----
 title
 -----
 Structure from the checkpoint file:  "Grambow2020_wb97xd3_008396_forward_mol2.chk"
 Charge =  0 Multiplicity = 1

                         Standard orientation:
 ---------------------------------------------------------------------
 Center     Atomic      Atomic             Coordinates (Angstroms)
 Number     Number       Type             X           Y           Z
 ---------------------------------------------------------------------
      1          6           0       -2.540765    0.045195   -0.086833
      2          8           0       -1.280373    0.648307    0.041599
      3          6           0       -0.293511   -0.240790    0.474204
      4          6           0        0.224691   -1.326282   -0.491649
      5          6           0        1.645166   -1.018256    0.031084
      6          6           0        1.130006    0.341679    0.564045
      7          6           0        1.389590    1.503647   -0.378413
      8          1           0       -2.879001   -0.381994    0.866895
      9          1           0       -2.534119   -0.752279   -0.840504
     10          1           0       -3.243266    0.817074   -0.398453
     11          1           0       -0.590015   -0.691279    1.432854
     12          1           0       -0.155517   -2.341490   -0.379165
     13          1           0        0.097132   -1.010030   -1.528324
     14          1           0        2.446503   -0.977844   -0.707373
     15          1           0        1.943737   -1.694265    0.832850
     16          1           0        1.449288    0.607167    1.573731
     17          1           0        2.452074    1.757489   -0.377509
     18          1           0        1.101201    1.263377   -1.403828
     19          1           0        0.823906    2.386461   -0.078601
 ---------------------------------------------------------------------

 SCF Done:  E(RHF) =  -309.383941052     A.U. after    2 cycles

 The electronic state is 1-A.
 Alpha  occ. eigenvalues --  -20.53868 -11.27750 -11.27599 -11.22612 -11.22475
 Alpha  occ. eigenvalues --  -11.22292 -11.21425  -1.46498  -1.13794  -0.97748
 Alpha  occ. eigenvalues --   -0.94651  -0.86572  -0.85477  -0.73957  -0.68855
 Alpha  occ. eigenvalues --   -0.66858  -0.63588  -0.62456  -0.57731  -0.55636
 Alpha  occ. eigenvalues --   -0.54858  -0.52928  -0.51761  -0.47923  -0.46239
 Alpha  occ. eigenvalues --   -0.45303  -0.43556  -0.39696
 Alpha virt. eigenvalues --    0.03522   0.03622   0.03947   0.04215   0.05880
 Alpha virt. eigenvalues --    0.06015   0.06246   0.06493   0.07078   0.08953
 Alpha virt. eigenvalues --    0.09356   0.10021   0.11942   0.13382   0.13671

 Mulliken charges:
               1
     1  C    0.034678
     2  O   -1.537620
     3  C    1.484589
     4  C   -0.276571
     5  C    0.218844
     6  C   -0.625557
     7  C   -0.262513
     8  H    0.186738
     9  H    0.186821
    10  H   -0.031048
    11  H    0.053414
    12  H   -0.024365
    13  H    0.047666
    14  H    0.027327
    15  H    0.028817
    16  H   -0.017579
    17  H    0.134508
    18  H    0.196082
    19  H    0.175773
 Sum of Mulliken charges =  -0.00000

 Dipole moment (field-independent basis, Debye):
    X=             -0.2466    Y=             -1.1204    Z=              0.2149  Tot=              1.1672

 Test job not archived.
 1\1\GINC-SE362\SP\RHF\Aug-CC-pVDZ\C6H12O1\OHZDE\09-Apr-2025\0\\#t hf a
 ug-cc-pvdz iop(5/13=1,5/36=2,99/5=2) pseudo=read geom=check guess=(rea
 d,tcheck) scf=(maxcycle=1)\\title\\0,1\C,0,2.54340868,-0.56077795,-0.0
 7331276\O,0,1.19442956,-0.93808444,0.00867021\C,0,0.37887184,0.0686153
 8,0.53112441\C,0,0.07136613,1.31502107,-0.3242173\C,0,-1.38567067,1.21
 836439,0.1793518\C,0,-1.12657745,-0.25567936,0.57800799\C,0,-1.5818095
 ,-1.25886986,-0.46705229\H,0,2.94450822,-0.29234876,0.91337578\H,0,2.6
 8588272,0.29214837,-0.74877304\H,0,3.09914184,-1.41316445,-0.46191235\

 Normal termination of Gaussian 16 at Wed Apr  9 18:58:03 2025.
