 Gaussian 16, Revision C.01,

 ----------------------------------------------------------------------
 #t hf aug-cc-pvdz symm=none int=(grid=ultrafine) guess=(read,tcheck) s
 table=(opt,rrhf)
 ----------------------------------------------------------------------
 -----
 title
 -----
 Symbolic Z-matrix:
 Charge =  0 Multiplicity = 1

 SCF Done:  E(RHF) =  -305.663006477     A.U. after   15 cycles
 Normal termination of Gaussian 16 at Wed Apr  9 03:16:03 2025.
 Gaussian 16:  ES64L-G16RevC.01  3-Jul-2019

 ----------------------------------------------------------------------
 #t hf aug-cc-pvdz iop(5/13=1,5/36=2,99/5=2) pseudo=read geom=check gue
 ss=(read,tcheck) scf=(maxcycle=1)
 ----------------------------------------------------------------------
 -----
 title
 -----
 Structure from the checkpoint file:  "Grambow2020_b97d3_006965_forward_mol1.chk"
 Charge =  0 Multiplicity = 1

                         Standard orientation:
 ---------------------------------------------------------------------
 Center     Atomic      Atomic             Coordinates (Angstroms)
 Number     Number       Type             X           Y           Z
 ---------------------------------------------------------------------
      1          8           0        1.822471   -0.973859   -0.175426
      2          6           0        1.677141    0.377446    0.236881
      3          6           0        0.406898    1.038133   -0.329615
      4          6           0       -0.848537    0.524279    0.331887
      5          6           0       -1.945612   -0.063095   -0.454404
      6          8           0       -1.123990   -0.939228    0.183248
      7          1           0        0.966101   -1.414834   -0.020650
      8          1           0        1.674740    0.476221    1.340886
      9          1           0        2.563953    0.906272   -0.137472
     10          1           0        0.444977    2.127128   -0.165610
     11          1           0        0.358830    0.864266   -1.413294
     12          1           0       -1.023017    0.836952    1.363392
     13          1           0       -3.098993   -0.036291   -0.392314
     14          1           0       -3.213775    0.284413    0.653996
 ---------------------------------------------------------------------

 SCF Done:  E(RHF) =  -305.978030758     A.U. after    2 cycles

 The electronic state is 1-A.
 Alpha  occ. eigenvalues --  -20.60804 -20.54542 -11.35148 -11.33693 -11.29739
 Alpha  occ. eigenvalues --  -11.25983  -1.54367  -1.44270  -1.07221  -0.95206
 Alpha  occ. eigenvalues --   -0.88971  -0.82480  -0.74699  -0.68797  -0.65931
 Alpha  occ. eigenvalues --   -0.64696  -0.60466  -0.58375  -0.54716  -0.52941
 Alpha  occ. eigenvalues --   -0.49296  -0.47178  -0.43772  -0.35497
 Alpha virt. eigenvalues --    0.02445   0.03457   0.03937   0.04970   0.06049
 Alpha virt. eigenvalues --    0.06435   0.07435   0.08774   0.09651   0.10026
 Alpha virt. eigenvalues --    0.11386   0.12684   0.13462   0.14723   0.15109

 Mulliken charges:
               1
     1  O   -1.199721
     2  C    0.675901
     3  C   -0.795533
     4  C    1.352709
     5  C    0.067619
     6  O   -1.155828
     7  H    0.429488
     8  H    0.165329
     9  H    0.064078
    10  H    0.249030
    11  H    0.205729
    12  H   -0.124288
    13  H   -0.035373
    14  H    0.100860
 Sum of Mulliken charges =  -0.00000

 Dipole moment (field-independent basis, Debye):
    X=             -0.9125    Y=              2.5382    Z=              0.9511  Tot=              2.8600

 Test job not archived.
 1\1\GINC-SE106\SP\RHF\Aug-CC-pVDZ\C4H8O2\OHZDE\09-Apr-2025\0\\#t hf au
 g-cc-pvdz iop(5/13=1,5/36=2,99/5=2) pseudo=read geom=check guess=(read
 ,tcheck) scf=(maxcycle=1)\\title\\0,1\O,0,2.02579853,0.96929917,0.4455
 2351\C,0,1.74404753,-0.26841887,-0.19151033\C,0,0.38644183,-0.8589579,
 0.23170952\C,0,-0.77652975,-0.0980907,-0.35678473\C,0,-1.8291123,0.476
 55698,0.49684567\O,0,-0.88977614,1.34281399,0.03153142\H,0,1.23145834,
 1.52784075,0.35150966\H,0,1.77253468,-0.18222194,-1.29620356\H,0,2.550
 28625,-0.95289646,0.10463519\H,0,0.30705486,-1.90258546,-0.11296165\H,

 Normal termination of Gaussian 16 at Wed Apr  9 03:16:08 2025.
