 Gaussian 16, Revision C.01,

 ----------------------------------------------------------------------
 #t hf aug-cc-pvdz symm=none int=(grid=ultrafine) guess=(read,tcheck) s
 table=(opt,rrhf)
 ----------------------------------------------------------------------
 -----
 title
 -----
 Symbolic Z-matrix:
 Charge =  0 Multiplicity = 1

 SCF Done:  E(RHF) =  -337.533117582     A.U. after   15 cycles
 Normal termination of Gaussian 16 at Wed Apr  9 04:05:00 2025.
 Gaussian 16:  ES64L-G16RevC.01  3-Jul-2019

 ----------------------------------------------------------------------
 #t hf aug-cc-pvdz iop(5/13=1,5/36=2,99/5=2) pseudo=read geom=check gue
 ss=(read,tcheck) scf=(maxcycle=1)
 ----------------------------------------------------------------------
 -----
 title
 -----
 Structure from the checkpoint file:  "Grambow2020_wb97xd3_009181_reverse_mol2.chk"
 Charge =  0 Multiplicity = 1

                         Standard orientation:
 ---------------------------------------------------------------------
 Center     Atomic      Atomic             Coordinates (Angstroms)
 Number     Number       Type             X           Y           Z
 ---------------------------------------------------------------------
      1          8           0       -2.155771   -0.124374   -0.361535
      2          6           0       -1.031596   -0.058688    0.045787
      3          6           0       -0.296641    1.224996    0.321554
      4          6           0        1.127139    1.280238   -0.148838
      5          7           0        1.629984    0.059025   -0.263598
      6          6           0        0.969858   -1.138676    0.081204
      7          7           0       -0.274079   -1.239071    0.270378
      8          1           0       -0.209321    1.359406    1.411420
      9          1           0       -0.868735    2.079370   -0.036386
     10          1           0        2.599015   -0.027794   -0.534545
     11          1           0        1.621312   -2.002892    0.206095
 ---------------------------------------------------------------------

 SCF Done:  E(RHF) =  -337.867766780     A.U. after    2 cycles

 The electronic state is 1-A.
 Alpha  occ. eigenvalues --  -20.54388 -15.59323 -15.52859 -11.37367 -11.37187
 Alpha  occ. eigenvalues --  -11.30195 -11.26633  -1.49138  -1.34978  -1.24633
 Alpha  occ. eigenvalues --   -1.08074  -0.95318  -0.90576  -0.82618  -0.74031
 Alpha  occ. eigenvalues --   -0.71949  -0.67767  -0.64288  -0.60559  -0.58860
 Alpha  occ. eigenvalues --   -0.55788  -0.51836  -0.46796  -0.45771  -0.37601
 Alpha virt. eigenvalues --    0.01975   0.03748   0.04428   0.04683   0.05488
 Alpha virt. eigenvalues --    0.07854   0.08625   0.09432   0.10243   0.11020
 Alpha virt. eigenvalues --    0.12473   0.12533   0.14006   0.14089   0.15522

 Mulliken charges:
               1
     1  O   -1.216235
     2  C    0.779582
     3  C   -0.302654
     4  C   -0.735055
     5  N    0.628936
     6  C   -0.624116
     7  N    0.781716
     8  H    0.404912
     9  H    0.157588
    10  H    0.158759
    11  H   -0.033435
 Sum of Mulliken charges =   0.00000

 Dipole moment (field-independent basis, Debye):
    X=              4.6154    Y=             -0.4397    Z=              0.8507  Tot=              4.7137

 Test job not archived.
 1\1\GINC-SE097\SP\RHF\Aug-CC-pVDZ\C4H4N2O1\OHZDE\09-Apr-2025\0\\#t hf
 aug-cc-pvdz iop(5/13=1,5/36=2,99/5=2) pseudo=read geom=check guess=(re
 ad,tcheck) scf=(maxcycle=1)\\title\\0,1\O,0,2.0592415,-0.9653092,1.160
 64273\C,0,1.17888899,-0.61793781,0.42694794\C,0,0.98155838,0.79084202,
 -0.06340898\C,0,-0.43086994,1.29723343,-0.05422889\N,0,-1.29009231,0.2
 8867567,-0.09818708\C,0,-0.95277151,-1.07520589,-0.22141407\N,0,0.2004
 8161,-1.54638708,-0.01833458\H,0,1.26238499,0.84119759,-1.12741078\H,0
 ,1.65407216,1.47446182,0.45210645\H,0,-2.27462757,0.51009978,-0.138585

 Normal termination of Gaussian 16 at Wed Apr  9 04:05:04 2025.
