 Gaussian 16, Revision C.01,

 ----------------------------------------------------------------------
 #t hf aug-cc-pvdz symm=none int=(grid=ultrafine) guess=(read,tcheck) s
 table=(opt,rrhf)
 ----------------------------------------------------------------------
 -----
 title
 -----
 Symbolic Z-matrix:
 Charge =  0 Multiplicity = 1

 SCF Done:  E(RHF) =  -308.832168837     A.U. after   14 cycles

 1\1\GINC-SE339\Stability\RHF\Aug-CC-pVDZ\C6H12O1\OHZDE\09-Apr-2025\0\\
 #t hf aug-cc-pvdz symm=none int=(grid=ultrafine) guess=(read,tcheck) s
 table=(opt,rrhf)\\title\\0,1\C,0,1.27540879,-0.11374188,1.41289657\C,0
 ,1.13373198,-0.75838191,0.21947198\C,0,1.61088755,-0.16357993,-1.07682
 963\C,0,-1.15037137,-0.82755071,-0.31099\C,0,-1.93625489,-0.2598522,0.
 61152323\C,0,-1.72041905,0.50403964,-0.62530865\O,0,-0.94409115,1.6799
 2073,-0.55463032\H,0,-0.17560422,0.4343006,1.86756126\H,0,1.32230436,-
 0.67597381,2.33781607\H,0,1.66901809,0.8969781,1.44326403\H,0,1.048679

 Normal termination of Gaussian 16 at Wed Apr  9 03:52:58 2025.
 Gaussian 16:  ES64L-G16RevC.01  3-Jul-2019

 ----------------------------------------------------------------------
 #t hf aug-cc-pvdz iop(5/13=1,5/36=2,99/5=2) pseudo=read geom=check gue
 ss=(read,tcheck) scf=(maxcycle=1)
 ----------------------------------------------------------------------
 -----
 title
 -----
 Structure from the checkpoint file:  "Grambow2020_wb97xd3_008291_forward_mol1.chk"
 Charge =  0 Multiplicity = 1

                         Standard orientation:
 ---------------------------------------------------------------------
 Center     Atomic      Atomic             Coordinates (Angstroms)
 Number     Number       Type             X           Y           Z
 ---------------------------------------------------------------------
      1          6           0        1.621299   -1.015978    0.793311
      2          6           0        1.502460   -0.315141   -0.370562
      3          6           0        1.680995    1.176908   -0.432027
      4          6           0       -0.746853   -0.370504   -1.034511
      5          6           0       -1.536205   -1.068565   -0.209551
      6          6           0       -1.642968    0.395354   -0.136000
      7          8           0       -1.159374    1.040799    1.021547
      8          1           0        0.142093   -1.459907    1.270158
      9          1           0        1.900271   -2.062733    0.777219
     10          1           0        1.769205   -0.492583    1.732240
     11          1           0        1.675321   -0.855519   -1.294524
     12          1           0        2.719860    1.417413   -0.676300
     13          1           0        1.455097    1.630526    0.533276
     14          1           0        1.052030    1.644667   -1.191586
     15          1           0       -0.437029   -0.366118   -2.064497
     16          1           0       -2.183721   -1.930795   -0.203274
     17          1           0       -0.663839   -1.487874    1.041925
     18          1           0       -2.529087    0.894927   -0.534171
     19          1           0       -0.897583    1.929158    0.773201
 ---------------------------------------------------------------------

 SCF Done:  E(RHF) =  -309.165891680     A.U. after    2 cycles

 The electronic state is 1-A.
 Alpha  occ. eigenvalues --  -20.53684 -11.29626 -11.24776 -11.24509 -11.24008
 Alpha  occ. eigenvalues --  -11.23237 -11.22918  -1.44318  -1.16114  -1.06565
 Alpha  occ. eigenvalues --   -0.93686  -0.81441  -0.79612  -0.76137  -0.70493
 Alpha  occ. eigenvalues --   -0.68877  -0.64452  -0.60882  -0.58919  -0.56404
 Alpha  occ. eigenvalues --   -0.56306  -0.53144  -0.52447  -0.50036  -0.45533
 Alpha  occ. eigenvalues --   -0.40660  -0.34108  -0.33628
 Alpha virt. eigenvalues --    0.03264   0.03420   0.03732   0.04271   0.05570
 Alpha virt. eigenvalues --    0.06152   0.06290   0.06533   0.07843   0.09475
 Alpha virt. eigenvalues --    0.10058   0.10904   0.11515   0.12531   0.13141

 Mulliken charges:
               1
     1  C   -0.616917
     2  C    0.482533
     3  C   -0.456681
     4  C    0.456939
     5  C   -0.332704
     6  C    1.121742
     7  O   -1.289454
     8  H    0.292378
     9  H   -0.022242
    10  H    0.025585
    11  H   -0.090598
    12  H    0.130110
    13  H    0.176424
    14  H    0.168364
    15  H   -0.300141
    16  H   -0.250867
    17  H    0.206995
    18  H   -0.082947
    19  H    0.381481
 Sum of Mulliken charges =  -0.00000

 Dipole moment (field-independent basis, Debye):
    X=              0.4283    Y=              0.3575    Z=             -1.8511  Tot=              1.9334

 Test job not archived.
 1\1\GINC-SE339\SP\RHF\Aug-CC-pVDZ\C6H12O1\OHZDE\09-Apr-2025\0\\#t hf a
 ug-cc-pvdz iop(5/13=1,5/36=2,99/5=2) pseudo=read geom=check guess=(rea
 d,tcheck) scf=(maxcycle=1)\\title\\0,1\C,0,1.27540879,-0.11374188,1.41
 289657\C,0,1.13373198,-0.75838191,0.21947198\C,0,1.61088755,-0.1635799
 3,-1.07682963\C,0,-1.15037137,-0.82755071,-0.31099\C,0,-1.93625489,-0.
 2598522,0.61152323\C,0,-1.72041905,0.50403964,-0.62530865\O,0,-0.94409
 115,1.67992073,-0.55463032\H,0,-0.17560422,0.4343006,1.86756126\H,0,1.
 32230436,-0.67597381,2.33781607\H,0,1.66901809,0.8969781,1.44326403\H,

 Normal termination of Gaussian 16 at Wed Apr  9 03:53:05 2025.
