 Gaussian 16, Revision C.01,

 ----------------------------------------------------------------------
 #t hf aug-cc-pvdz symm=none int=(grid=ultrafine) guess=(read,tcheck) s
 table=(opt,rrhf)
 ----------------------------------------------------------------------
 -----
 title
 -----
 Symbolic Z-matrix:
 Charge =  0 Multiplicity = 1

 SCF Done:  E(RHF) =  -295.757499011     A.U. after   15 cycles
 Normal termination of Gaussian 16 at Wed Apr  9 15:48:36 2025.
 Gaussian 16:  ES64L-G16RevC.01  3-Jul-2019

 ----------------------------------------------------------------------
 #t hf aug-cc-pvdz iop(5/13=1,5/36=2,99/5=2) pseudo=read geom=check gue
 ss=(read,tcheck) scf=(maxcycle=1)
 ----------------------------------------------------------------------
 -----
 title
 -----
 Structure from the checkpoint file:  "Grambow2020_b97d3_006779_forward_mol1.chk"
 Charge =  0 Multiplicity = 1

                         Standard orientation:
 ---------------------------------------------------------------------
 Center     Atomic      Atomic             Coordinates (Angstroms)
 Number     Number       Type             X           Y           Z
 ---------------------------------------------------------------------
      1          7           0       -2.017620   -0.018590    0.106723
      2          6           0       -0.646952   -0.034513   -0.003052
      3          7           0        0.096661   -1.130720   -0.025930
      4          7           0        1.376711   -0.615894    0.028169
      5          6           0        1.465489    0.730867   -0.071321
      6          7           0        0.107382    1.142793   -0.092867
      7          1           0       -2.452241    0.776072   -0.352093
      8          1           0       -2.454697   -0.907584   -0.119480
      9          1           0        2.150316   -1.272478    0.043574
     10          1           0        0.903462    1.582737    0.761571
 ---------------------------------------------------------------------

 SCF Done:  E(RHF) =  -296.054346794     A.U. after    2 cycles

 The electronic state is 1-A.
 Alpha  occ. eigenvalues --  -15.58165 -15.54779 -15.54271 -15.53746 -11.35427
 Alpha  occ. eigenvalues --  -11.29897  -1.39997  -1.24962  -1.21375  -1.11567
 Alpha  occ. eigenvalues --   -0.90116  -0.87184  -0.80806  -0.73105  -0.70248
 Alpha  occ. eigenvalues --   -0.67849  -0.58163  -0.55276  -0.53242  -0.51146
 Alpha  occ. eigenvalues --   -0.42011  -0.39035
 Alpha virt. eigenvalues --    0.02887   0.04719   0.05397   0.05765   0.08202
 Alpha virt. eigenvalues --    0.09282   0.10240   0.11365   0.11857   0.13141
 Alpha virt. eigenvalues --    0.13360   0.14875   0.16138   0.16763   0.17227

 Mulliken charges:
               1
     1  N    0.495136
     2  C   -1.541824
     3  N    0.129346
     4  N    0.326983
     5  C   -0.634306
     6  N    0.261194
     7  H    0.168267
     8  H    0.179782
     9  H    0.085822
    10  H    0.529600
 Sum of Mulliken charges =   0.00000

 Dipole moment (field-independent basis, Debye):
    X=             -1.4559    Y=             -0.4326    Z=              0.1209  Tot=              1.5236

 Test job not archived.
 1\1\GINC-SE041\SP\RHF\Aug-CC-pVDZ\C2H4N4\OHZDE\09-Apr-2025\0\\#t hf au
 g-cc-pvdz iop(5/13=1,5/36=2,99/5=2) pseudo=read geom=check guess=(read
 ,tcheck) scf=(maxcycle=1)\\title\\0,1\N,0,1.84450932,0.10322295,-0.334
 32765\C,0,0.50572543,-0.02706344,-0.04846636\N,0,-0.1803537,-1.1566125
 5,-0.1410373\N,0,-1.47529953,-0.72990813,0.07699334\C,0,-1.60513338,0.
 5650912,0.44802394\N,0,-0.27646715,1.0579854,0.36864308\H,0,2.30692004
 ,0.82589518,0.2086423\H,0,2.34636943,-0.7802455,-0.34594708\H,0,-2.214
 92982,-1.42355546,0.03691104\H,0,-1.20478064,1.59435935,-0.2700223\\Ve

 Normal termination of Gaussian 16 at Wed Apr  9 15:48:39 2025.
