 Gaussian 16, Revision C.01,

 ----------------------------------------------------------------------
 #t hf aug-cc-pvdz symm=none int=(grid=ultrafine) guess=(read,tcheck) s
 table=(opt,rrhf)
 ----------------------------------------------------------------------
 -----
 title
 -----
 Symbolic Z-matrix:
 Charge =  0 Multiplicity = 1

 SCF Done:  E(RHF) =  -309.079866064     A.U. after   13 cycles

 1\1\GINC-SE095\Stability\RHF\Aug-CC-pVDZ\C6H12O1\OHZDE\09-Apr-2025\0\\
 #t hf aug-cc-pvdz symm=none int=(grid=ultrafine) guess=(read,tcheck) s
 table=(opt,rrhf)\\title\\0,1\C,0,1.88190542,-0.90711639,0.76126189\C,0
 ,1.49261447,0.50978262,0.50388161\O,0,2.60645195,1.25721239,0.23791787
 \C,0,0.2659286,1.02804767,0.51093341\C,0,-1.02583509,0.31304358,0.7744
 8769\C,0,-1.88648469,0.12759426,-0.48102956\C,0,-1.27374578,-0.8318580
 3,-1.49188131\H,0,2.38429333,-1.31452232,-0.11857846\H,0,1.02346809,-1
 .53238166,0.99105513\H,0,2.58797914,-0.9534724,1.59267403\H,0,2.342829

 Normal termination of Gaussian 16 at Wed Apr  9 03:59:00 2025.
 Gaussian 16:  ES64L-G16RevC.01  3-Jul-2019

 ----------------------------------------------------------------------
 #t hf aug-cc-pvdz iop(5/13=1,5/36=2,99/5=2) pseudo=read geom=check gue
 ss=(read,tcheck) scf=(maxcycle=1)
 ----------------------------------------------------------------------
 -----
 title
 -----
 Structure from the checkpoint file:  "Grambow2020_wb97xd3_008668_reverse_mol2.chk"
 Charge =  0 Multiplicity = 1

                         Standard orientation:
 ---------------------------------------------------------------------
 Center     Atomic      Atomic             Coordinates (Angstroms)
 Number     Number       Type             X           Y           Z
 ---------------------------------------------------------------------
      1          6           0       -1.498957    1.245839    0.645986
      2          6           0       -1.328828   -0.091111    0.006443
      3          8           0       -2.436144   -0.395955   -0.735813
      4          6           0       -0.280980   -0.907608    0.099999
      5          6           0        0.987484   -0.680943    0.867440
      6          6           0        2.198416   -0.394023   -0.028526
      7          6           0        2.105137    0.941508   -0.753421
      8          1           0       -1.632734    2.006693   -0.125829
      9          1           0       -0.643465    1.519024    1.257688
     10          1           0       -2.396082    1.248838    1.268154
     11          1           0       -2.314708   -1.258251   -1.141032
     12          1           0       -0.328573   -1.843955   -0.456530
     13          1           0        1.209639    0.988668   -1.376754
     14          1           0        0.868028    0.139415    1.579864
     15          1           0        1.198864   -1.570938    1.468485
     16          1           0        2.301159   -1.202997   -0.759525
     17          1           0        3.104727   -0.417301    0.584077
     18          1           0        2.970577    1.106094   -1.397809
     19          1           0        2.058084    1.770378   -0.041803
 ---------------------------------------------------------------------

 SCF Done:  E(RHF) =  -309.414200116     A.U. after    2 cycles

 The electronic state is 1-A.
 Alpha  occ. eigenvalues --  -20.56761 -11.29643 -11.23187 -11.22936 -11.22479
 Alpha  occ. eigenvalues --  -11.21682 -11.21522  -1.48379  -1.09205  -1.03512
 Alpha  occ. eigenvalues --   -0.96969  -0.90604  -0.81007  -0.77067  -0.69351
 Alpha  occ. eigenvalues --   -0.64020  -0.61627  -0.60056  -0.59702  -0.56409
 Alpha  occ. eigenvalues --   -0.55110  -0.53371  -0.52893  -0.51224  -0.49115
 Alpha  occ. eigenvalues --   -0.47915  -0.47204  -0.32992
 Alpha virt. eigenvalues --    0.03335   0.03648   0.03841   0.03976   0.05755
 Alpha virt. eigenvalues --    0.06115   0.06395   0.06648   0.07348   0.09217
 Alpha virt. eigenvalues --    0.09472   0.09872   0.12477   0.13994   0.14151

 Mulliken charges:
               1
     1  C   -0.563352
     2  C    1.251652
     3  O   -1.569644
     4  C    0.516355
     5  C   -0.543085
     6  C   -0.428003
     7  C   -0.304580
     8  H    0.261682
     9  H    0.111915
    10  H    0.219903
    11  H    0.356947
    12  H   -0.343777
    13  H    0.208362
    14  H    0.150372
    15  H    0.178200
    16  H    0.144712
    17  H    0.112262
    18  H    0.073617
    19  H    0.166464
 Sum of Mulliken charges =  -0.00000

 Dipole moment (field-independent basis, Debye):
    X=              0.7157    Y=             -0.5428    Z=              0.0599  Tot=              0.9003

 Test job not archived.
 1\1\GINC-SE095\SP\RHF\Aug-CC-pVDZ\C6H12O1\OHZDE\09-Apr-2025\0\\#t hf a
 ug-cc-pvdz iop(5/13=1,5/36=2,99/5=2) pseudo=read geom=check guess=(rea
 d,tcheck) scf=(maxcycle=1)\\title\\0,1\C,0,1.88190542,-0.90711639,0.76
 126189\C,0,1.49261447,0.50978262,0.50388161\O,0,2.60645195,1.25721239,
 0.23791787\C,0,0.2659286,1.02804767,0.51093341\C,0,-1.02583509,0.31304
 358,0.77448769\C,0,-1.88648469,0.12759426,-0.48102956\C,0,-1.27374578,
 -0.83185803,-1.49188131\H,0,2.38429333,-1.31452232,-0.11857846\H,0,1.0
 2346809,-1.53238166,0.99105513\H,0,2.58797914,-0.9534724,1.59267403\H,

 Normal termination of Gaussian 16 at Wed Apr  9 03:59:07 2025.
