 Gaussian 16, Revision C.01,

 ----------------------------------------------------------------------
 #t hf aug-cc-pvdz symm=none int=(grid=ultrafine) guess=(read,tcheck) s
 table=(opt,rrhf)
 ----------------------------------------------------------------------
 -----
 title
 -----
 Symbolic Z-matrix:
 Charge =  0 Multiplicity = 1

 SCF Done:  E(RHF) =  -343.584699871     A.U. after   16 cycles
 Normal termination of Gaussian 16 at Wed Apr  9 18:51:50 2025.
 Gaussian 16:  ES64L-G16RevC.01  3-Jul-2019

 ----------------------------------------------------------------------
 #t hf aug-cc-pvdz iop(5/13=1,5/36=2,99/5=2) pseudo=read geom=check gue
 ss=(read,tcheck) scf=(maxcycle=1)
 ----------------------------------------------------------------------
 -----
 title
 -----
 Structure from the checkpoint file:  "Grambow2020_wb97xd3_008129_forward_mol1.chk"
 Charge =  0 Multiplicity = 1

                         Standard orientation:
 ---------------------------------------------------------------------
 Center     Atomic      Atomic             Coordinates (Angstroms)
 Number     Number       Type             X           Y           Z
 ---------------------------------------------------------------------
      1          6           0       -0.834424    1.227449   -0.394730
      2          8           0       -1.600239    0.231664   -0.119800
      3          6           0       -0.448240   -1.134819    0.082434
      4          6           0        0.244852   -0.440328    1.278043
      5          6           0        0.763691    0.775292    0.581925
      6          6           0        1.629439    0.467958   -0.458195
      7          8           0        0.242296   -1.260298   -0.952193
      8          1           0       -1.093283    2.186148    0.067459
      9          1           0       -0.453605    1.326454   -1.415972
     10          1           0       -1.229816   -1.867057    0.299429
     11          1           0        1.043909   -1.093230    1.635634
     12          1           0       -0.445192   -0.227873    2.090722
     13          1           0        0.820731    1.744649    1.062214
     14          1           0        1.873290    1.221627   -1.202697
     15          1           0        2.215599   -0.434956   -0.497702
 ---------------------------------------------------------------------

 SCF Done:  E(RHF) =  -343.937671638     A.U. after    2 cycles

 The electronic state is 1-A.
 Alpha  occ. eigenvalues --  -20.50911 -20.48536 -11.33886 -11.33245 -11.33215
 Alpha  occ. eigenvalues --  -11.25772 -11.23855  -1.45158  -1.40421  -1.11721
 Alpha  occ. eigenvalues --   -0.99138  -0.89626  -0.80857  -0.79371  -0.71212
 Alpha  occ. eigenvalues --   -0.67271  -0.66060  -0.63383  -0.61087  -0.58870
 Alpha  occ. eigenvalues --   -0.56109  -0.53528  -0.51365  -0.45167  -0.39343
 Alpha  occ. eigenvalues --   -0.38279  -0.34998
 Alpha virt. eigenvalues --    0.02389   0.02676   0.03611   0.04703   0.05063
 Alpha virt. eigenvalues --    0.05992   0.06380   0.06704   0.07815   0.11319
 Alpha virt. eigenvalues --    0.12178   0.12359   0.13142   0.14043   0.14209

 Mulliken charges:
               1
     1  C    0.759834
     2  O   -1.221954
     3  C    1.459988
     4  C   -0.188660
     5  C   -0.027202
     6  C    0.272227
     7  O   -1.358623
     8  H    0.043585
     9  H    0.077476
    10  H    0.050158
    11  H    0.141553
    12  H    0.036021
    13  H    0.017810
    14  H   -0.077039
    15  H    0.014826
 Sum of Mulliken charges =  -0.00000

 Dipole moment (field-independent basis, Debye):
    X=              3.2384    Y=              3.0134    Z=              1.7197  Tot=              4.7461

 Test job not archived.
 1\1\GINC-SE226\SP\RHF\Aug-CC-pVDZ\C5H8O2\OHZDE\09-Apr-2025\0\\#t hf au
 g-cc-pvdz iop(5/13=1,5/36=2,99/5=2) pseudo=read geom=check guess=(read
 ,tcheck) scf=(maxcycle=1)\\title\\0,1\C,0,-1.21259061,0.89476512,0.369
 12775\O,0,-1.11346326,1.09322646,-0.89753504\C,0,0.51423779,0.43871092
 ,-1.29436676\C,0,0.10811859,-0.9839644,-0.8435499\C,0,-0.16961658,-0.7
 089756,0.59823731\C,0,0.93673998,-0.2093477,1.27067478\O,0,1.37940583,
 1.00799165,-0.59405003\H,0,-2.18828103,0.55958584,0.73711266\H,0,-0.70
 815564,1.590051,1.04727563\H,0,0.44001605,0.67875473,-2.35784732\H,0,0

 Normal termination of Gaussian 16 at Wed Apr  9 18:51:55 2025.
