 Gaussian 16, Revision C.01,

 ----------------------------------------------------------------------
 #t hf aug-cc-pvdz symm=none int=(grid=ultrafine) guess=(read,tcheck) s
 table=(opt,rrhf)
 ----------------------------------------------------------------------
 -----
 title
 -----
 Symbolic Z-matrix:
 Charge =  0 Multiplicity = 1

 SCF Done:  E(RHF) =  -302.297950256     A.U. after   15 cycles
 Normal termination of Gaussian 16 at Wed Apr  9 15:43:34 2025.
 Gaussian 16:  ES64L-G16RevC.01  3-Jul-2019

 ----------------------------------------------------------------------
 #t hf aug-cc-pvdz iop(5/13=1,5/36=2,99/5=2) pseudo=read geom=check gue
 ss=(read,tcheck) scf=(maxcycle=1)
 ----------------------------------------------------------------------
 -----
 title
 -----
 Structure from the checkpoint file:  "Grambow2020_b97d3_006709_reverse_mol2.chk"
 Charge =  0 Multiplicity = 1

                         Standard orientation:
 ---------------------------------------------------------------------
 Center     Atomic      Atomic             Coordinates (Angstroms)
 Number     Number       Type             X           Y           Z
 ---------------------------------------------------------------------
      1          8           0        0.172763    1.846721   -0.001372
      2          6           0       -2.225857   -0.706021    0.000514
      3          6           0       -1.168108   -0.099416   -0.000030
      4          6           0        0.083930    0.622408    0.000182
      5          6           0        1.372550   -0.225035    0.002360
      6          8           0        1.389304   -1.438006   -0.002078
      7          1           0       -3.158330   -1.234597    0.001743
      8          1           0        2.286693    0.413266    0.007702
 ---------------------------------------------------------------------

 SCF Done:  E(RHF) =  -302.589311440     A.U. after    2 cycles

 The electronic state is 1-A.
 Alpha  occ. eigenvalues --  -20.59813 -20.59790 -11.40395 -11.38432 -11.30055
 Alpha  occ. eigenvalues --  -11.28477  -1.51921  -1.50699  -1.08563  -0.98854
 Alpha  occ. eigenvalues --   -0.88034  -0.76119  -0.72607  -0.71406  -0.66980
 Alpha  occ. eigenvalues --   -0.60824  -0.53773  -0.52687  -0.44686  -0.44448
 Alpha  occ. eigenvalues --   -0.43895
 Alpha virt. eigenvalues --    0.01518   0.03037   0.04147   0.08060   0.08180
 Alpha virt. eigenvalues --    0.08744   0.09511   0.11201   0.11237   0.12437
 Alpha virt. eigenvalues --    0.12898   0.13995   0.14277   0.15092   0.16770

 Mulliken charges:
               1
     1  O   -1.313403
     2  C    0.111877
     3  C    0.478212
     4  C    1.007102
     5  C    0.866386
     6  O   -1.066751
     7  H   -0.269603
     8  H    0.186181
 Sum of Mulliken charges =  -0.00000

 Dipole moment (field-independent basis, Debye):
    X=             -1.0486    Y=             -0.6296    Z=              0.0136  Tot=              1.2231

 Test job not archived.
 1\1\GINC-SE100\SP\RHF\Aug-CC-pVDZ\C4H2O2\OHZDE\09-Apr-2025\0\\#t hf au
 g-cc-pvdz iop(5/13=1,5/36=2,99/5=2) pseudo=read geom=check guess=(read
 ,tcheck) scf=(maxcycle=1)\\title\\0,1\O,0,-0.38951787,1.9426823,-0.139
 29836\C,0,-1.73457348,-1.28605782,-0.32886314\C,0,-0.9630608,-0.348774
 71,-0.21453624\C,0,-0.05127184,0.76423388,-0.07858596\C,0,1.43344121,0
 .41920971,0.15655259\O,0,1.86652717,-0.71183126,0.22569691\H,0,-2.4169
 5206,-2.10653196,-0.42927174\H,0,2.06011668,1.33616986,0.25441095\\Ver
 sion=ES64L-G16RevC.01\State=1-A\HF=-302.5893114\RMSD=1.962e-02\Dipole=

 Normal termination of Gaussian 16 at Wed Apr  9 15:43:37 2025.
