 Gaussian 16, Revision C.01,

 ----------------------------------------------------------------------
 #t hf aug-cc-pvdz symm=none int=(grid=ultrafine) guess=(read,tcheck) s
 table=(opt,rrhf)
 ----------------------------------------------------------------------
 -----
 title
 -----
 Symbolic Z-matrix:
 Charge =  0 Multiplicity = 1

 SCF Done:  E(RHF) =  -266.716005266     A.U. after   15 cycles
 Normal termination of Gaussian 16 at Wed Apr  9 15:42:35 2025.
 Gaussian 16:  ES64L-G16RevC.01  3-Jul-2019

 ----------------------------------------------------------------------
 #t hf aug-cc-pvdz iop(5/13=1,5/36=2,99/5=2) pseudo=read geom=check gue
 ss=(read,tcheck) scf=(maxcycle=1)
 ----------------------------------------------------------------------
 -----
 title
 -----
 Structure from the checkpoint file:  "Grambow2020_b97d3_006696_reverse_mol2.chk"
 Charge =  0 Multiplicity = 1

                         Standard orientation:
 ---------------------------------------------------------------------
 Center     Atomic      Atomic             Coordinates (Angstroms)
 Number     Number       Type             X           Y           Z
 ---------------------------------------------------------------------
      1          6           0        1.036754   -0.249011   -0.609223
      2          6           0        0.394605    1.079875   -0.304619
      3          8           0       -0.835641    0.814767    0.425326
      4          6           0       -1.152564   -0.509104    0.231478
      5          8           0        0.159028   -1.148852   -0.289938
      6          1           0        3.001362   -0.370181    2.036503
      7          1           0        2.800653   -0.488071    1.325953
      8          1           0        1.035985    1.722693    0.312983
      9          1           0        0.197813    1.596230   -1.263676
     10          1           0       -1.410945   -1.016237    1.167961
     11          1           0       -1.884739   -0.702316   -0.568639
 ---------------------------------------------------------------------

 SCF Done:  E(RHF) =  -266.986264052     A.U. after    2 cycles

 The electronic state is 1-A.
 Alpha  occ. eigenvalues --  -20.62167 -20.58352 -11.37499 -11.31206 -11.31042
 Alpha  occ. eigenvalues --   -1.56149  -1.47140  -1.04054  -0.91156  -0.82091
 Alpha  occ. eigenvalues --   -0.72814  -0.71940  -0.64392  -0.61089  -0.58890
 Alpha  occ. eigenvalues --   -0.57855  -0.55559  -0.53728  -0.45035  -0.37827
 Alpha virt. eigenvalues --    0.03429   0.04293   0.04596   0.06198   0.06807
 Alpha virt. eigenvalues --    0.07824   0.09519   0.10300   0.10594   0.12124
 Alpha virt. eigenvalues --    0.13461   0.14667   0.15391   0.16042   0.16567

 Mulliken charges:
               1
     1  C    0.323045
     2  C    0.358751
     3  O   -1.210807
     4  C    1.009872
     5  O   -1.046862
     6  H   -0.012162
     7  H    0.020442
     8  H    0.119702
     9  H    0.202266
    10  H    0.096933
    11  H    0.138822
 Sum of Mulliken charges =  -0.00000

 Dipole moment (field-independent basis, Debye):
    X=             -2.2030    Y=              0.8644    Z=              0.3882  Tot=              2.3982

 Test job not archived.
 1\1\GINC-SE173\SP\RHF\Aug-CC-pVDZ\C3H6O2\OHZDE\09-Apr-2025\0\\#t hf au
 g-cc-pvdz iop(5/13=1,5/36=2,99/5=2) pseudo=read geom=check guess=(read
 ,tcheck) scf=(maxcycle=1)\\title\\0,1\C,0,0.36832197,0.37489,1.0027056
 1\C,0,0.8402885,-0.73781841,0.10259162\O,0,-0.26818265,-1.09621448,-0.
 76887294\C,0,-1.41488722,-0.58472671,-0.20842696\O,0,-0.91120382,0.467
 14199,0.81201631\H,0,1.42858331,2.88320822,-0.85697564\H,0,1.26480745,
 2.52095301,-0.22372087\H,0,1.69282137,-0.43807305,-0.52139174\H,0,1.15
 158704,-1.58826619,0.73896527\H,0,-2.0351904,-0.05541166,-0.94054333\H

 Normal termination of Gaussian 16 at Wed Apr  9 15:42:38 2025.
