 Gaussian 16, Revision C.01,

 ----------------------------------------------------------------------
 #t hf aug-cc-pvdz symm=none int=(grid=ultrafine) guess=(read,tcheck) s
 table=(opt,rrhf)
 ----------------------------------------------------------------------
 -----
 title
 -----
 Symbolic Z-matrix:
 Charge =  0 Multiplicity = 1

 SCF Done:  E(RHF) =  -343.637931782     A.U. after   16 cycles
 Normal termination of Gaussian 16 at Wed Apr  9 03:45:36 2025.
 Gaussian 16:  ES64L-G16RevC.01  3-Jul-2019

 ----------------------------------------------------------------------
 #t hf aug-cc-pvdz iop(5/13=1,5/36=2,99/5=2) pseudo=read geom=check gue
 ss=(read,tcheck) scf=(maxcycle=1)
 ----------------------------------------------------------------------
 -----
 title
 -----
 Structure from the checkpoint file:  "Grambow2020_wb97xd3_007805_reverse_mol2.chk"
 Charge =  0 Multiplicity = 1

                         Standard orientation:
 ---------------------------------------------------------------------
 Center     Atomic      Atomic             Coordinates (Angstroms)
 Number     Number       Type             X           Y           Z
 ---------------------------------------------------------------------
      1          6           0       -2.108176   -1.002078    0.307148
      2          6           0       -1.039859    0.066392    0.268880
      3          6           0       -1.469898    1.336491   -0.434880
      4          6           0        1.839747    0.556154    1.018213
      5          6           0        1.267964   -0.135154   -0.049306
      6          8           0        2.351264   -0.485377   -0.526942
      7          8           0        0.089921   -0.510211   -0.447370
      8          1           0       -1.745372   -1.892745    0.819364
      9          1           0       -2.986290   -0.631138    0.837223
     10          1           0       -2.405939   -1.278509   -0.705644
     11          1           0       -0.663833    2.071506   -0.449689
     12          1           0       -1.763670    1.121755   -1.463618
     13          1           0       -2.321730    1.778629    0.083952
     14          1           0        2.116094    1.574921    0.727841
     15          1           0       -0.697401    0.289459    1.284735
 ---------------------------------------------------------------------

 SCF Done:  E(RHF) =  -343.987491054     A.U. after    2 cycles

 The electronic state is 1-A.
 Alpha  occ. eigenvalues --  -20.62133 -20.55382 -11.40606 -11.33260 -11.30015
 Alpha  occ. eigenvalues --  -11.25645 -11.25189  -1.57636  -1.48168  -1.10245
 Alpha  occ. eigenvalues --   -1.00152  -0.97465  -0.88084  -0.79899  -0.70480
 Alpha  occ. eigenvalues --   -0.69165  -0.67836  -0.64018  -0.60147  -0.59048
 Alpha  occ. eigenvalues --   -0.57569  -0.55275  -0.53978  -0.52095  -0.48276
 Alpha  occ. eigenvalues --   -0.45304  -0.38322
 Alpha virt. eigenvalues --    0.02711   0.03468   0.03643   0.04512   0.06089
 Alpha virt. eigenvalues --    0.06430   0.06836   0.07256   0.08530   0.09922
 Alpha virt. eigenvalues --    0.11633   0.12479   0.13003   0.13899   0.14470

 Mulliken charges:
               1
     1  C   -0.222292
     2  C    0.042943
     3  C   -0.293354
     4  C   -0.380374
     5  C    1.878024
     6  O   -1.209651
     7  O   -1.301387
     8  H    0.159865
     9  H    0.202164
    10  H    0.214240
    11  H    0.113512
    12  H    0.243636
    13  H    0.192070
    14  H    0.089392
    15  H    0.271213
 Sum of Mulliken charges =  -0.00000

 Dipole moment (field-independent basis, Debye):
    X=             -4.7613    Y=              2.1937    Z=              0.2623  Tot=              5.2489

 Test job not archived.
 1\1\GINC-SE292\SP\RHF\Aug-CC-pVDZ\C5H8O2\OHZDE\09-Apr-2025\0\\#t hf au
 g-cc-pvdz iop(5/13=1,5/36=2,99/5=2) pseudo=read geom=check guess=(read
 ,tcheck) scf=(maxcycle=1)\\title\\0,1\C,0,-1.04674008,1.58093685,-0.33
 919563\C,0,-0.36240303,0.2407454,-0.19791143\C,0,-1.1703387,-0.7801427
 8,0.57564623\C,0,2.22952872,-1.16651136,-0.82641585\C,0,1.89171319,-0.
 25697287,0.17511312\O,0,3.02642564,-0.22434024,0.66059801\O,0,0.884767
 81,0.49106606,0.51187252\H,0,-0.42180146,2.27659507,-0.89847376\H,0,-1
 .99237763,1.46154961,-0.86945644\H,0,-1.25215016,2.00847778,0.64357654

 Normal termination of Gaussian 16 at Wed Apr  9 03:45:41 2025.
