 Gaussian 16, Revision C.01,

 ----------------------------------------------------------------------
 #t hf aug-cc-pvdz symm=none int=(grid=ultrafine) guess=(read,tcheck) s
 table=(opt,rrhf)
 ----------------------------------------------------------------------
 -----
 title
 -----
 Symbolic Z-matrix:
 Charge =  0 Multiplicity = 1

 SCF Done:  E(RHF) =  -342.608171252     A.U. after   14 cycles
 Normal termination of Gaussian 16 at Wed Apr  9 19:16:54 2025.
 Gaussian 16:  ES64L-G16RevC.01  3-Jul-2019

 ----------------------------------------------------------------------
 #t hf aug-cc-pvdz iop(5/13=1,5/36=2,99/5=2) pseudo=read geom=check gue
 ss=(read,tcheck) scf=(maxcycle=1)
 ----------------------------------------------------------------------
 -----
 title
 -----
 Structure from the checkpoint file:  "Grambow2020_wb97xd3_009060_forward_mol2.chk"
 Charge =  0 Multiplicity = 1

                         Standard orientation:
 ---------------------------------------------------------------------
 Center     Atomic      Atomic             Coordinates (Angstroms)
 Number     Number       Type             X           Y           Z
 ---------------------------------------------------------------------
      1          8           0       -2.354155   -0.557950    0.046393
      2          6           0       -1.209797   -0.206005   -0.014295
      3          6           0       -0.744874    1.239283   -0.153594
      4          6           0        0.749005    1.237698    0.163142
      5          6           0        1.210005   -0.207488    0.014383
      6          8           0        2.350914   -0.560247   -0.090679
      7          6           0       -0.000615   -1.121666    0.026621
      8          1           0       -1.347806    1.887145    0.481289
      9          1           0       -0.938166    1.536604   -1.188497
     10          1           0        0.938778    1.524690    1.201855
     11          1           0        1.354121    1.890840   -0.463807
     12          1           0       -0.010180   -1.737597    0.928910
     13          1           0        0.006832   -1.807034   -0.823003
 ---------------------------------------------------------------------

 SCF Done:  E(RHF) =  -342.954513236     A.U. after    2 cycles

 The electronic state is 1-A.
 Alpha  occ. eigenvalues --  -20.55337 -20.55322 -11.35720 -11.35708 -11.26665
 Alpha  occ. eigenvalues --  -11.26644 -11.26634  -1.49441  -1.49123  -1.15024
 Alpha  occ. eigenvalues --   -1.02435  -0.94766  -0.78323  -0.77646  -0.69296
 Alpha  occ. eigenvalues --   -0.69227  -0.64653  -0.62689  -0.62287  -0.60120
 Alpha  occ. eigenvalues --   -0.58788  -0.56121  -0.50184  -0.50050  -0.44101
 Alpha  occ. eigenvalues --   -0.40471
 Alpha virt. eigenvalues --    0.03060   0.03536   0.04127   0.04802   0.05917
 Alpha virt. eigenvalues --    0.06518   0.08468   0.09062   0.09171   0.11674
 Alpha virt. eigenvalues --    0.13881   0.14217   0.14395   0.14717   0.14882

 Mulliken charges:
               1
     1  O   -1.385521
     2  C    1.260853
     3  C   -0.328061
     4  C   -0.308361
     5  C    1.283013
     6  O   -1.384100
     7  C   -0.615836
     8  H    0.189247
     9  H    0.251923
    10  H    0.253148
    11  H    0.181535
    12  H    0.311090
    13  H    0.291070
 Sum of Mulliken charges =  -0.00000

 Dipole moment (field-independent basis, Debye):
    X=              0.0065    Y=              1.9258    Z=              0.1252  Tot=              1.9299

 Test job not archived.
 1\1\GINC-SE220\SP\RHF\Aug-CC-pVDZ\C5H6O2\OHZDE\09-Apr-2025\0\\#t hf au
 g-cc-pvdz iop(5/13=1,5/36=2,99/5=2) pseudo=read geom=check guess=(read
 ,tcheck) scf=(maxcycle=1)\\title\\0,1\O,0,0.58746718,-2.34549294,-0.57
 870949\C,0,0.33192618,-1.19800231,-0.34404746\C,0,-1.07325181,-0.63128
 049,-0.17458752\C,0,-0.90138582,0.75201723,0.4490689\C,0,0.54822947,1.
 1505332,0.19804263\O,0,0.98317618,2.26395156,0.28899107\C,0,1.34747318
 ,-0.08304878,-0.17739912\H,0,-1.68611552,-1.32203462,0.40298158\H,0,-1
 .5142981,-0.57196651,-1.1739606\H,0,-1.03757708,0.72208749,1.53436077\

 Normal termination of Gaussian 16 at Wed Apr  9 19:16:58 2025.
