 Gaussian 16, Revision C.01,

 ----------------------------------------------------------------------
 #t hf aug-cc-pvdz symm=none int=(grid=ultrafine) guess=(read,tcheck) s
 table=(opt,rrhf)
 ----------------------------------------------------------------------
 -----
 title
 -----
 Symbolic Z-matrix:
 Charge =  0 Multiplicity = 1

 SCF Done:  E(RHF) =  -344.909427521     A.U. after   13 cycles

 1\1\GINC-SE108\Stability\RHF\Aug-CC-pVDZ\C5H10O2\OHZDE\09-Apr-2025\0\\
 #t hf aug-cc-pvdz symm=none int=(grid=ultrafine) guess=(read,tcheck) s
 table=(opt,rrhf)\\title\\0,1\C,0,-2.18157337,-0.56902962,0.15201807\C,
 0,-0.95438896,0.06511655,-0.48479148\O,0,-1.1438075,1.44732943,-0.7131
 8185\C,0,0.30802686,-0.16115015,0.35307859\C,0,1.54915095,0.30093241,-
 0.34851145\C,0,2.62920161,-0.45076459,-0.49583785\O,0,0.1095715,0.5748
 4013,1.55904516\H,0,-3.05928626,-0.3669624,-0.46195381\H,0,-2.06102231
 ,-1.65109487,0.24137926\H,0,-2.35074666,-0.16054879,1.14997649\H,0,-0.

 Normal termination of Gaussian 16 at Wed Apr  9 03:34:35 2025.
 Gaussian 16:  ES64L-G16RevC.01  3-Jul-2019

 ----------------------------------------------------------------------
 #t hf aug-cc-pvdz iop(5/13=1,5/36=2,99/5=2) pseudo=read geom=check gue
 ss=(read,tcheck) scf=(maxcycle=1)
 ----------------------------------------------------------------------
 -----
 title
 -----
 Structure from the checkpoint file:  "Grambow2020_wb97xd3_007049_reverse_mol2.chk"
 Charge =  0 Multiplicity = 1

                         Standard orientation:
 ---------------------------------------------------------------------
 Center     Atomic      Atomic             Coordinates (Angstroms)
 Number     Number       Type             X           Y           Z
 ---------------------------------------------------------------------
      1          6           0       -2.108408    0.344918    0.849931
      2          6           0       -0.907477   -0.461285    0.379346
      3          8           0       -1.196916   -1.182368   -0.801678
      4          6           0        0.327574    0.420098    0.167847
      5          6           0        1.559397   -0.383223   -0.120985
      6          6           0        2.702509   -0.229100    0.529249
      7          8           0        0.012788    1.270047   -0.933933
      8          1           0       -2.969211   -0.313497    0.966899
      9          1           0       -1.905156    0.825779    1.809537
     10          1           0       -2.357605    1.121573    0.124601
     11          1           0       -0.654745   -1.213417    1.131774
     12          1           0       -1.241949   -0.536600   -1.514202
     13          1           0        0.490721    1.022298    1.071664
     14          1           0        1.467102   -1.112401   -0.920869
     15          1           0        0.821900    1.683260   -1.239866
     16          1           0        3.577666   -0.820994    0.290219
     17          1           0        2.802731    0.494110    1.332796
 ---------------------------------------------------------------------

 SCF Done:  E(RHF) =  -345.271029746     A.U. after    2 cycles

 The electronic state is 1-A.
 Alpha  occ. eigenvalues --  -20.55911 -20.53857 -11.29482 -11.28479 -11.24623
 Alpha  occ. eigenvalues --  -11.24480 -11.22053  -1.47024  -1.43938  -1.08468
 Alpha  occ. eigenvalues --   -1.02744  -0.93206  -0.82064  -0.78948  -0.73018
 Alpha  occ. eigenvalues --   -0.66518  -0.65188  -0.63473  -0.61050  -0.59697
 Alpha  occ. eigenvalues --   -0.55818  -0.55035  -0.52500  -0.51156  -0.48214
 Alpha  occ. eigenvalues --   -0.45364  -0.43522  -0.38691
 Alpha virt. eigenvalues --    0.03323   0.03785   0.04027   0.04597   0.05816
 Alpha virt. eigenvalues --    0.06179   0.06602   0.07568   0.08389   0.09012
 Alpha virt. eigenvalues --    0.10328   0.12263   0.13575   0.14137   0.14816

 Mulliken charges:
               1
     1  C   -0.402618
     2  C    0.793602
     3  O   -1.439312
     4  C    0.825029
     5  C    0.773804
     6  C   -0.119504
     7  O   -1.404121
     8  H    0.165410
     9  H    0.196290
    10  H    0.173310
    11  H    0.081888
    12  H    0.319513
    13  H    0.017865
    14  H   -0.154177
    15  H    0.338556
    16  H   -0.104533
    17  H   -0.061003
 Sum of Mulliken charges =  -0.00000

 Dipole moment (field-independent basis, Debye):
    X=              1.6806    Y=              1.4176    Z=              0.6996  Tot=              2.3072

 Test job not archived.
 1\1\GINC-SE108\SP\RHF\Aug-CC-pVDZ\C5H10O2\OHZDE\09-Apr-2025\0\\#t hf a
 ug-cc-pvdz iop(5/13=1,5/36=2,99/5=2) pseudo=read geom=check guess=(rea
 d,tcheck) scf=(maxcycle=1)\\title\\0,1\C,0,-2.18157337,-0.56902962,0.1
 5201807\C,0,-0.95438896,0.06511655,-0.48479148\O,0,-1.1438075,1.447329
 43,-0.71318185\C,0,0.30802686,-0.16115015,0.35307859\C,0,1.54915095,0.
 30093241,-0.34851145\C,0,2.62920161,-0.45076459,-0.49583785\O,0,0.1095
 715,0.57484013,1.55904516\H,0,-3.05928626,-0.3669624,-0.46195381\H,0,-
 2.06102231,-1.65109487,0.24137926\H,0,-2.35074666,-0.16054879,1.149976

 Normal termination of Gaussian 16 at Wed Apr  9 03:34:41 2025.
