 Gaussian 16, Revision C.01,

 ----------------------------------------------------------------------
 #t hf aug-cc-pvdz symm=none int=(grid=ultrafine) guess=(read,tcheck) s
 table=(opt,rrhf)
 ----------------------------------------------------------------------
 -----
 title
 -----
 Symbolic Z-matrix:
 Charge =  0 Multiplicity = 1

 SCF Done:  E(RHF) =  -194.968727575     A.U. after   14 cycles
 Normal termination of Gaussian 16 at Wed Apr  9 03:07:51 2025.
 Gaussian 16:  ES64L-G16RevC.01  3-Jul-2019

 ----------------------------------------------------------------------
 #t hf aug-cc-pvdz iop(5/13=1,5/36=2,99/5=2) pseudo=read geom=check gue
 ss=(read,tcheck) scf=(maxcycle=1)
 ----------------------------------------------------------------------
 -----
 title
 -----
 Structure from the checkpoint file:  "Grambow2020_b97d3_006580_reverse_mol1.chk"
 Charge =  0 Multiplicity = 1

                         Standard orientation:
 ---------------------------------------------------------------------
 Center     Atomic      Atomic             Coordinates (Angstroms)
 Number     Number       Type             X           Y           Z
 ---------------------------------------------------------------------
      1          6           0        2.018596    0.449118    0.093416
      2          6           0        0.280743   -0.881636   -0.692054
      3          6           0       -0.496330   -1.227503    0.549411
      4          6           0       -0.978965   -0.129090   -0.370039
      5          6           0       -1.107020    1.300865    0.126868
      6          1           0        1.813766    0.299620    1.152955
      7          1           0        1.764275    1.447858   -0.265950
      8          1           0        3.032634    0.139646   -0.184267
      9          1           0        1.411262   -0.450874   -0.732608
     10          1           0       -0.973025   -2.212203    0.562626
     11          1           0       -0.143894   -0.907012    1.531982
     12          1           0       -1.769993   -0.396831   -1.082639
     13          1           0       -2.116933    1.477028    0.526109
     14          1           0       -0.388615    1.508823    0.930100
     15          1           0       -0.931616    2.023414   -0.683918
 ---------------------------------------------------------------------

 SCF Done:  E(RHF) =  -195.184794623     A.U. after    2 cycles

 The electronic state is 1-A.
 Alpha  occ. eigenvalues --  -11.26597 -11.26162 -11.24305 -11.23715 -11.23514
 Alpha  occ. eigenvalues --   -1.14715  -0.96953  -0.95671  -0.80430  -0.74944
 Alpha  occ. eigenvalues --   -0.64963  -0.62995  -0.59108  -0.58594  -0.56685
 Alpha  occ. eigenvalues --   -0.54661  -0.50526  -0.44382  -0.42332  -0.31184
 Alpha virt. eigenvalues --    0.03321   0.03813   0.04100   0.04359   0.06091
 Alpha virt. eigenvalues --    0.06268   0.06563   0.07453   0.08042   0.09408
 Alpha virt. eigenvalues --    0.09848   0.11914   0.13034   0.15073   0.15708

 Mulliken charges:
               1
     1  C   -0.697146
     2  C   -0.206116
     3  C    0.170921
     4  C    0.470009
     5  C   -0.672154
     6  H    0.169099
     7  H    0.191425
     8  H   -0.038765
     9  H    0.403548
    10  H   -0.114707
    11  H   -0.073656
    12  H   -0.100731
    13  H    0.129409
    14  H    0.140469
    15  H    0.228395
 Sum of Mulliken charges =   0.00000

 Dipole moment (field-independent basis, Debye):
    X=              0.1280    Y=              1.3477    Z=              1.3420  Tot=              1.9063

 Test job not archived.
 1\1\GINC-SE419\SP\RHF\Aug-CC-pVDZ\C5H10\OHZDE\09-Apr-2025\0\\#t hf aug
 -cc-pvdz iop(5/13=1,5/36=2,99/5=2) pseudo=read geom=check guess=(read,
 tcheck) scf=(maxcycle=1)\\title\\0,1\C,0,1.61857392,-1.11026324,0.0684
 2935\C,0,0.59915516,0.83231689,0.83990392\C,0,0.11318539,1.50582053,-0
 .41505764\C,0,-0.84507974,0.71289657,0.44391568\C,0,-1.55956459,-0.507
 55465,-0.11114952\H,0,1.55206012,-0.86701224,-0.99144535\H,0,0.9365579
 5,-1.90333515,0.38018933\H,0,2.65094676,-1.28084465,0.39440619\H,0,1.4
 2488042,-0.05039407,0.90527827\H,0,0.11523253,2.59989369,-0.40831728\H

 Normal termination of Gaussian 16 at Wed Apr  9 03:07:55 2025.
