 Gaussian 16, Revision C.01,

 ----------------------------------------------------------------------
 #t hf aug-cc-pvdz symm=none int=(grid=ultrafine) guess=(read,tcheck) s
 table=(opt,rrhf)
 ----------------------------------------------------------------------
 -----
 title
 -----
 Symbolic Z-matrix:
 Charge =  0 Multiplicity = 1

 SCF Done:  E(RHF) =  -375.685222910     A.U. after   14 cycles
 Normal termination of Gaussian 16 at Wed Apr  9 03:46:26 2025.
 Gaussian 16:  ES64L-G16RevC.01  3-Jul-2019

 ----------------------------------------------------------------------
 #t hf aug-cc-pvdz iop(5/13=1,5/36=2,99/5=2) pseudo=read geom=check gue
 ss=(read,tcheck) scf=(maxcycle=1)
 ----------------------------------------------------------------------
 -----
 title
 -----
 Structure from the checkpoint file:  "Grambow2020_wb97xd3_007911_reverse_mol1.chk"
 Charge =  0 Multiplicity = 1

                         Standard orientation:
 ---------------------------------------------------------------------
 Center     Atomic      Atomic             Coordinates (Angstroms)
 Number     Number       Type             X           Y           Z
 ---------------------------------------------------------------------
      1          6           0       -2.482721   -0.791961    0.002982
      2          8           0       -1.056660   -0.802093   -0.004665
      3          6           0       -0.447055    0.359878   -0.002061
      4          7           0       -0.926556    1.574700    0.004329
      5          7           0        0.886172    0.517450   -0.005715
      6          6           0        1.817569   -0.480699    0.001050
      7          8           0        3.008614   -0.303530    0.002848
      8          1           0       -2.789368   -1.833970    0.008715
      9          1           0       -2.865075   -0.300962   -0.893678
     10          1           0       -2.854814   -0.293367    0.899678
     11          1           0       -1.899553    1.827742   -0.005324
     12          1           0        0.371129    1.774243   -0.000965
     13          1           0        1.377992   -1.497060    0.004000
 ---------------------------------------------------------------------

 SCF Done:  E(RHF) =  -376.060662700     A.U. after    2 cycles

 The electronic state is 1-A.
 Alpha  occ. eigenvalues --  -20.63625 -20.50699 -15.51860 -15.50041 -11.41837
 Alpha  occ. eigenvalues --  -11.34753 -11.33902  -1.58054  -1.45294  -1.31341
 Alpha  occ. eigenvalues --   -1.17894  -1.02061  -0.93140  -0.82801  -0.77506
 Alpha  occ. eigenvalues --   -0.75337  -0.72260  -0.66374  -0.64986  -0.62246
 Alpha  occ. eigenvalues --   -0.60689  -0.56514  -0.54290  -0.50529  -0.49531
 Alpha  occ. eigenvalues --   -0.41377  -0.40589
 Alpha virt. eigenvalues --    0.02028   0.03315   0.04108   0.04713   0.06601
 Alpha virt. eigenvalues --    0.06926   0.08889   0.09634   0.12201   0.12481
 Alpha virt. eigenvalues --    0.13005   0.13222   0.13648   0.14297   0.14662

 Mulliken charges:
               1
     1  C    0.234200
     2  O   -1.383224
     3  C   -0.693823
     4  N    0.505744
     5  N    0.524019
     6  C    0.753966
     7  O   -1.160707
     8  H   -0.034938
     9  H    0.184447
    10  H    0.184943
    11  H    0.036498
    12  H    0.756523
    13  H    0.092353
 Sum of Mulliken charges =  -0.00000

 Dipole moment (field-independent basis, Debye):
    X=             -7.7858    Y=             -0.9746    Z=             -0.0064  Tot=              7.8466

 Test job not archived.
 1\1\GINC-SE461\SP\RHF\Aug-CC-pVDZ\C3H6N2O2\OHZDE\09-Apr-2025\0\\#t hf
 aug-cc-pvdz iop(5/13=1,5/36=2,99/5=2) pseudo=read geom=check guess=(re
 ad,tcheck) scf=(maxcycle=1)\\title\\0,1\C,0,-1.67114459,0.55240284,-0.
 84248724\O,0,-0.87949566,0.20609376,0.29204879\C,0,0.38695947,-0.06507
 349,0.0814293\N,0,1.08419218,-0.07872373,-1.02285125\N,0,1.26060421,-0
 .40391291,1.04281863\C,0,0.99252364,-0.50925432,2.37731607\O,0,1.80308
 457,-0.81109334,3.21508987\H,0,-2.67010249,0.74612509,-0.4624823\H,0,-
 1.70198637,-0.27579172,-1.55270944\H,0,-1.27801101,1.45125066,-1.32063

 Normal termination of Gaussian 16 at Wed Apr  9 03:46:30 2025.
