 Gaussian 16, Revision C.01,

 ----------------------------------------------------------------------
 #t hf aug-cc-pvdz symm=none int=(grid=ultrafine) guess=(read,tcheck) s
 table=(opt,rrhf)
 ----------------------------------------------------------------------
 -----
 title
 -----
 Symbolic Z-matrix:
 Charge =  0 Multiplicity = 1

 SCF Done:  E(RHF) =  -323.722996786     A.U. after   15 cycles
 Normal termination of Gaussian 16 at Wed Apr  9 18:29:35 2025.
 Gaussian 16:  ES64L-G16RevC.01  3-Jul-2019

 ----------------------------------------------------------------------
 #t hf aug-cc-pvdz iop(5/13=1,5/36=2,99/5=2) pseudo=read geom=check gue
 ss=(read,tcheck) scf=(maxcycle=1)
 ----------------------------------------------------------------------
 -----
 title
 -----
 Structure from the checkpoint file:  "Grambow2020_wb97xd3_007622_reverse_mol1.chk"
 Charge =  0 Multiplicity = 1

                         Standard orientation:
 ---------------------------------------------------------------------
 Center     Atomic      Atomic             Coordinates (Angstroms)
 Number     Number       Type             X           Y           Z
 ---------------------------------------------------------------------
      1          6           0       -0.358921    1.445608   -0.486920
      2          6           0       -1.209027    0.575658    0.402956
      3          7           0       -1.908613   -0.509317   -0.284891
      4          6           0       -0.692136   -0.814118    0.471005
      5          6           0        0.505300   -1.062204   -0.400151
      6          6           0        1.765181   -0.548377   -0.104710
      7          8           0        1.886328    0.569176    0.494254
      8          1           0       -0.795882    1.633916   -1.467569
      9          1           0       -0.161538    2.426488   -0.040844
     10          1           0        0.920881    1.162509   -0.059719
     11          1           0       -1.670652    1.006239    1.283464
     12          1           0       -2.728441   -0.788043    0.239735
     13          1           0       -0.782511   -1.381630    1.391207
     14          1           0        0.312864    0.267407   -0.949673
     15          1           0        0.460879   -1.919770   -1.061811
     16          1           0        2.651681   -0.974703   -0.587671
 ---------------------------------------------------------------------

 SCF Done:  E(RHF) =  -324.066799784     A.U. after    2 cycles

 The electronic state is 1-A.
 Alpha  occ. eigenvalues --  -20.54352 -15.50400 -11.33185 -11.27250 -11.26910
 Alpha  occ. eigenvalues --  -11.23600 -11.22892  -1.47530  -1.28141  -1.05446
 Alpha  occ. eigenvalues --   -1.00301  -0.89240  -0.83805  -0.75555  -0.74739
 Alpha  occ. eigenvalues --   -0.70854  -0.67315  -0.62053  -0.59576  -0.59257
 Alpha  occ. eigenvalues --   -0.53483  -0.52846  -0.51126  -0.47329  -0.43502
 Alpha  occ. eigenvalues --   -0.40809  -0.34619
 Alpha virt. eigenvalues --    0.03296   0.03702   0.04413   0.04674   0.05399
 Alpha virt. eigenvalues --    0.05833   0.06574   0.07615   0.09670   0.10807
 Alpha virt. eigenvalues --    0.12021   0.12916   0.13086   0.13489   0.14139

 Mulliken charges:
               1
     1  C   -0.759467
     2  C   -0.038976
     3  N    0.328791
     4  C   -0.094783
     5  C   -0.521567
     6  C    1.164249
     7  O   -1.647887
     8  H    0.107772
     9  H    0.075715
    10  H    0.833779
    11  H   -0.167001
    12  H    0.169070
    13  H   -0.137756
    14  H    0.808828
    15  H   -0.136122
    16  H    0.015354
 Sum of Mulliken charges =  -0.00000

 Dipole moment (field-independent basis, Debye):
    X=             -0.6642    Y=             -0.6525    Z=              0.6017  Tot=              1.1086

 Test job not archived.
 1\1\GINC-SE192\SP\RHF\Aug-CC-pVDZ\C5H9N1O1\OHZDE\09-Apr-2025\0\\#t hf
 aug-cc-pvdz iop(5/13=1,5/36=2,99/5=2) pseudo=read geom=check guess=(re
 ad,tcheck) scf=(maxcycle=1)\\title\\0,1\C,0,-0.89747821,0.01474102,1.1
 1313951\C,0,-1.21312111,0.23352241,-0.34421335\N,0,-0.72668907,1.49813
 043,-0.89546275\C,0,0.01645676,0.26781459,-1.17502439\C,0,1.28831176,0
 .14664473,-0.38634529\C,0,1.68905161,-1.04650182,0.20898219\O,0,0.8265
 0115,-1.87708031,0.64315528\H,0,-0.96380932,0.91810807,1.71943631\H,0,
 -1.56539867,-0.72004813,1.57577771\H,0,-0.00934563,-1.03911393,1.07926

 Normal termination of Gaussian 16 at Wed Apr  9 18:29:41 2025.
