 Gaussian 16, Revision C.01,

 ----------------------------------------------------------------------
 #t hf aug-cc-pvdz symm=none int=(grid=ultrafine) guess=(read,tcheck) s
 table=(opt,rrhf)
 ----------------------------------------------------------------------
 -----
 title
 -----
 Symbolic Z-matrix:
 Charge =  0 Multiplicity = 1

 SCF Done:  E(RHF) =  -286.806202970     A.U. after   15 cycles
 Normal termination of Gaussian 16 at Wed Apr  9 19:07:03 2025.
 Gaussian 16:  ES64L-G16RevC.01  3-Jul-2019

 ----------------------------------------------------------------------
 #t hf aug-cc-pvdz iop(5/13=1,5/36=2,99/5=2) pseudo=read geom=check gue
 ss=(read,tcheck) scf=(maxcycle=1)
 ----------------------------------------------------------------------
 -----
 title
 -----
 Structure from the checkpoint file:  "Grambow2020_wb97xd3_008579_reverse_mol2.chk"
 Charge =  0 Multiplicity = 1

                         Standard orientation:
 ---------------------------------------------------------------------
 Center     Atomic      Atomic             Coordinates (Angstroms)
 Number     Number       Type             X           Y           Z
 ---------------------------------------------------------------------
      1          6           0        2.532837   -0.596951    0.003730
      2          6           0        1.095121   -0.217713   -0.003228
      3          6           0       -0.043474   -0.908785   -0.005425
      4          6           0       -1.201702   -0.010324   -0.002634
      5          6           0       -2.611372   -0.514170    0.003368
      6          6           0       -0.862264    1.301101   -0.000017
      7          7           0        0.686543    1.188948   -0.000604
      8          1           0        3.047888   -0.238242    0.900127
      9          1           0        2.626215   -1.682115   -0.017766
     10          1           0        3.068554   -0.200637   -0.863989
     11          1           0       -0.090801   -1.991230   -0.007775
     12          1           0       -3.301550    0.328709    0.008140
     13          1           0       -2.816248   -1.127144    0.886152
     14          1           0       -2.825982   -1.129026   -0.875726
     15          1           0        1.015157    1.700526   -0.817069
     16          1           0        1.016097    1.697572    0.817377
 ---------------------------------------------------------------------

 SCF Done:  E(RHF) =  -287.113599424     A.U. after    2 cycles

 The electronic state is 1-A.
 Alpha  occ. eigenvalues --  -15.59960 -11.27424 -11.26083 -11.24749 -11.20834
 Alpha  occ. eigenvalues --  -11.20337 -11.20009  -1.30372  -1.08799  -1.04292
 Alpha  occ. eigenvalues --   -0.96077  -0.89628  -0.80897  -0.78087  -0.73083
 Alpha  occ. eigenvalues --   -0.67669  -0.61168  -0.60030  -0.58246  -0.57126
 Alpha  occ. eigenvalues --   -0.55535  -0.51799  -0.50273  -0.42457  -0.33652
 Alpha  occ. eigenvalues --   -0.29733
 Alpha virt. eigenvalues --    0.02212   0.03546   0.04037   0.04171   0.05283
 Alpha virt. eigenvalues --    0.06091   0.06884   0.07271   0.08749   0.09250
 Alpha virt. eigenvalues --    0.11127   0.11276   0.11900   0.13324   0.13969

 Mulliken charges:
               1
     1  C   -0.735289
     2  C   -0.694529
     3  C   -0.181448
     4  C    0.777811
     5  C   -0.338516
     6  C   -1.239342
     7  N    0.753905
     8  H    0.224042
     9  H    0.183884
    10  H    0.216939
    11  H   -0.249669
    12  H    0.134873
    13  H    0.228561
    14  H    0.227933
    15  H    0.344603
    16  H    0.346240
 Sum of Mulliken charges =  -0.00000

 Dipole moment (field-independent basis, Debye):
    X=              4.8516    Y=             -1.7717    Z=              0.0067  Tot=              5.1650

 Test job not archived.
 1\1\GINC-SE229\SP\RHF\Aug-CC-pVDZ\C6H9N1\OHZDE\09-Apr-2025\0\\#t hf au
 g-cc-pvdz iop(5/13=1,5/36=2,99/5=2) pseudo=read geom=check guess=(read
 ,tcheck) scf=(maxcycle=1)\\title\\0,1\C,0,2.49330275,-0.25338311,0.126
 54659\C,0,1.029407,0.00036603,0.06722563\C,0,-0.03208835,-0.76384977,-
 0.18414142\C,0,-1.27066895,0.01557385,-0.09958608\C,0,-2.62031062,-0.5
 9028511,-0.32864568\C,0,-1.06370505,1.31832436,0.20874813\N,0,0.484569
 04,1.33505072,0.32685208\H,0,2.90418361,-0.0570675,1.12159157\H,0,2.69
 487729,-1.29680114,-0.11305698\H,0,3.04851162,0.36385652,-0.58602058\H

 Normal termination of Gaussian 16 at Wed Apr  9 19:07:09 2025.
