 Gaussian 16, Revision C.01,

 ----------------------------------------------------------------------
 #t hf aug-cc-pvdz symm=none int=(grid=ultrafine) guess=(read,tcheck) s
 table=(opt,rrhf)
 ----------------------------------------------------------------------
 -----
 title
 -----
 Symbolic Z-matrix:
 Charge =  0 Multiplicity = 1

 SCF Done:  E(RHF) =  -344.803126311     A.U. after   14 cycles

 1\1\GINC-SE328\Stability\RHF\Aug-CC-pVDZ\C5H10O2\OHZDE\09-Apr-2025\0\\
 #t hf aug-cc-pvdz symm=none int=(grid=ultrafine) guess=(read,tcheck) s
 table=(opt,rrhf)\\title\\0,1\C,0,-2.12043116,-0.47671869,0.21981688\C,
 0,-2.05430373,1.01096844,0.08329313\O,0,-1.15993302,1.70100098,0.49538
 102\C,0,1.27917772,-1.78146868,-0.26262783\C,0,1.80525554,-0.61426936,
 -0.62212171\C,0,1.66339987,-0.20570151,0.81824634\O,0,1.09584421,-1.53
 506624,1.07988682\H,0,-3.06562513,-0.75739964,0.69173028\H,0,-2.122780
 36,-0.92170182,-0.77945118\H,0,-1.2786639,-0.86297612,0.79281175\H,0,-

 Normal termination of Gaussian 16 at Wed Apr  9 03:34:34 2025.
 Gaussian 16:  ES64L-G16RevC.01  3-Jul-2019

 ----------------------------------------------------------------------
 #t hf aug-cc-pvdz iop(5/13=1,5/36=2,99/5=2) pseudo=read geom=check gue
 ss=(read,tcheck) scf=(maxcycle=1)
 ----------------------------------------------------------------------
 -----
 title
 -----
 Structure from the checkpoint file:  "Grambow2020_wb97xd3_007055_reverse_mol2.chk"
 Charge =  0 Multiplicity = 1

                         Standard orientation:
 ---------------------------------------------------------------------
 Center     Atomic      Atomic             Coordinates (Angstroms)
 Number     Number       Type             X           Y           Z
 ---------------------------------------------------------------------
      1          6           0        1.719090   -1.343740    0.177818
      2          6           0        2.404560   -0.015480    0.132193
      3          8           0        1.972487    0.963698   -0.415882
      4          6           0       -1.876524   -0.716497    0.590840
      5          6           0       -1.748852    0.594357    0.774436
      6          6           0       -1.426681    0.680222   -0.692037
      7          8           0       -1.599012   -0.777139   -0.756743
      8          1           0        2.396625   -2.116140   -0.195304
      9          1           0        1.502299   -1.591833    1.220891
     10          1           0        0.795032   -1.336267   -0.398507
     11          1           0        3.381782    0.035354    0.656273
     12          1           0        0.697110    3.019699    0.665457
     13          1           0       -2.107350   -1.612315    1.151962
     14          1           0       -1.835500    1.288416    1.590715
     15          1           0        0.315226    3.505572    1.083095
     16          1           0       -0.404769    0.951978   -0.957751
     17          1           0       -2.157814    1.169892   -1.335322
 ---------------------------------------------------------------------

 SCF Done:  E(RHF) =  -345.162147274     A.U. after    2 cycles

 The electronic state is 1-A.
 Alpha  occ. eigenvalues --  -20.55756 -20.54931 -11.34659 -11.30025 -11.29058
 Alpha  occ. eigenvalues --  -11.24548 -11.22975  -1.49560  -1.48396  -1.03970
 Alpha  occ. eigenvalues --   -1.02615  -0.92768  -0.80864  -0.74134  -0.71378
 Alpha  occ. eigenvalues --   -0.68482  -0.66426  -0.63507  -0.62303  -0.60898
 Alpha  occ. eigenvalues --   -0.58025  -0.56098  -0.52003  -0.50771  -0.49626
 Alpha  occ. eigenvalues --   -0.48555  -0.42238  -0.34590
 Alpha virt. eigenvalues --    0.03176   0.03685   0.04148   0.04639   0.05613
 Alpha virt. eigenvalues --    0.06153   0.07405   0.07989   0.08880   0.10326
 Alpha virt. eigenvalues --    0.10811   0.11403   0.12487   0.13277   0.13869

 Mulliken charges:
               1
     1  C   -0.476145
     2  C    0.983149
     3  O   -1.109792
     4  C    0.888867
     5  C    0.015523
     6  C    0.600351
     7  O   -1.301220
     8  H    0.195707
     9  H    0.231374
    10  H    0.085445
    11  H    0.078659
    12  H   -0.065563
    13  H   -0.128999
    14  H   -0.202146
    15  H    0.061524
    16  H    0.105630
    17  H    0.037635
 Sum of Mulliken charges =  -0.00000

 Dipole moment (field-independent basis, Debye):
    X=              0.8109    Y=             -1.4905    Z=              1.9978  Tot=              2.6212

 Test job not archived.
 1\1\GINC-SE328\SP\RHF\Aug-CC-pVDZ\C5H10O2\OHZDE\09-Apr-2025\0\\#t hf a
 ug-cc-pvdz iop(5/13=1,5/36=2,99/5=2) pseudo=read geom=check guess=(rea
 d,tcheck) scf=(maxcycle=1)\\title\\0,1\C,0,-2.12043116,-0.47671869,0.2
 1981688\C,0,-2.05430373,1.01096844,0.08329313\O,0,-1.15993302,1.701000
 98,0.49538102\C,0,1.27917772,-1.78146868,-0.26262783\C,0,1.80525554,-0
 .61426936,-0.62212171\C,0,1.66339987,-0.20570151,0.81824634\O,0,1.0958
 4421,-1.53506624,1.07988682\H,0,-3.06562513,-0.75739964,0.69173028\H,0
 ,-2.12278036,-0.92170182,-0.77945118\H,0,-1.2786639,-0.86297612,0.7928

 Normal termination of Gaussian 16 at Wed Apr  9 03:34:39 2025.
