 Gaussian 16, Revision C.01,

 ----------------------------------------------------------------------
 #t hf aug-cc-pvdz symm=none int=(grid=ultrafine) guess=(read,tcheck) s
 table=(opt,rrhf)
 ----------------------------------------------------------------------
 -----
 title
 -----
 Symbolic Z-matrix:
 Charge =  0 Multiplicity = 1

 SCF Done:  E(RHF) =  -305.315259157     A.U. after   18 cycles
 Normal termination of Gaussian 16 at Wed Apr  9 18:44:34 2025.
 Gaussian 16:  ES64L-G16RevC.01  3-Jul-2019

 ----------------------------------------------------------------------
 #t hf aug-cc-pvdz iop(5/13=1,5/36=2,99/5=2) pseudo=read geom=check gue
 ss=(read,tcheck) scf=(maxcycle=1)
 ----------------------------------------------------------------------
 -----
 title
 -----
 Structure from the checkpoint file:  "Grambow2020_wb97xd3_008022_reverse_mol1.chk"
 Charge =  0 Multiplicity = 1

                         Standard orientation:
 ---------------------------------------------------------------------
 Center     Atomic      Atomic             Coordinates (Angstroms)
 Number     Number       Type             X           Y           Z
 ---------------------------------------------------------------------
      1          8           0        1.944897   -1.193233    0.116771
      2          6           0        0.572013   -1.357903   -0.091840
      3          6           0       -0.205490   -0.057986   -0.029764
      4          6           0        0.461174    1.164261    0.044451
      5          6           0        0.843887    2.359503   -0.214634
      6          6           0       -1.617174   -0.131201    0.006247
      7          6           0       -2.815024   -0.221685    0.022693
      8          1           0        2.289607   -0.576228   -0.535464
      9          1           0        0.356407   -1.810082   -1.071056
     10          1           0        0.215613   -2.055387    0.668457
     11          1           0        0.815059    0.664876    1.040956
     12          1           0        1.205323    3.081643    0.507285
     13          1           0       -3.877499   -0.288890    0.032744
 ---------------------------------------------------------------------

 SCF Done:  E(RHF) =  -305.626774406     A.U. after    2 cycles

 The electronic state is 1-A.
 Alpha  occ. eigenvalues --  -20.57482 -11.33951 -11.32497 -11.27785 -11.27278
 Alpha  occ. eigenvalues --  -11.26296 -11.23527  -1.48383  -1.15468  -1.05694
 Alpha  occ. eigenvalues --   -1.00668  -0.91583  -0.82372  -0.74563  -0.72753
 Alpha  occ. eigenvalues --   -0.68736  -0.64494  -0.63406  -0.57659  -0.54423
 Alpha  occ. eigenvalues --   -0.48811  -0.46035  -0.43309  -0.40002  -0.29593
 Alpha virt. eigenvalues --    0.01464   0.02946   0.03865   0.04371   0.04583
 Alpha virt. eigenvalues --    0.05936   0.07107   0.08985   0.09541   0.10485
 Alpha virt. eigenvalues --    0.11057   0.12108   0.12726   0.13080   0.13949

 Mulliken charges:
               1
     1  O   -1.234064
     2  C    0.877302
     3  C   -0.344210
     4  C    0.168260
     5  C   -0.845982
     6  C    0.683754
     7  C    0.004920
     8  H    0.356473
     9  H    0.222568
    10  H    0.150392
    11  H    0.527619
    12  H   -0.134999
    13  H   -0.432034
 Sum of Mulliken charges =  -0.00000

 Dipole moment (field-independent basis, Debye):
    X=             -1.7993    Y=             -2.1548    Z=              0.9802  Tot=              2.9734

 Test job not archived.
 1\1\GINC-SE028\SP\RHF\Aug-CC-pVDZ\C6H6O1\OHZDE\09-Apr-2025\0\\#t hf au
 g-cc-pvdz iop(5/13=1,5/36=2,99/5=2) pseudo=read geom=check guess=(read
 ,tcheck) scf=(maxcycle=1)\\title\\0,1\O,0,1.98769161,-1.05771826,-0.01
 332776\C,0,1.40420392,0.10304843,0.50397904\C,0,-0.09662811,0.16391076
 ,0.29916956\C,0,-0.79044029,-0.94029286,-0.1939797\C,0,-1.64004561,-1.
 89308727,-0.30601146\C,0,-0.75347298,1.38639206,0.57046876\C,0,-1.2880
 4442,2.43276928,0.8207298\H,0,1.57247194,-1.82490379,0.3915807\H,0,1.5
 8133834,0.20560003,1.5846829\H,0,1.89292574,0.94930737,0.01761104\H,0,

 Normal termination of Gaussian 16 at Wed Apr  9 18:44:38 2025.
