 Gaussian 16, Revision C.01,

 ----------------------------------------------------------------------
 #t hf aug-cc-pvdz symm=none int=(grid=ultrafine) guess=(read,tcheck) s
 table=(opt,rrhf)
 ----------------------------------------------------------------------
 -----
 title
 -----
 Symbolic Z-matrix:
 Charge =  0 Multiplicity = 1

 SCF Done:  E(RHF) =  -307.903644044     A.U. after   14 cycles

 1\1\GINC-SE105\Stability\RHF\Aug-CC-pVDZ\C6H10O1\OHZDE\09-Apr-2025\0\\
 #t hf aug-cc-pvdz symm=none int=(grid=ultrafine) guess=(read,tcheck) s
 table=(opt,rrhf)\\title\\0,1\C,0,2.46459396,-0.03595123,0.28714094\C,0
 ,0.99240404,0.1301652,0.03054014\C,0,0.11194483,-0.80026014,0.42190843
 \C,0,-1.37825052,-0.96141867,0.33518664\C,0,-2.27107389,0.09315091,-0.
 30049113\C,0,0.63186799,1.37863341,-0.67648873\O,0,1.4569442,2.1912831
 2,-1.01926781\H,0,2.84827318,0.79525433,0.88117902\H,0,3.02247451,-0.0
 2803797,-0.65082575\H,0,2.66872146,-0.96889222,0.8117607\H,0,0.5581013

 Normal termination of Gaussian 16 at Wed Apr  9 18:34:56 2025.
 Gaussian 16:  ES64L-G16RevC.01  3-Jul-2019

 ----------------------------------------------------------------------
 #t hf aug-cc-pvdz iop(5/13=1,5/36=2,99/5=2) pseudo=read geom=check gue
 ss=(read,tcheck) scf=(maxcycle=1)
 ----------------------------------------------------------------------
 -----
 title
 -----
 Structure from the checkpoint file:  "Grambow2020_wb97xd3_007732_reverse_mol2.chk"
 Charge =  0 Multiplicity = 1

                         Standard orientation:
 ---------------------------------------------------------------------
 Center     Atomic      Atomic             Coordinates (Angstroms)
 Number     Number       Type             X           Y           Z
 ---------------------------------------------------------------------
      1          6           0        1.922574   -1.233375    0.006797
      2          6           0        0.639675   -0.449203    0.001603
      3          6           0       -0.549123   -1.066301   -0.002753
      4          6           0       -1.982408   -0.619284   -0.009476
      5          6           0       -2.372179    0.850760    0.010152
      6          6           0        0.820377    1.019088   -0.002751
      7          8           0        1.910802    1.538331   -0.005225
      8          1           0        2.526263   -0.978579    0.879512
      9          1           0        2.527076   -0.988963   -0.868368
     10          1           0        1.727293   -2.305335    0.013119
     11          1           0       -0.490670   -2.154357   -0.004688
     12          1           0       -2.455042   -1.120175    0.843807
     13          1           0       -2.440017   -1.094926   -0.885248
     14          1           0       -2.007288    1.385282   -0.868123
     15          1           0       -3.460343    0.934181    0.012663
     16          1           0       -0.082571    1.645838   -0.004430
     17          1           0       -2.004612    1.360269    0.902118
 ---------------------------------------------------------------------

 SCF Done:  E(RHF) =  -308.228339023     A.U. after    2 cycles

 The electronic state is 1-A.
 Alpha  occ. eigenvalues --  -20.53597 -11.33023 -11.26704 -11.25798 -11.24867
 Alpha  occ. eigenvalues --  -11.24234 -11.22818  -1.46845  -1.12026  -1.04810
 Alpha  occ. eigenvalues --   -0.94576  -0.90922  -0.83728  -0.74186  -0.66805
 Alpha  occ. eigenvalues --   -0.65523  -0.63945  -0.61107  -0.58376  -0.57312
 Alpha  occ. eigenvalues --   -0.54480  -0.52481  -0.52183  -0.51876  -0.50682
 Alpha  occ. eigenvalues --   -0.41131  -0.36947
 Alpha virt. eigenvalues --    0.02829   0.03435   0.03843   0.04265   0.05638
 Alpha virt. eigenvalues --    0.06068   0.06527   0.07106   0.08364   0.08957
 Alpha virt. eigenvalues --    0.08987   0.10765   0.13202   0.13426   0.13476

 Mulliken charges:
               1
     1  C   -0.784985
     2  C    0.517078
     3  C    0.441942
     4  C   -0.713181
     5  C   -0.296035
     6  C    0.837495
     7  O   -1.296592
     8  H    0.253273
     9  H    0.253771
    10  H    0.049473
    11  H   -0.271549
    12  H    0.279937
    13  H    0.281283
    14  H    0.312955
    15  H   -0.044168
    16  H   -0.126345
    17  H    0.305646
 Sum of Mulliken charges =   0.00000

 Dipole moment (field-independent basis, Debye):
    X=             -3.3869    Y=             -2.0880    Z=             -0.0003  Tot=              3.9788

 Test job not archived.
 1\1\GINC-SE105\SP\RHF\Aug-CC-pVDZ\C6H10O1\OHZDE\09-Apr-2025\0\\#t hf a
 ug-cc-pvdz iop(5/13=1,5/36=2,99/5=2) pseudo=read geom=check guess=(rea
 d,tcheck) scf=(maxcycle=1)\\title\\0,1\C,0,2.46459396,-0.03595123,0.28
 714094\C,0,0.99240404,0.1301652,0.03054014\C,0,0.11194483,-0.80026014,
 0.42190843\C,0,-1.37825052,-0.96141867,0.33518664\C,0,-2.27107389,0.09
 315091,-0.30049113\C,0,0.63186799,1.37863341,-0.67648873\O,0,1.4569442
 ,2.19128312,-1.01926781\H,0,2.84827318,0.79525433,0.88117902\H,0,3.022
 47451,-0.02803797,-0.65082575\H,0,2.66872146,-0.96889222,0.8117607\H,0

 Normal termination of Gaussian 16 at Wed Apr  9 18:35:02 2025.
