 Gaussian 16, Revision C.01,

 ----------------------------------------------------------------------
 #t hf aug-cc-pvdz symm=none int=(grid=ultrafine) guess=(read,tcheck) s
 table=(opt,rrhf)
 ----------------------------------------------------------------------
 -----
 title
 -----
 Symbolic Z-matrix:
 Charge =  0 Multiplicity = 1

 SCF Done:  E(RHF) =  -305.856337764     A.U. after   13 cycles
 Normal termination of Gaussian 16 at Wed Apr  9 03:05:48 2025.
 Gaussian 16:  ES64L-G16RevC.01  3-Jul-2019

 ----------------------------------------------------------------------
 #t hf aug-cc-pvdz iop(5/13=1,5/36=2,99/5=2) pseudo=read geom=check gue
 ss=(read,tcheck) scf=(maxcycle=1)
 ----------------------------------------------------------------------
 -----
 title
 -----
 Structure from the checkpoint file:  "Grambow2020_b97d3_006509_reverse_mol2.chk"
 Charge =  0 Multiplicity = 1

                         Standard orientation:
 ---------------------------------------------------------------------
 Center     Atomic      Atomic             Coordinates (Angstroms)
 Number     Number       Type             X           Y           Z
 ---------------------------------------------------------------------
      1          6           0       -0.644139    1.547178    0.031345
      2          6           0       -0.506289    0.039658   -0.020013
      3          6           0       -1.773101   -0.717179   -0.365551
      4          8           0        0.257337   -0.555748    1.093363
      5          6           0        0.812537   -0.602113   -0.214113
      6          8           0        2.009783    0.060900   -0.444369
      7          1           0       -1.336401    1.839667    0.833396
      8          1           0        0.314862    2.047937    0.217683
      9          1           0       -1.043036    1.923957   -0.921113
     10          1           0       -1.584986   -1.797881   -0.396258
     11          1           0       -2.160050   -0.400022   -1.344557
     12          1           0       -2.550804   -0.526253    0.388670
     13          1           0        2.015718    0.854847    0.123984
     14          1           0        0.873688   -1.588739   -0.683767
 ---------------------------------------------------------------------

 SCF Done:  E(RHF) =  -306.172289398     A.U. after    2 cycles

 The electronic state is 1-A.
 Alpha  occ. eigenvalues --  -20.57178 -20.55792 -11.35029 -11.30618 -11.24887
 Alpha  occ. eigenvalues --  -11.24377  -1.51453  -1.44544  -1.05805  -0.96186
 Alpha  occ. eigenvalues --   -0.90626  -0.80269  -0.70722  -0.69043  -0.63094
 Alpha  occ. eigenvalues --   -0.60932  -0.57640  -0.57062  -0.56172  -0.55322
 Alpha  occ. eigenvalues --   -0.52735  -0.49398  -0.45039  -0.40573
 Alpha virt. eigenvalues --    0.03445   0.03807   0.04473   0.04919   0.06016
 Alpha virt. eigenvalues --    0.06845   0.07350   0.09177   0.10651   0.11408
 Alpha virt. eigenvalues --    0.13775   0.14559   0.15118   0.15597   0.15801

 Mulliken charges:
               1
     1  C   -0.537101
     2  C    0.662586
     3  C   -0.458846
     4  O   -1.394285
     5  C    1.432478
     6  O   -1.256113
     7  H    0.269734
     8  H    0.113074
     9  H    0.240911
    10  H    0.176344
    11  H    0.245412
    12  H    0.271301
    13  H    0.241957
    14  H   -0.007453
 Sum of Mulliken charges =  -0.00000

 Dipole moment (field-independent basis, Debye):
    X=             -1.6877    Y=              1.2379    Z=             -1.0267  Tot=              2.3312

 Test job not archived.
 1\1\GINC-SE332\SP\RHF\Aug-CC-pVDZ\C4H8O2\OHZDE\09-Apr-2025\0\\#t hf au
 g-cc-pvdz iop(5/13=1,5/36=2,99/5=2) pseudo=read geom=check guess=(read
 ,tcheck) scf=(maxcycle=1)\\title\\0,1\C,0,-0.79083735,1.16736276,-0.23
 189384\C,0,0.1919728,0.04232696,0.01837648\C,0,1.13729096,0.25278282,1
 .18417789\O,0,0.8476633,-0.49418901,-1.18970485\C,0,-0.06529466,-1.324
 83796,-0.48513264\O,0,-1.21457785,-1.74347356,-1.14079694\H,0,-0.25562
 13,2.08702174,-0.50727349\H,0,-1.49465105,0.93441662,-1.04155237\H,0,-
 1.37540842,1.36912027,0.67685681\H,0,1.80360508,-0.6105978,1.30602064\

 Normal termination of Gaussian 16 at Wed Apr  9 03:05:52 2025.
