 Gaussian 16, Revision C.01,

 ----------------------------------------------------------------------
 #t hf aug-cc-pvdz symm=none int=(grid=ultrafine) guess=(read,tcheck) s
 table=(opt,rrhf)
 ----------------------------------------------------------------------
 -----
 title
 -----
 Symbolic Z-matrix:
 Charge =  0 Multiplicity = 1

 SCF Done:  E(RHF) =  -306.500220104     A.U. after   17 cycles
 Normal termination of Gaussian 16 at Wed Apr  9 03:51:58 2025.
 Gaussian 16:  ES64L-G16RevC.01  3-Jul-2019

 ----------------------------------------------------------------------
 #t hf aug-cc-pvdz iop(5/13=1,5/36=2,99/5=2) pseudo=read geom=check gue
 ss=(read,tcheck) scf=(maxcycle=1)
 ----------------------------------------------------------------------
 -----
 title
 -----
 Structure from the checkpoint file:  "Grambow2020_wb97xd3_008171_forward_mol1.chk"
 Charge =  0 Multiplicity = 1

                         Standard orientation:
 ---------------------------------------------------------------------
 Center     Atomic      Atomic             Coordinates (Angstroms)
 Number     Number       Type             X           Y           Z
 ---------------------------------------------------------------------
      1          6           0       -2.061520   -0.209101    0.095994
      2          6           0       -0.922574    0.348268   -0.515978
      3          8           0       -0.058971    1.301440    0.198084
      4          6           0        1.034101    0.497051    0.614833
      5          6           0        1.505775   -0.148460   -0.708034
      6          6           0        0.204382   -0.971922   -0.491552
      7          6           0        0.386911   -0.822653    0.912866
      8          1           0       -3.053791    0.147043   -0.157963
      9          1           0       -1.994666   -1.070282    0.743617
     10          1           0       -1.126235    0.844891   -1.468705
     11          1           0        1.683736    1.034468    1.299051
     12          1           0        1.550414    0.499507   -1.583454
     13          1           0        2.405454   -0.751286   -0.608302
     14          1           0       -0.121622   -1.840704   -1.048298
     15          1           0        0.246032   -1.434257    1.790613
 ---------------------------------------------------------------------

 SCF Done:  E(RHF) =  -306.817425714     A.U. after    2 cycles

 The electronic state is 1-A.
 Alpha  occ. eigenvalues --  -20.53614 -11.30645 -11.30322 -11.28902 -11.26900
 Alpha  occ. eigenvalues --  -11.25458 -11.22901  -1.46306  -1.16977  -1.03303
 Alpha  occ. eigenvalues --   -0.91713  -0.88737  -0.78021  -0.76548  -0.72858
 Alpha  occ. eigenvalues --   -0.66524  -0.64907  -0.58968  -0.58366  -0.54213
 Alpha  occ. eigenvalues --   -0.53201  -0.52288  -0.49151  -0.44090  -0.40637
 Alpha  occ. eigenvalues --   -0.25504
 Alpha virt. eigenvalues --    0.01713   0.03196   0.03516   0.03897   0.04573
 Alpha virt. eigenvalues --    0.05648   0.05966   0.06331   0.08950   0.11061
 Alpha virt. eigenvalues --    0.11469   0.12312   0.12576   0.13584   0.14174

 Mulliken charges:
               1
     1  C    0.027218
     2  C    0.929420
     3  O   -1.470852
     4  C    1.057081
     5  C    0.063345
     6  C    0.082935
     7  C    0.131901
     8  H   -0.072761
     9  H   -0.087864
    10  H   -0.131785
    11  H   -0.040452
    12  H    0.013892
    13  H   -0.060548
    14  H   -0.236573
    15  H   -0.204958
 Sum of Mulliken charges =  -0.00000

 Dipole moment (field-independent basis, Debye):
    X=              1.8287    Y=             -2.2023    Z=             -0.2200  Tot=              2.8710

 Test job not archived.
 1\1\GINC-SE195\SP\RHF\Aug-CC-pVDZ\C6H8O1\OHZDE\09-Apr-2025\0\\#t hf au
 g-cc-pvdz iop(5/13=1,5/36=2,99/5=2) pseudo=read geom=check guess=(read
 ,tcheck) scf=(maxcycle=1)\\title\\0,1\C,0,-2.01109722,-0.30322553,0.21
 075041\C,0,-0.70711572,-0.61807904,0.63837978\O,0,0.1750758,-1.4787868
 7,-0.16483444\C,0,1.0282241,-0.54899109,-0.81533028\C,0,1.59721517,0.2
 734619,0.36321159\C,0,0.15620139,0.85778908,0.33833841\C,0,0.12343578,
 0.62066114,-1.06547192\H,0,-2.87063671,-0.78992522,0.65824168\H,0,-2.2
 0264895,0.49940984,-0.48538314\H,0,-0.65976817,-1.057993,1.63839696\H,

 Normal termination of Gaussian 16 at Wed Apr  9 03:52:07 2025.
