 Gaussian 16, Revision C.01,

 ----------------------------------------------------------------------
 #t hf aug-cc-pvdz symm=none int=(grid=ultrafine) guess=(read,tcheck) s
 table=(opt,rrhf)
 ----------------------------------------------------------------------
 -----
 title
 -----
 Symbolic Z-matrix:
 Charge =  0 Multiplicity = 1

 SCF Done:  E(RHF) =  -339.195043858     A.U. after   19 cycles
 Normal termination of Gaussian 16 at Wed Apr  9 15:50:35 2025.
 Gaussian 16:  ES64L-G16RevC.01  3-Jul-2019

 ----------------------------------------------------------------------
 #t hf aug-cc-pvdz iop(5/13=1,5/36=2,99/5=2) pseudo=read geom=check gue
 ss=(read,tcheck) scf=(maxcycle=1)
 ----------------------------------------------------------------------
 -----
 title
 -----
 Structure from the checkpoint file:  "Grambow2020_b97d3_006812_reverse_mol1.chk"
 Charge =  0 Multiplicity = 1

                         Standard orientation:
 ---------------------------------------------------------------------
 Center     Atomic      Atomic             Coordinates (Angstroms)
 Number     Number       Type             X           Y           Z
 ---------------------------------------------------------------------
      1          8           0       -1.992791   -0.760073   -0.332431
      2          6           0       -0.990985   -0.352178    0.406855
      3          6           0        0.084331    0.592234    0.023402
      4          8           0       -0.158527    1.801611   -0.006412
      5          6           0        1.483875    0.007159   -0.079353
      6          8           0        1.680239   -1.193021    0.008435
      7          1           0       -1.979559   -1.023992    0.829271
      8          1           0        2.284860    0.752566   -0.291427
 ---------------------------------------------------------------------

 SCF Done:  E(RHF) =  -339.519525155     A.U. after    2 cycles

 The electronic state is 1-A.
 Alpha  occ. eigenvalues --  -20.63452 -20.61244 -20.60593 -11.39800 -11.39760
 Alpha  occ. eigenvalues --  -11.37925  -1.54516  -1.52712  -1.51099  -1.03515
 Alpha  occ. eigenvalues --   -0.91982  -0.79597  -0.75456  -0.72462  -0.69040
 Alpha  occ. eigenvalues --   -0.66486  -0.60207  -0.57771  -0.54253  -0.52969
 Alpha  occ. eigenvalues --   -0.47072  -0.38134
 Alpha virt. eigenvalues --    0.00978   0.03648   0.03907   0.06341   0.08698
 Alpha virt. eigenvalues --    0.09084   0.10103   0.10384   0.11575   0.12318
 Alpha virt. eigenvalues --    0.13381   0.13695   0.14208   0.15481   0.18215

 Mulliken charges:
               1
     1  O   -1.034909
     2  C    0.373625
     3  C    1.195197
     4  O   -1.229159
     5  C    0.923899
     6  O   -1.034789
     7  H    0.613254
     8  H    0.192881
 Sum of Mulliken charges =   0.00000

 Dipole moment (field-independent basis, Debye):
    X=              0.5760    Y=             -0.0943    Z=              0.4821  Tot=              0.7570

 Test job not archived.
 1\1\GINC-SE037\SP\RHF\Aug-CC-pVDZ\C3H2O3\OHZDE\09-Apr-2025\0\\#t hf au
 g-cc-pvdz iop(5/13=1,5/36=2,99/5=2) pseudo=read geom=check guess=(read
 ,tcheck) scf=(maxcycle=1)\\title\\0,1\O,0,-1.91081478,0.31386385,1.072
 47896\C,0,-0.62225255,0.42685983,0.86420784\C,0,0.08377252,0.40890265,
 -0.43827528\O,0,0.05711401,1.4152143,-1.15177876\C,0,0.99144312,-0.784
 29334,-0.69128147\O,0,1.02126335,-1.73470768,0.07194839\H,0,-1.1981505
 9,0.61930239,1.9770215\H,0,1.57037291,-0.73449399,-1.64235717\\Version
 =ES64L-G16RevC.01\State=1-A\HF=-339.5195252\RMSD=1.198e-02\Dipole=0.28

 Normal termination of Gaussian 16 at Wed Apr  9 15:50:38 2025.
