 Gaussian 16, Revision C.01,

 ----------------------------------------------------------------------
 #t hf aug-cc-pvdz symm=none int=(grid=ultrafine) guess=(read,tcheck) s
 table=(opt,rrhf)
 ----------------------------------------------------------------------
 -----
 title
 -----
 Symbolic Z-matrix:
 Charge =  0 Multiplicity = 1

 SCF Done:  E(RHF) =  -286.638635358     A.U. after   16 cycles
 Normal termination of Gaussian 16 at Wed Apr  9 19:20:15 2025.
 Gaussian 16:  ES64L-G16RevC.01  3-Jul-2019

 ----------------------------------------------------------------------
 #t hf aug-cc-pvdz iop(5/13=1,5/36=2,99/5=2) pseudo=read geom=check gue
 ss=(read,tcheck) scf=(maxcycle=1)
 ----------------------------------------------------------------------
 -----
 title
 -----
 Structure from the checkpoint file:  "Grambow2020_wb97xd3_009357_reverse_mol1.chk"
 Charge =  0 Multiplicity = 1

                         Standard orientation:
 ---------------------------------------------------------------------
 Center     Atomic      Atomic             Coordinates (Angstroms)
 Number     Number       Type             X           Y           Z
 ---------------------------------------------------------------------
      1          6           0        1.989630   -0.190741    0.426428
      2          7           0        0.961478    0.210302   -0.502902
      3          6           0       -0.146721   -0.734649   -0.819665
      4          6           0       -0.832730   -1.182331    0.497882
      5          6           0       -1.143740    0.255831    1.009659
      6          6           0        0.001489    1.185162   -0.202466
      7          6           0       -1.053535    0.421626   -0.758079
      8          1           0        1.550428   -0.834236    1.204667
      9          1           0        2.446411    0.691056    0.878151
     10          1           0        2.764925   -0.748529   -0.099689
     11          1           0       -0.027842   -1.434786   -1.636596
     12          1           0       -1.754657   -1.719474    0.258826
     13          1           0       -0.546981    0.580162    1.868573
     14          1           0       -2.160467    0.631261    1.159691
     15          1           0        0.135269    2.199007    0.138031
     16          1           0       -2.023799    0.634034   -1.173895
 ---------------------------------------------------------------------

 SCF Done:  E(RHF) =  -286.942079602     A.U. after    2 cycles

 The electronic state is 1-A.
 Alpha  occ. eigenvalues --  -15.51524 -11.31760 -11.31452 -11.27538 -11.26605
 Alpha  occ. eigenvalues --  -11.24811 -11.17086  -1.32327  -1.11482  -0.98202
 Alpha  occ. eigenvalues --   -0.96233  -0.88099  -0.78498  -0.74799  -0.74555
 Alpha  occ. eigenvalues --   -0.66957  -0.63898  -0.60299  -0.58158  -0.56726
 Alpha  occ. eigenvalues --   -0.52654  -0.52089  -0.49346  -0.44115  -0.40110
 Alpha  occ. eigenvalues --   -0.22602
 Alpha virt. eigenvalues --    0.02623   0.03200   0.03892   0.04686   0.05394
 Alpha virt. eigenvalues --    0.05676   0.06132   0.07267   0.09321   0.09764
 Alpha virt. eigenvalues --    0.10412   0.11907   0.12473   0.13015   0.13677

 Mulliken charges:
               1
     1  C   -0.324895
     2  N    0.860257
     3  C   -0.608361
     4  C   -0.054727
     5  C   -0.115894
     6  C   -0.417743
     7  C    0.946728
     8  H    0.266894
     9  H    0.087537
    10  H    0.063144
    11  H   -0.170697
    12  H   -0.087546
    13  H    0.061297
    14  H   -0.038033
    15  H   -0.249472
    16  H   -0.218488
 Sum of Mulliken charges =  -0.00000

 Dipole moment (field-independent basis, Debye):
    X=             -1.1277    Y=              3.7777    Z=             -1.2214  Tot=              4.1274

 Test job not archived.
 1\1\GINC-SE226\SP\RHF\Aug-CC-pVDZ\C6H9N1\OHZDE\09-Apr-2025\0\\#t hf au
 g-cc-pvdz iop(5/13=1,5/36=2,99/5=2) pseudo=read geom=check guess=(read
 ,tcheck) scf=(maxcycle=1)\\title\\0,1\C,0,1.96686906,0.38480811,0.0727
 4122\N,0,0.96269522,-0.56784651,-0.33428568\C,0,-0.05353378,-1.0264867
 6,0.65480549\C,0,-0.7735299,0.20671284,1.26125744\C,0,-1.21769193,0.81
 558884,-0.10217371\C,0,-0.08192158,-0.24585933,-1.2102386\C,0,-1.04598
 67,-0.92404657,-0.42575868\H,0,1.53598398,1.08004709,0.81004817\H,0,2.
 33193209,0.93382179,-0.79650036\H,0,2.80851743,-0.13838601,0.5276088\H

 Normal termination of Gaussian 16 at Wed Apr  9 19:20:21 2025.
