 Gaussian 16, Revision C.01,

 ----------------------------------------------------------------------
 #t hf aug-cc-pvdz symm=none int=(grid=ultrafine) guess=(read,tcheck) s
 table=(opt,rrhf)
 ----------------------------------------------------------------------
 -----
 title
 -----
 Symbolic Z-matrix:
 Charge =  0 Multiplicity = 1

 SCF Done:  E(RHF) =  -302.765048325     A.U. after   17 cycles
 Normal termination of Gaussian 16 at Wed Apr  9 19:12:02 2025.
 Gaussian 16:  ES64L-G16RevC.01  3-Jul-2019

 ----------------------------------------------------------------------
 #t hf aug-cc-pvdz iop(5/13=1,5/36=2,99/5=2) pseudo=read geom=check gue
 ss=(read,tcheck) scf=(maxcycle=1)
 ----------------------------------------------------------------------
 -----
 title
 -----
 Structure from the checkpoint file:  "Grambow2020_wb97xd3_008884_reverse_mol1.chk"
 Charge =  0 Multiplicity = 1

                         Standard orientation:
 ---------------------------------------------------------------------
 Center     Atomic      Atomic             Coordinates (Angstroms)
 Number     Number       Type             X           Y           Z
 ---------------------------------------------------------------------
      1          6           0        2.986167    0.185864    0.154754
      2          7           0        1.578803    0.275843   -0.151806
      3          6           0        0.875476   -0.776455   -0.042476
      4          6           0       -0.558290   -0.858359   -0.181440
      5          6           0       -1.483224    0.142345    0.060271
      6          7           0       -2.815718   -0.121383    0.251551
      7          6           0       -1.020174    1.426600   -0.222238
      8          1           0        3.317426   -0.832731    0.397937
      9          1           0        3.565994    0.557073   -0.692794
     10          1           0        3.210544    0.835242    1.004353
     11          1           0        1.354752   -1.740681    0.182221
     12          1           0       -0.941051   -1.816613   -0.526436
     13          1           0       -3.123851   -1.069360    0.116030
     14          1           0       -3.451202    0.591781   -0.063901
     15          1           0       -0.073940    1.674100    0.271149
 ---------------------------------------------------------------------

 SCF Done:  E(RHF) =  -303.079766000     A.U. after    2 cycles

 The electronic state is 1-A.
 Alpha  occ. eigenvalues --  -15.52121 -15.49153 -11.30409 -11.28713 -11.26865
 Alpha  occ. eigenvalues --  -11.25365 -11.24630  -1.24626  -1.22877  -1.06836
 Alpha  occ. eigenvalues --   -0.97808  -0.92069  -0.82212  -0.77363  -0.72562
 Alpha  occ. eigenvalues --   -0.68306  -0.66268  -0.62453  -0.60864  -0.58668
 Alpha  occ. eigenvalues --   -0.55198  -0.53045  -0.46163  -0.43915  -0.38209
 Alpha  occ. eigenvalues --   -0.32326
 Alpha virt. eigenvalues --    0.02422   0.03379   0.03952   0.04678   0.05415
 Alpha virt. eigenvalues --    0.05809   0.06691   0.07162   0.08833   0.09827
 Alpha virt. eigenvalues --    0.10811   0.11424   0.12462   0.13830   0.14296

 Mulliken charges:
               1
     1  C   -0.370467
     2  N    0.787463
     3  C   -1.221323
     4  C    1.043022
     5  C   -0.940169
     6  N    0.721591
     7  C   -0.243387
     8  H    0.102385
     9  H    0.108221
    10  H    0.116019
    11  H   -0.239810
    12  H   -0.230990
    13  H    0.039501
    14  H    0.083801
    15  H    0.244143
 Sum of Mulliken charges =  -0.00000

 Dipole moment (field-independent basis, Debye):
    X=             -0.6380    Y=             -2.9640    Z=              0.9079  Tot=              3.1649

 Test job not archived.
 1\1\GINC-SE016\SP\RHF\Aug-CC-pVDZ\C5H8N2\OHZDE\09-Apr-2025\0\\#t hf au
 g-cc-pvdz iop(5/13=1,5/36=2,99/5=2) pseudo=read geom=check guess=(read
 ,tcheck) scf=(maxcycle=1)\\title\\0,1\C,0,2.77061946,-0.10997427,0.153
 62691\N,0,1.39402535,0.15112006,-0.19215928\C,0,0.54404016,-0.77283797
 ,0.00220518\C,0,-0.88513295,-0.6606153,-0.16081977\C,0,-1.65649007,0.4
 8186096,-0.03797548\N,0,-3.01476541,0.43310034,0.14747633\C,0,-1.00895
 544,1.65171701,-0.43253009\H,0,2.94792002,-1.13659977,0.50149178\H,0,3
 .4055194,0.08821381,-0.71237302\H,0,3.07993638,0.58104553,0.94145399\H

 Normal termination of Gaussian 16 at Wed Apr  9 19:12:07 2025.
