 Gaussian 16, Revision C.01,

 ----------------------------------------------------------------------
 #t hf aug-cc-pvdz symm=none int=(grid=ultrafine) guess=(read,tcheck) s
 table=(opt,rrhf)
 ----------------------------------------------------------------------
 -----
 title
 -----
 Symbolic Z-matrix:
 Charge =  0 Multiplicity = 1

 SCF Done:  E(RHF) =  -307.753398960     A.U. after   14 cycles

 1\1\GINC-SE212\Stability\RHF\Aug-CC-pVDZ\C6H10O1\OHZDE\09-Apr-2025\0\\
 #t hf aug-cc-pvdz symm=none int=(grid=ultrafine) guess=(read,tcheck) s
 table=(opt,rrhf)\\title\\0,1\C,0,1.94104775,0.56133608,-0.24913232\C,0
 ,0.82030339,-0.45812333,-0.26793538\C,0,0.03704537,-0.72751709,1.04723
 732\C,0,-1.25666359,-0.26589494,0.37023738\O,0,-2.36798394,-1.07842245
 ,0.50127783\C,0,-1.39679201,1.11934453,-0.01102206\C,0,-0.49401562,-0.
 07456282,-0.96336911\H,0,2.75262363,0.22685828,0.39988158\H,0,1.597028
 2,1.52753129,0.12658798\H,0,2.35013229,0.71478453,-1.24998655\H,0,1.18

 Normal termination of Gaussian 16 at Wed Apr  9 19:08:08 2025.
 Gaussian 16:  ES64L-G16RevC.01  3-Jul-2019

 ----------------------------------------------------------------------
 #t hf aug-cc-pvdz iop(5/13=1,5/36=2,99/5=2) pseudo=read geom=check gue
 ss=(read,tcheck) scf=(maxcycle=1)
 ----------------------------------------------------------------------
 -----
 title
 -----
 Structure from the checkpoint file:  "Grambow2020_wb97xd3_008612_reverse_mol1.chk"
 Charge =  0 Multiplicity = 1

                         Standard orientation:
 ---------------------------------------------------------------------
 Center     Atomic      Atomic             Coordinates (Angstroms)
 Number     Number       Type             X           Y           Z
 ---------------------------------------------------------------------
      1          6           0       -2.393705    0.092258   -0.146564
      2          6           0       -1.091611   -0.382864    0.465425
      3          6           0       -0.074982   -1.134627   -0.438491
      4          6           0        0.964082   -0.040153   -0.178534
      5          8           0        2.234362   -0.443807    0.190056
      6          6           0        0.733362    1.287545   -0.696095
      7          6           0       -0.018250    0.667391    0.786427
      8          1           0       -3.001009   -0.757777   -0.463381
      9          1           0       -2.218567    0.716523   -1.025579
     10          1           0       -2.975902    0.674928    0.570476
     11          1           0       -1.302025   -0.963250    1.365831
     12          1           0       -0.346459   -1.272777   -1.486110
     13          1           0        0.222980   -2.092693   -0.015167
     14          1           0        2.815276    0.302776    0.017916
     15          1           0       -0.022488    1.799779    0.367002
     16          1           0       -0.113525    1.319299   -1.386151
     17          1           0        0.353446    0.886349    1.781707
 ---------------------------------------------------------------------

 SCF Done:  E(RHF) =  -308.079795580     A.U. after    2 cycles

 The electronic state is 1-A.
 Alpha  occ. eigenvalues --  -20.55184 -11.30199 -11.27480 -11.25760 -11.24460
 Alpha  occ. eigenvalues --  -11.23819 -11.23631  -1.46595  -1.19936  -1.03793
 Alpha  occ. eigenvalues --   -0.96639  -0.89126  -0.79840  -0.76567  -0.70174
 Alpha  occ. eigenvalues --   -0.67941  -0.62355  -0.61126  -0.58273  -0.57759
 Alpha  occ. eigenvalues --   -0.55061  -0.52213  -0.49937  -0.48516  -0.46869
 Alpha  occ. eigenvalues --   -0.39566  -0.35131
 Alpha virt. eigenvalues --    0.03180   0.03540   0.03868   0.04390   0.06030
 Alpha virt. eigenvalues --    0.06280   0.06468   0.06864   0.07302   0.09610
 Alpha virt. eigenvalues --    0.11815   0.12289   0.13273   0.13829   0.14539

 Mulliken charges:
               1
     1  C   -0.310631
     2  C   -0.087126
     3  C   -0.166630
     4  C    1.877275
     5  O   -1.666969
     6  C   -0.698864
     7  C   -0.386931
     8  H    0.181652
     9  H    0.191574
    10  H    0.174451
    11  H    0.045448
    12  H    0.015893
    13  H    0.103629
    14  H    0.323477
    15  H    0.406030
    16  H    0.089581
    17  H   -0.091859
 Sum of Mulliken charges =  -0.00000

 Dipole moment (field-independent basis, Debye):
    X=             -2.3174    Y=             -0.3814    Z=              0.8068  Tot=              2.4833

 Test job not archived.
 1\1\GINC-SE212\SP\RHF\Aug-CC-pVDZ\C6H10O1\OHZDE\09-Apr-2025\0\\#t hf a
 ug-cc-pvdz iop(5/13=1,5/36=2,99/5=2) pseudo=read geom=check guess=(rea
 d,tcheck) scf=(maxcycle=1)\\title\\0,1\C,0,1.94104775,0.56133608,-0.24
 913232\C,0,0.82030339,-0.45812333,-0.26793538\C,0,0.03704537,-0.727517
 09,1.04723732\C,0,-1.25666359,-0.26589494,0.37023738\O,0,-2.36798394,-
 1.07842245,0.50127783\C,0,-1.39679201,1.11934453,-0.01102206\C,0,-0.49
 401562,-0.07456282,-0.96336911\H,0,2.75262363,0.22685828,0.39988158\H,
 0,1.5970282,1.52753129,0.12658798\H,0,2.35013229,0.71478453,-1.2499865

 Normal termination of Gaussian 16 at Wed Apr  9 19:08:15 2025.
