 Gaussian 16, Revision C.01,

 ----------------------------------------------------------------------
 #t hf aug-cc-pvdz symm=none int=(grid=ultrafine) guess=(read,tcheck) s
 table=(opt,rrhf)
 ----------------------------------------------------------------------
 -----
 title
 -----
 Symbolic Z-matrix:
 Charge =  0 Multiplicity = 1

 SCF Done:  E(RHF) =  -317.699792218     A.U. after   16 cycles
 Normal termination of Gaussian 16 at Wed Apr  9 18:41:18 2025.
 Gaussian 16:  ES64L-G16RevC.01  3-Jul-2019

 ----------------------------------------------------------------------
 #t hf aug-cc-pvdz iop(5/13=1,5/36=2,99/5=2) pseudo=read geom=check gue
 ss=(read,tcheck) scf=(maxcycle=1)
 ----------------------------------------------------------------------
 -----
 title
 -----
 Structure from the checkpoint file:  "Grambow2020_wb97xd3_007980_reverse_mol2.chk"
 Charge =  0 Multiplicity = 1

                         Standard orientation:
 ---------------------------------------------------------------------
 Center     Atomic      Atomic             Coordinates (Angstroms)
 Number     Number       Type             X           Y           Z
 ---------------------------------------------------------------------
      1          7           0        2.380287   -0.259061   -0.003521
      2          6           0        0.224453    0.279154   -0.002209
      3          7           0        1.460166    0.663013   -0.000407
      4          6           0       -0.919486    1.164170   -0.000013
      5          6           0       -2.001048    0.355412    0.001600
      6          6           0       -1.479662   -1.001867    0.000094
      7          7           0       -0.183843   -1.056069   -0.001730
      8          1           0        2.119964   -1.235941    0.013618
      9          1           0        3.332867    0.046367    0.021909
     10          1           0       -0.872964    2.242422    0.000630
     11          1           0       -3.043402    0.636876    0.004196
     12          1           0       -2.078274   -1.906111    0.002421
 ---------------------------------------------------------------------

 SCF Done:  E(RHF) =  -318.024811145     A.U. after    2 cycles

 The electronic state is 1-A.
 Alpha  occ. eigenvalues --  -15.57841 -15.55329 -15.48989 -11.28535 -11.27672
 Alpha  occ. eigenvalues --  -11.25373 -11.23794  -1.36405  -1.26810  -1.10659
 Alpha  occ. eigenvalues --   -1.05228  -0.92900  -0.83107  -0.81434  -0.76264
 Alpha  occ. eigenvalues --   -0.72400  -0.66243  -0.63313  -0.58864  -0.56695
 Alpha  occ. eigenvalues --   -0.54217  -0.53367  -0.46891  -0.37516  -0.34502
 Alpha virt. eigenvalues --    0.02318   0.03339   0.04219   0.04396   0.05193
 Alpha virt. eigenvalues --    0.06512   0.10133   0.11433   0.12051   0.12713
 Alpha virt. eigenvalues --    0.12901   0.14127   0.14389   0.14943   0.15451

 Mulliken charges:
               1
     1  N    0.395058
     2  C   -2.278270
     3  N    0.498777
     4  C    0.960349
     5  C    0.340077
     6  C   -0.601886
     7  N    0.850832
     8  H    0.152455
     9  H    0.084078
    10  H   -0.139932
    11  H   -0.127967
    12  H   -0.133572
 Sum of Mulliken charges =   0.00000

 Dipole moment (field-independent basis, Debye):
    X=             -0.8635    Y=             -0.0262    Z=              0.0739  Tot=              0.8671

 Test job not archived.
 1\1\GINC-SE362\SP\RHF\Aug-CC-pVDZ\C4H5N3\OHZDE\09-Apr-2025\0\\#t hf au
 g-cc-pvdz iop(5/13=1,5/36=2,99/5=2) pseudo=read geom=check guess=(read
 ,tcheck) scf=(maxcycle=1)\\title\\0,1\N,0,2.41834189,-0.6122859,-0.184
 07363\C,0,0.21831154,-0.37163203,0.01404883\N,0,1.24562458,-1.15728677
 ,-0.02735159\C,0,-1.15136798,-0.80464985,0.18235935\C,0,-1.89140612,0.
 32490301,0.16442301\C,0,-0.94540092,1.41441741,-0.01470052\N,0,0.28626
 766,1.01798754,-0.10370586\H,0,2.5023535,0.38981434,-0.28939691\H,0,3.
 20469067,-1.22872774,-0.23880946\H,0,-1.47148861,-1.82916315,0.2949985

 Normal termination of Gaussian 16 at Wed Apr  9 18:41:22 2025.
