 Gaussian 16, Revision C.01,

 ----------------------------------------------------------------------
 #t hf aug-cc-pvdz symm=none int=(grid=ultrafine) guess=(read,tcheck) s
 table=(opt,rrhf)
 ----------------------------------------------------------------------
 -----
 title
 -----
 Symbolic Z-matrix:
 Charge =  0 Multiplicity = 1

 SCF Done:  E(RHF) =  -355.833676997     A.U. after   15 cycles
 Normal termination of Gaussian 16 at Wed Apr  9 03:59:13 2025.
 Gaussian 16:  ES64L-G16RevC.01  3-Jul-2019

 ----------------------------------------------------------------------
 #t hf aug-cc-pvdz iop(5/13=1,5/36=2,99/5=2) pseudo=read geom=check gue
 ss=(read,tcheck) scf=(maxcycle=1)
 ----------------------------------------------------------------------
 -----
 title
 -----
 Structure from the checkpoint file:  "Grambow2020_wb97xd3_008721_forward_mol1.chk"
 Charge =  0 Multiplicity = 1

                         Standard orientation:
 ---------------------------------------------------------------------
 Center     Atomic      Atomic             Coordinates (Angstroms)
 Number     Number       Type             X           Y           Z
 ---------------------------------------------------------------------
      1          6           0       -2.344692   -0.544881   -0.098484
      2          7           0       -1.071881   -0.823595    0.017829
      3          6           0       -0.248091    0.239414   -0.086803
      4          7           0       -0.710996    1.445445   -0.094782
      5          6           0        1.250606   -0.012987   -0.005463
      6          8           0        2.029822    0.916073    0.014578
      7          7           0        1.586399   -1.313300    0.021906
      8          1           0       -2.694046    0.178367   -0.836394
      9          1           0       -2.565491    0.712647    1.021064
     10          1           0       -3.062924   -1.275892    0.262072
     11          1           0        0.040648    2.118128    0.045236
     12          1           0       -1.939097    1.262212    0.742045
     13          1           0        0.857008   -2.002776    0.084413
     14          1           0        2.553733   -1.570390    0.094772
 ---------------------------------------------------------------------

 SCF Done:  E(RHF) =  -356.197245554     A.U. after    2 cycles

 The electronic state is 1-A.
 Alpha  occ. eigenvalues --  -20.52297 -15.53474 -15.51134 -15.50600 -11.37189
 Alpha  occ. eigenvalues --  -11.34131 -11.33195  -1.47565  -1.30736  -1.23774
 Alpha  occ. eigenvalues --   -1.18745  -0.98804  -0.88330  -0.80270  -0.79781
 Alpha  occ. eigenvalues --   -0.75108  -0.71609  -0.67137  -0.66580  -0.62036
 Alpha  occ. eigenvalues --   -0.60897  -0.54435  -0.50483  -0.45587  -0.44657
 Alpha  occ. eigenvalues --   -0.43327  -0.42134
 Alpha virt. eigenvalues --    0.02937   0.03854   0.04515   0.05737   0.05986
 Alpha virt. eigenvalues --    0.06518   0.07574   0.09200   0.09498   0.10835
 Alpha virt. eigenvalues --    0.11157   0.12051   0.12796   0.13506   0.14701

 Mulliken charges:
               1
     1  C   -0.336837
     2  N    0.909496
     3  C   -2.333053
     4  N    0.823664
     5  C    0.781210
     6  O   -1.387237
     7  N    0.764717
     8  H    0.112237
     9  H    0.095389
    10  H   -0.049873
    11  H    0.171266
    12  H    0.247453
    13  H    0.118387
    14  H    0.083181
 Sum of Mulliken charges =  -0.00000

 Dipole moment (field-independent basis, Debye):
    X=             -2.2128    Y=             -2.7084    Z=             -0.0660  Tot=              3.4981

 Test job not archived.
 1\1\GINC-SE051\SP\RHF\Aug-CC-pVDZ\C3H7N3O1\OHZDE\09-Apr-2025\0\\#t hf
 aug-cc-pvdz iop(5/13=1,5/36=2,99/5=2) pseudo=read geom=check guess=(re
 ad,tcheck) scf=(maxcycle=1)\\title\\0,1\C,0,1.72079009,0.6235317,-0.70
 663249\N,0,0.43704886,0.7415772,-0.48452613\C,0,-0.15383571,-0.3616751
 6,0.01871848\N,0,0.54648004,-1.36627874,0.4300386\C,0,-1.65543066,-0.3
 1443166,0.26243237\O,0,-2.21784719,-1.23745947,0.81237784\N,0,-2.24972
 224,0.80017119,-0.19451295\H,0,2.13415438,-0.29485511,-1.12537142\H,0,
 2.31385258,0.0406321,0.77391535\H,0,2.30476518,1.53206501,-0.82400279\

 Normal termination of Gaussian 16 at Wed Apr  9 03:59:17 2025.
