 Gaussian 16, Revision C.01,

 ----------------------------------------------------------------------
 #t hf aug-cc-pvdz symm=none int=(grid=ultrafine) guess=(read,tcheck) s
 table=(opt,rrhf)
 ----------------------------------------------------------------------
 -----
 title
 -----
 Symbolic Z-matrix:
 Charge =  0 Multiplicity = 1

 SCF Done:  E(RHF) =  -341.304653541     A.U. after   15 cycles
 Normal termination of Gaussian 16 at Wed Apr  9 04:04:00 2025.
 Gaussian 16:  ES64L-G16RevC.01  3-Jul-2019

 ----------------------------------------------------------------------
 #t hf aug-cc-pvdz iop(5/13=1,5/36=2,99/5=2) pseudo=read geom=check gue
 ss=(read,tcheck) scf=(maxcycle=1)
 ----------------------------------------------------------------------
 -----
 title
 -----
 Structure from the checkpoint file:  "Grambow2020_wb97xd3_009094_forward_mol1.chk"
 Charge =  0 Multiplicity = 1

                         Standard orientation:
 ---------------------------------------------------------------------
 Center     Atomic      Atomic             Coordinates (Angstroms)
 Number     Number       Type             X           Y           Z
 ---------------------------------------------------------------------
      1          8           0        1.716629    1.503941   -0.193564
      2          6           0        1.113939    0.542696   -0.087562
      3          6           0       -2.066772    0.977940    0.306723
      4          6           0       -1.931181   -0.224562   -0.247251
      5          6           0       -0.797055   -1.121925   -0.065949
      6          6           0        0.467785   -0.691794    0.034994
      7          8           0        1.687589   -1.138448    0.216454
      8          1           0       -1.350758    1.367038    1.022488
      9          1           0       -2.921199    1.603204    0.082162
     10          1           0       -2.724964   -0.594735   -0.890276
     11          1           0       -0.957111   -2.193573   -0.043227
 ---------------------------------------------------------------------

 SCF Done:  E(RHF) =  -341.640180871     A.U. after    2 cycles

 The electronic state is 1-A.
 Alpha  occ. eigenvalues --  -20.67846 -20.54393 -11.47676 -11.36001 -11.27348
 Alpha  occ. eigenvalues --  -11.27279 -11.25882  -1.62949  -1.47339  -1.12550
 Alpha  occ. eigenvalues --   -1.02652  -0.95276  -0.83431  -0.79550  -0.70387
 Alpha  occ. eigenvalues --   -0.69895  -0.68625  -0.67677  -0.62539  -0.59316
 Alpha  occ. eigenvalues --   -0.55860  -0.54056  -0.43837  -0.42960  -0.33061
 Alpha virt. eigenvalues --    0.03024   0.03407   0.03770   0.04557   0.06170
 Alpha virt. eigenvalues --    0.07230   0.08967   0.10630   0.10954   0.11869
 Alpha virt. eigenvalues --    0.12686   0.13005   0.14195   0.14743   0.14971

 Mulliken charges:
               1
     1  O   -0.824641
     2  C    0.527340
     3  C   -0.139359
     4  C    0.571647
     5  C    0.169415
     6  C    1.627232
     7  O   -1.396497
     8  H   -0.077365
     9  H   -0.116234
    10  H   -0.152217
    11  H   -0.189322
 Sum of Mulliken charges =  -0.00000

 Dipole moment (field-independent basis, Debye):
    X=             -2.8806    Y=              1.3036    Z=             -0.4923  Tot=              3.1999

 Test job not archived.
 1\1\GINC-SE090\SP\RHF\Aug-CC-pVDZ\C5H4O2\OHZDE\09-Apr-2025\0\\#t hf au
 g-cc-pvdz iop(5/13=1,5/36=2,99/5=2) pseudo=read geom=check guess=(read
 ,tcheck) scf=(maxcycle=1)\\title\\0,1\O,0,-0.09138252,2.8270131,-0.366
 54335\C,0,0.40274814,1.85073565,-0.0484549\C,0,-1.52610166,-0.74284729
 ,-0.16965429\C,0,-0.28711821,-1.20494216,-0.32022683\C,0,0.9168531,-0.
 61306099,0.24942339\C,0,1.09957992,0.70943336,0.36185771\O,0,1.9668273
 7,1.58696774,0.80701433\H,0,-1.75288155,0.0996963,0.47461603\H,0,-2.36
 292918,-1.21589539,-0.6670198\H,0,-0.13441551,-2.10454231,-0.91014297\

 Normal termination of Gaussian 16 at Wed Apr  9 04:04:04 2025.
