 Gaussian 16, Revision C.01,

 ----------------------------------------------------------------------
 #t hf aug-cc-pvdz symm=none int=(grid=ultrafine) guess=(read,tcheck) s
 table=(opt,rrhf)
 ----------------------------------------------------------------------
 -----
 title
 -----
 Symbolic Z-matrix:
 Charge =  0 Multiplicity = 1

 SCF Done:  E(RHF) =  -321.318616479     A.U. after   20 cycles
 Normal termination of Gaussian 16 at Wed Apr  9 18:22:07 2025.
 Gaussian 16:  ES64L-G16RevC.01  3-Jul-2019

 ----------------------------------------------------------------------
 #t hf aug-cc-pvdz iop(5/13=1,5/36=2,99/5=2) pseudo=read geom=check gue
 ss=(read,tcheck) scf=(maxcycle=1)
 ----------------------------------------------------------------------
 -----
 title
 -----
 Structure from the checkpoint file:  "Grambow2020_wb97xd3_007495_forward_mol1.chk"
 Charge =  0 Multiplicity = 1

                         Standard orientation:
 ---------------------------------------------------------------------
 Center     Atomic      Atomic             Coordinates (Angstroms)
 Number     Number       Type             X           Y           Z
 ---------------------------------------------------------------------
      1          8           0       -0.144843    2.004359   -0.167937
      2          6           0       -0.098719    0.868385    0.124101
      3          6           0       -1.226122   -0.229306    0.003327
      4          6           0       -2.401622   -0.567732    0.020174
      5          6           0        1.009721   -0.198146    0.459373
      6          6           0        0.230813   -1.301792   -0.222434
      7          7           0        2.252886   -0.357395   -0.060743
      8          1           0       -3.413542   -0.904009    0.042271
      9          1           0        0.979120   -0.328057    1.549200
     10          1           0        0.304241   -1.315399   -1.306613
     11          1           0        0.208513   -2.288895    0.230639
     12          1           0        2.225789   -0.125198   -1.054047
 ---------------------------------------------------------------------

 SCF Done:  E(RHF) =  -321.636392428     A.U. after    2 cycles

 The electronic state is 1-A.
 Alpha  occ. eigenvalues --  -20.58889 -15.48668 -11.38823 -11.32762 -11.30772
 Alpha  occ. eigenvalues --  -11.30122 -11.29343  -1.53336  -1.21837  -1.10719
 Alpha  occ. eigenvalues --   -1.01703  -0.90961  -0.82823  -0.77139  -0.71885
 Alpha  occ. eigenvalues --   -0.69865  -0.67054  -0.61363  -0.58607  -0.56584
 Alpha  occ. eigenvalues --   -0.53453  -0.49224  -0.45216  -0.42104  -0.31892
 Alpha virt. eigenvalues --   -0.01985   0.02223   0.03689   0.04164   0.04866
 Alpha virt. eigenvalues --    0.06214   0.07358   0.08980   0.09244   0.09867
 Alpha virt. eigenvalues --    0.10354   0.11979   0.13364   0.14322   0.14466

 Mulliken charges:
               1
     1  O   -1.242125
     2  C    1.231509
     3  C    0.746706
     4  C   -0.022446
     5  C   -1.618034
     6  C    0.078988
     7  N    0.681343
     8  H   -0.370595
     9  H    0.104672
    10  H    0.150637
    11  H    0.008921
    12  H    0.250424
 Sum of Mulliken charges =  -0.00000

 Dipole moment (field-independent basis, Debye):
    X=             -5.8047    Y=             -2.9675    Z=             -0.3584  Tot=              6.5290

 Test job not archived.
 1\1\GINC-SE174\SP\RHF\Aug-CC-pVDZ\C5H5N1O1\OHZDE\09-Apr-2025\0\\#t hf
 aug-cc-pvdz iop(5/13=1,5/36=2,99/5=2) pseudo=read geom=check guess=(re
 ad,tcheck) scf=(maxcycle=1)\\title\\0,1\O,0,0.74764752,1.10940111,2.01
 093934\C,0,0.4795414,0.75967675,0.92297606\C,0,1.18395293,-0.34002718,
 0.03697053\C,0,2.17785892,-0.95931654,-0.31693411\C,0,-0.73439257,0.89
 134669,-0.07078524\C,0,-0.51125118,-0.50326651,-0.61378924\N,0,-2.0684
 7028,0.89530732,0.1773293\H,0,3.02340175,-1.50998755,-0.66243544\H,0,-
 0.43235946,1.64167761,-0.8132927\H,0,-0.89004767,-1.30720512,0.0116833

 Normal termination of Gaussian 16 at Wed Apr  9 18:22:12 2025.
