 Gaussian 16, Revision C.01,

 ----------------------------------------------------------------------
 #t hf aug-cc-pvdz symm=none int=(grid=ultrafine) guess=(read,tcheck) s
 table=(opt,rrhf)
 ----------------------------------------------------------------------
 -----
 title
 -----
 Symbolic Z-matrix:
 Charge =  0 Multiplicity = 1

 SCF Done:  E(RHF) =  -304.597516313     A.U. after   16 cycles
 Normal termination of Gaussian 16 at Wed Apr  9 03:14:51 2025.
 Gaussian 16:  ES64L-G16RevC.01  3-Jul-2019

 ----------------------------------------------------------------------
 #t hf aug-cc-pvdz iop(5/13=1,5/36=2,99/5=2) pseudo=read geom=check gue
 ss=(read,tcheck) scf=(maxcycle=1)
 ----------------------------------------------------------------------
 -----
 title
 -----
 Structure from the checkpoint file:  "Grambow2020_b97d3_006932_reverse_mol2.chk"
 Charge =  0 Multiplicity = 1

                         Standard orientation:
 ---------------------------------------------------------------------
 Center     Atomic      Atomic             Coordinates (Angstroms)
 Number     Number       Type             X           Y           Z
 ---------------------------------------------------------------------
      1          8           0        2.600479   -0.391931   -0.706443
      2          6           0        1.682073   -0.193512    0.006252
      3          6           0       -2.722706   -0.146925   -0.443712
      4          6           0       -1.493385    0.277850   -0.128150
      5          8           0       -0.586437   -0.557299    0.505085
      6          6           0        0.647003    0.017524    0.817163
      7          1           0        1.070386    3.677303   -0.159861
      8          1           0       -3.415369    0.530647   -0.936493
      9          1           0       -3.050260   -1.160598   -0.220475
     10          1           0       -1.123644    1.282198   -0.341541
     11          1           0        0.765688    0.574829    1.744885
     12          1           0        0.962955    2.959834    0.015036
 ---------------------------------------------------------------------

 SCF Done:  E(RHF) =  -304.902896614     A.U. after    2 cycles

 The electronic state is 1-A.
 Alpha  occ. eigenvalues --  -20.63361 -20.60302 -11.40846 -11.32229 -11.31720
 Alpha  occ. eigenvalues --  -11.23980  -1.55665  -1.51644  -1.07942  -1.01527
 Alpha  occ. eigenvalues --   -0.82229  -0.78475  -0.73341  -0.72089  -0.66520
 Alpha  occ. eigenvalues --   -0.63636  -0.60685  -0.60292  -0.57671  -0.55894
 Alpha  occ. eigenvalues --   -0.53936  -0.37262  -0.36271
 Alpha virt. eigenvalues --    0.03651   0.04104   0.04659   0.05944   0.06829
 Alpha virt. eigenvalues --    0.06985   0.09040   0.09650   0.10498   0.11124
 Alpha virt. eigenvalues --    0.12369   0.12860   0.13362   0.13997   0.14927

 Mulliken charges:
               1
     1  O   -0.824481
     2  C    0.283265
     3  C   -0.170823
     4  C    1.098571
     5  O   -1.497964
     6  C    1.233100
     7  H    0.048843
     8  H   -0.036771
     9  H   -0.083687
    10  H   -0.059388
    11  H    0.067910
    12  H   -0.058574
 Sum of Mulliken charges =  -0.00000

 Dipole moment (field-independent basis, Debye):
    X=             -0.6112    Y=              1.4521    Z=              0.7551  Tot=              1.7471

 Test job not archived.
 1\1\GINC-SE284\SP\RHF\Aug-CC-pVDZ\C4H6O2\OHZDE\09-Apr-2025\0\\#t hf au
 g-cc-pvdz iop(5/13=1,5/36=2,99/5=2) pseudo=read geom=check guess=(read
 ,tcheck) scf=(maxcycle=1)\\title\\0,1\O,0,1.20838226,-2.90487934,0.644
 01312\C,0,1.12890345,-1.73281544,0.74755755\C,0,-2.09935594,1.27016573
 ,0.33870539\C,0,-0.92000377,0.66776596,0.14508983\O,0,-0.19277276,0.15
 615512,1.20829352\C,0,1.03991599,-0.41058025,0.87893382\H,0,1.97409413
 ,-0.32714954,-2.81540824\H,0,-2.6467519,1.66610267,-0.51294636\H,0,-2.
 52992834,1.37393787,1.3329377\H,0,-0.45802182,0.53621003,-0.83481985\H

 Normal termination of Gaussian 16 at Wed Apr  9 03:14:55 2025.
