 Gaussian 16, Revision C.01,

 ----------------------------------------------------------------------
 #t hf aug-cc-pvdz symm=none int=(grid=ultrafine) guess=(read,tcheck) s
 table=(opt,rrhf)
 ----------------------------------------------------------------------
 -----
 title
 -----
 Symbolic Z-matrix:
 Charge =  0 Multiplicity = 1

 SCF Done:  E(RHF) =  -338.665658954     A.U. after   15 cycles
 Normal termination of Gaussian 16 at Wed Apr  9 17:49:48 2025.
 Gaussian 16:  ES64L-G16RevC.01  3-Jul-2019

 ----------------------------------------------------------------------
 #t hf aug-cc-pvdz iop(5/13=1,5/36=2,99/5=2) pseudo=read geom=check gue
 ss=(read,tcheck) scf=(maxcycle=1)
 ----------------------------------------------------------------------
 -----
 title
 -----
 Structure from the checkpoint file:  "Grambow2020_wb97xd3_006841_reverse_mol1.chk"
 Charge =  0 Multiplicity = 1

                         Standard orientation:
 ---------------------------------------------------------------------
 Center     Atomic      Atomic             Coordinates (Angstroms)
 Number     Number       Type             X           Y           Z
 ---------------------------------------------------------------------
      1          7           0       -2.438542   -0.525503    0.090418
      2          6           0       -1.115830   -0.122206    0.007092
      3          6           0       -0.655252    1.197788    0.002137
      4          7           0        0.813769    1.188483   -0.090994
      5          6           0        1.120683   -0.108225   -0.044986
      6          8           0        2.425779   -0.449582    0.013692
      7          6           0        0.010301   -0.948250   -0.023178
      8          1           0       -3.110451    0.141999   -0.248320
      9          1           0       -2.623018   -1.453553   -0.249728
     10          1           0       -1.175846    2.098111   -0.285480
     11          1           0        0.201101    1.486382    0.933249
     12          1           0        2.497691   -1.402929    0.081986
     13          1           0        0.018290   -2.028853    0.016404
 ---------------------------------------------------------------------

 SCF Done:  E(RHF) =  -339.015237148     A.U. after    2 cycles

 The electronic state is 1-A.
 Alpha  occ. eigenvalues --  -20.58185 -15.51901 -15.50842 -11.32622 -11.28961
 Alpha  occ. eigenvalues --  -11.25723 -11.22851  -1.50327  -1.28693  -1.21875
 Alpha  occ. eigenvalues --   -1.03918  -0.98074  -0.83187  -0.79936  -0.75440
 Alpha  occ. eigenvalues --   -0.71879  -0.67833  -0.67457  -0.61263  -0.57691
 Alpha  occ. eigenvalues --   -0.56643  -0.54700  -0.52734  -0.49180  -0.36559
 Alpha  occ. eigenvalues --   -0.31494
 Alpha virt. eigenvalues --    0.02635   0.03556   0.04478   0.05632   0.06090
 Alpha virt. eigenvalues --    0.07705   0.09626   0.11003   0.11408   0.12104
 Alpha virt. eigenvalues --    0.12825   0.13131   0.14259   0.14321   0.15652

 Mulliken charges:
               1
     1  N    0.702275
     2  C   -0.957334
     3  C   -0.485294
     4  N    0.693414
     5  C    0.049776
     6  O   -1.554327
     7  C    0.827726
     8  H    0.053398
     9  H    0.045849
    10  H   -0.175973
    11  H    0.712902
    12  H    0.287683
    13  H   -0.200096
 Sum of Mulliken charges =  -0.00000

 Dipole moment (field-independent basis, Debye):
    X=             -2.7417    Y=             -2.8300    Z=             -0.2134  Tot=              3.9461

 Test job not archived.
 1\1\GINC-SE340\SP\RHF\Aug-CC-pVDZ\C4H6N2O1\OHZDE\09-Apr-2025\0\\#t hf
 aug-cc-pvdz iop(5/13=1,5/36=2,99/5=2) pseudo=read geom=check guess=(re
 ad,tcheck) scf=(maxcycle=1)\\title\\0,1\N,0,-2.06010941,0.51094332,-0.
 50910678\C,0,-0.79239799,0.07128945,-0.16447218\C,0,-0.36714281,-1.259
 51328,-0.11287632\N,0,1.04890871,-1.29101133,0.28785989\C,0,1.38192919
 ,-0.00179106,0.35692706\O,0,2.67586659,0.30774543,0.58748714\C,0,0.316
 57859,0.866701,0.13373336\H,0,-2.80036236,-0.1500473,-0.34514952\H,0,-
 2.29557106,1.43153799,-0.18036589\H,0,-0.95291363,-2.15529131,0.024150

 Normal termination of Gaussian 16 at Wed Apr  9 17:49:52 2025.
