 Gaussian 16, Revision C.01,

 ----------------------------------------------------------------------
 #t hf aug-cc-pvdz symm=none int=(grid=ultrafine) guess=(read,tcheck) s
 table=(opt,rrhf)
 ----------------------------------------------------------------------
 -----
 title
 -----
 Symbolic Z-matrix:
 Charge =  0 Multiplicity = 1

 SCF Done:  E(RHF) =  -338.652750401     A.U. after   15 cycles
 Normal termination of Gaussian 16 at Wed Apr  9 03:40:24 2025.
 Gaussian 16:  ES64L-G16RevC.01  3-Jul-2019

 ----------------------------------------------------------------------
 #t hf aug-cc-pvdz iop(5/13=1,5/36=2,99/5=2) pseudo=read geom=check gue
 ss=(read,tcheck) scf=(maxcycle=1)
 ----------------------------------------------------------------------
 -----
 title
 -----
 Structure from the checkpoint file:  "Grambow2020_wb97xd3_007476_forward_mol1.chk"
 Charge =  0 Multiplicity = 1

                         Standard orientation:
 ---------------------------------------------------------------------
 Center     Atomic      Atomic             Coordinates (Angstroms)
 Number     Number       Type             X           Y           Z
 ---------------------------------------------------------------------
      1          6           0       -2.434692   -0.345282   -0.052552
      2          8           0       -1.458023    0.675235    0.086851
      3          6           0       -0.181232    0.287933   -0.011063
      4          6           0        0.929028    1.128878   -0.028877
      5          7           0        2.051195    0.406444   -0.018722
      6          6           0        1.650004   -0.864479   -0.012177
      7          7           0        0.214389   -0.993650   -0.052934
      8          1           0       -2.321668   -0.863696   -1.007477
      9          1           0       -3.399640    0.154647   -0.010220
     10          1           0       -2.359250   -1.075522    0.756057
     11          1           0        0.933920    2.208858   -0.015552
     12          1           0        2.267912   -1.714142   -0.261893
     13          1           0        0.905171   -1.243882    0.973881
 ---------------------------------------------------------------------

 SCF Done:  E(RHF) =  -338.999482490     A.U. after    2 cycles

 The electronic state is 1-A.
 Alpha  occ. eigenvalues --  -20.58294 -15.55331 -15.51418 -11.32875 -11.31258
 Alpha  occ. eigenvalues --  -11.29782 -11.27170  -1.51947  -1.35280  -1.18836
 Alpha  occ. eigenvalues --   -1.03714  -0.95523  -0.85933  -0.81401  -0.75507
 Alpha  occ. eigenvalues --   -0.70879  -0.67320  -0.64139  -0.63176  -0.60829
 Alpha  occ. eigenvalues --   -0.54836  -0.52416  -0.50673  -0.49302  -0.46802
 Alpha  occ. eigenvalues --   -0.33948
 Alpha virt. eigenvalues --    0.03283   0.04211   0.04646   0.05070   0.05670
 Alpha virt. eigenvalues --    0.06676   0.08938   0.09022   0.09524   0.11055
 Alpha virt. eigenvalues --    0.11773   0.13553   0.14520   0.14825   0.15493

 Mulliken charges:
               1
     1  C    0.182166
     2  O   -1.479155
     3  C    0.603125
     4  C   -0.402601
     5  N    0.750995
     6  C   -1.065427
     7  N    0.562529
     8  H    0.195338
     9  H   -0.020751
    10  H    0.182801
    11  H   -0.097248
    12  H   -0.100823
    13  H    0.689051
 Sum of Mulliken charges =  -0.00000

 Dipole moment (field-independent basis, Debye):
    X=             -1.9211    Y=             -1.2090    Z=              0.5840  Tot=              2.3438

 Test job not archived.
 1\1\GINC-SE073\SP\RHF\Aug-CC-pVDZ\C4H6N2O1\OHZDE\09-Apr-2025\0\\#t hf
 aug-cc-pvdz iop(5/13=1,5/36=2,99/5=2) pseudo=read geom=check guess=(re
 ad,tcheck) scf=(maxcycle=1)\\title\\0,1\C,0,-2.10769442,-0.70444329,-0
 .23317896\O,0,-1.39463811,0.49684126,0.01829103\C,0,-0.06001352,0.4064
 9177,-0.00168353\C,0,0.83293,1.47108912,0.09561908\N,0,2.08538869,1.01
 429148,0.15850614\C,0,1.97901353,-0.31214419,0.0843869\N,0,0.61404923,
 -0.75203714,-0.06628954\H,0,-1.82239579,-1.131261,-1.19746145\H,0,-3.1
 6072996,-0.43260086,-0.24126835\H,0,-1.92129259,-1.44392805,0.54861831

 Normal termination of Gaussian 16 at Wed Apr  9 03:40:28 2025.
