 Gaussian 16, Revision C.01,

 ----------------------------------------------------------------------
 #t hf aug-cc-pvdz symm=none int=(grid=ultrafine) guess=(read,tcheck) s
 table=(opt,rrhf)
 ----------------------------------------------------------------------
 -----
 title
 -----
 Symbolic Z-matrix:
 Charge =  0 Multiplicity = 1

 SCF Done:  E(RHF) =  -286.716191339     A.U. after   16 cycles
 Normal termination of Gaussian 16 at Wed Apr  9 18:30:35 2025.
 Gaussian 16:  ES64L-G16RevC.01  3-Jul-2019

 ----------------------------------------------------------------------
 #t hf aug-cc-pvdz iop(5/13=1,5/36=2,99/5=2) pseudo=read geom=check gue
 ss=(read,tcheck) scf=(maxcycle=1)
 ----------------------------------------------------------------------
 -----
 title
 -----
 Structure from the checkpoint file:  "Grambow2020_wb97xd3_007642_reverse_mol1.chk"
 Charge =  0 Multiplicity = 1

                         Standard orientation:
 ---------------------------------------------------------------------
 Center     Atomic      Atomic             Coordinates (Angstroms)
 Number     Number       Type             X           Y           Z
 ---------------------------------------------------------------------
      1          6           0        1.989867   -0.700561    0.298239
      2          6           0        0.816486   -0.024191   -0.330173
      3          6           0        0.816621    1.273754   -0.666374
      4          6           0       -0.547517    0.847497    1.301374
      5          6           0       -1.289388   -0.284119    0.640252
      6          7           0       -1.703602   -0.290965   -0.757463
      7          6           0       -0.421446   -0.869684   -0.401882
      8          1           0        1.690422   -1.178263    1.232699
      9          1           0        2.799280   -0.001821    0.501702
     10          1           0        2.358795   -1.481958   -0.372474
     11          1           0        1.672721    1.895984   -0.441450
     12          1           0        0.009827    1.740563   -1.215256
     13          1           0       -0.988935    1.811433    0.991516
     14          1           0       -1.880266   -0.894596    1.318156
     15          1           0       -1.623261    0.622267   -1.187824
     16          1           0       -0.301109   -1.933028   -0.573450
 ---------------------------------------------------------------------

 SCF Done:  E(RHF) =  -287.019719608     A.U. after    2 cycles

 The electronic state is 1-A.
 Alpha  occ. eigenvalues --  -15.50644 -11.28280 -11.27706 -11.27476 -11.27174
 Alpha  occ. eigenvalues --  -11.25025 -11.24329  -1.29147  -1.10663  -0.96977
 Alpha  occ. eigenvalues --   -0.96072  -0.90732  -0.81514  -0.73917  -0.69780
 Alpha  occ. eigenvalues --   -0.68280  -0.62451  -0.60797  -0.58887  -0.55100
 Alpha  occ. eigenvalues --   -0.53228  -0.50961  -0.48063  -0.47624  -0.37052
 Alpha  occ. eigenvalues --   -0.35050
 Alpha virt. eigenvalues --    0.03481   0.03670   0.03957   0.04495   0.05415
 Alpha virt. eigenvalues --    0.05825   0.06445   0.06832   0.08768   0.09313
 Alpha virt. eigenvalues --    0.09609   0.11656   0.12790   0.13551   0.14141

 Mulliken charges:
               1
     1  C   -0.697718
     2  C    0.216876
     3  C    0.328138
     4  C   -0.286074
     5  C    0.104499
     6  N    0.702710
     7  C   -0.765469
     8  H    0.265650
     9  H    0.130006
    10  H    0.263213
    11  H   -0.154578
    12  H   -0.259043
    13  H    0.151199
    14  H   -0.101928
    15  H    0.313961
    16  H   -0.211441
 Sum of Mulliken charges =  -0.00000

 Dipole moment (field-independent basis, Debye):
    X=              1.4181    Y=              0.2359    Z=             -0.9138  Tot=              1.7035

 Test job not archived.
 1\1\GINC-SE028\SP\RHF\Aug-CC-pVDZ\C6H9N1\OHZDE\09-Apr-2025\0\\#t hf au
 g-cc-pvdz iop(5/13=1,5/36=2,99/5=2) pseudo=read geom=check guess=(read
 ,tcheck) scf=(maxcycle=1)\\title\\0,1\C,0,1.56673283,-0.70415004,0.896
 3137\C,0,0.58495792,-0.3442592,-0.16942319\C,0,0.87054506,0.50365336,-
 1.16801075\C,0,-0.6202561,1.50453729,0.47221545\C,0,-1.56073855,0.3284
 7074,0.45300353\N,0,-1.91831966,-0.41958579,-0.74606903\C,0,-0.8002170
 4,-0.87502716,0.05872799\H,0,1.14101731,-0.50303157,1.88089461\H,0,2.4
 9776667,-0.14971523,0.79354172\H,0,1.78557941,-1.7744164,0.83990794\H,

 Normal termination of Gaussian 16 at Wed Apr  9 18:30:41 2025.
