 Gaussian 16, Revision C.01,

 ----------------------------------------------------------------------
 #t hf aug-cc-pvdz symm=none int=(grid=ultrafine) guess=(read,tcheck) s
 table=(opt,rrhf)
 ----------------------------------------------------------------------
 -----
 title
 -----
 Symbolic Z-matrix:
 Charge =  0 Multiplicity = 1

 SCF Done:  E(RHF) =  -302.799937410     A.U. after   14 cycles
 Normal termination of Gaussian 16 at Wed Apr  9 18:15:17 2025.
 Gaussian 16:  ES64L-G16RevC.01  3-Jul-2019

 ----------------------------------------------------------------------
 #t hf aug-cc-pvdz iop(5/13=1,5/36=2,99/5=2) pseudo=read geom=check gue
 ss=(read,tcheck) scf=(maxcycle=1)
 ----------------------------------------------------------------------
 -----
 title
 -----
 Structure from the checkpoint file:  "Grambow2020_wb97xd3_007243_reverse_mol2.chk"
 Charge =  0 Multiplicity = 1

                         Standard orientation:
 ---------------------------------------------------------------------
 Center     Atomic      Atomic             Coordinates (Angstroms)
 Number     Number       Type             X           Y           Z
 ---------------------------------------------------------------------
      1          6           0       -2.221742   -0.595671    0.439149
      2          7           0       -1.114445   -0.120298   -0.417631
      3          6           0       -0.623342    1.224058   -0.077994
      4          7           0        0.614075    1.208340    0.135727
      5          6           0        1.061814   -0.146963   -0.038622
      6          6           0        2.511154   -0.422696    0.170707
      7          6           0        0.103671   -1.043594   -0.363994
      8          1           0       -2.474731   -1.606883    0.132445
      9          1           0       -1.865183   -0.611472    1.466685
     10          1           0       -3.083259    0.066333    0.345842
     11          1           0       -1.301086    2.066461   -0.029981
     12          1           0        3.126476    0.149986   -0.527194
     13          1           0        2.821868   -0.148227    1.181744
     14          1           0        2.706033   -1.483296    0.019926
     15          1           0       -1.416855   -0.140002   -1.391609
 ---------------------------------------------------------------------

 SCF Done:  E(RHF) =  -303.118075045     A.U. after    2 cycles

 The electronic state is 1-A.
 Alpha  occ. eigenvalues --  -15.61514 -15.52365 -11.32023 -11.30689 -11.23116
 Alpha  occ. eigenvalues --  -11.20955 -11.20627  -1.35378  -1.22923  -1.03589
 Alpha  occ. eigenvalues --   -0.99368  -0.92518  -0.85752  -0.78878  -0.75982
 Alpha  occ. eigenvalues --   -0.71236  -0.65524  -0.60549  -0.59546  -0.56778
 Alpha  occ. eigenvalues --   -0.53446  -0.53003  -0.51005  -0.49662  -0.35033
 Alpha  occ. eigenvalues --   -0.32104
 Alpha virt. eigenvalues --    0.02169   0.03773   0.03902   0.04782   0.05671
 Alpha virt. eigenvalues --    0.05974   0.06580   0.07184   0.08270   0.10168
 Alpha virt. eigenvalues --    0.11182   0.11715   0.12171   0.13526   0.14412

 Mulliken charges:
               1
     1  C   -0.268923
     2  N    0.232878
     3  C   -1.182515
     4  N    1.034957
     5  C   -0.341849
     6  C   -0.342323
     7  C   -0.747731
     8  H    0.130712
     9  H    0.306713
    10  H    0.099189
    11  H   -0.092312
    12  H    0.222333
    13  H    0.208500
    14  H    0.206047
    15  H    0.534324
 Sum of Mulliken charges =  -0.00000

 Dipole moment (field-independent basis, Debye):
    X=             -5.0959    Y=              1.8851    Z=             -0.1862  Tot=              5.4366

 Test job not archived.
 1\1\GINC-SE116\SP\RHF\Aug-CC-pVDZ\C5H8N2\OHZDE\09-Apr-2025\0\\#t hf au
 g-cc-pvdz iop(5/13=1,5/36=2,99/5=2) pseudo=read geom=check guess=(read
 ,tcheck) scf=(maxcycle=1)\\title\\0,1\C,0,-2.16230396,-0.08217862,-0.5
 5946844\N,0,-1.009298,0.54091577,0.12499466\C,0,-0.56330957,-0.1761171
 8,1.32948012\N,0,0.65760657,-0.46068566,1.25525307\C,0,1.13771931,0.03
 716743,-0.00544048\C,0,2.57458692,-0.18830662,-0.32948941\C,0,0.217547
 25,0.6528667,-0.78135809\H,0,-2.37827823,0.49860602,-1.45202945\H,0,-1
 .87337928,-1.09010563,-0.84898677\H,0,-3.0265259,-0.11049965,0.1049745

 Normal termination of Gaussian 16 at Wed Apr  9 18:15:22 2025.
