 Gaussian 16, Revision C.01,

 ----------------------------------------------------------------------
 #t hf aug-cc-pvdz symm=none int=(grid=ultrafine) guess=(read,tcheck) s
 table=(opt,rrhf)
 ----------------------------------------------------------------------
 -----
 title
 -----
 Symbolic Z-matrix:
 Charge =  0 Multiplicity = 1

 SCF Done:  E(RHF) =  -320.324934349     A.U. after   15 cycles
 Normal termination of Gaussian 16 at Wed Apr  9 18:30:06 2025.
 Gaussian 16:  ES64L-G16RevC.01  3-Jul-2019

 ----------------------------------------------------------------------
 #t hf aug-cc-pvdz iop(5/13=1,5/36=2,99/5=2) pseudo=read geom=check gue
 ss=(read,tcheck) scf=(maxcycle=1)
 ----------------------------------------------------------------------
 -----
 title
 -----
 Structure from the checkpoint file:  "Grambow2020_wb97xd3_007652_reverse_mol2.chk"
 Charge =  0 Multiplicity = 1

                         Standard orientation:
 ---------------------------------------------------------------------
 Center     Atomic      Atomic             Coordinates (Angstroms)
 Number     Number       Type             X           Y           Z
 ---------------------------------------------------------------------
      1          7           0        2.578575   -0.617165   -0.001523
      2          6           0        1.480317   -0.282766   -0.000614
      3          6           0        0.081149    0.109607    0.000173
      4          6           0       -0.891722   -1.040578    0.002973
      5          8           0       -2.078794   -0.881020   -0.003234
      6          6           0       -0.333517    1.414751    0.637523
      7          6           0       -0.334534    1.414786   -0.636211
      8          1           0       -0.437573   -2.050096    0.011880
      9          1           0       -0.496214    1.861309    1.600857
     10          1           0       -0.496035    1.862293   -1.599270
 ---------------------------------------------------------------------

 SCF Done:  E(RHF) =  -320.639767007     A.U. after    2 cycles

 The electronic state is 1-A.
 Alpha  occ. eigenvalues --  -20.56744 -15.52307 -11.36484 -11.32985 -11.31540
 Alpha  occ. eigenvalues --  -11.31290 -11.28885  -1.50420  -1.25888  -1.22983
 Alpha  occ. eigenvalues --   -0.99821  -0.84421  -0.83069  -0.77519  -0.73760
 Alpha  occ. eigenvalues --   -0.66638  -0.62444  -0.59262  -0.59194  -0.53975
 Alpha  occ. eigenvalues --   -0.52159  -0.46461  -0.45250  -0.42930
 Alpha virt. eigenvalues --    0.02786   0.03050   0.04404   0.06939   0.07168
 Alpha virt. eigenvalues --    0.07860   0.08042   0.09832   0.09893   0.11193
 Alpha virt. eigenvalues --    0.12490   0.13475   0.14453   0.14697   0.15087

 Mulliken charges:
               1
     1  N    1.002250
     2  C   -2.371433
     3  C    0.803802
     4  C    1.146285
     5  O   -1.193483
     6  C    0.465853
     7  C    0.466501
     8  H    0.115001
     9  H   -0.217604
    10  H   -0.217174
 Sum of Mulliken charges =  -0.00000

 Dipole moment (field-independent basis, Debye):
    X=             -2.0608    Y=              2.6376    Z=              0.0169  Tot=              3.3473

 Test job not archived.
 1\1\GINC-SE117\SP\RHF\Aug-CC-pVDZ\C5H3N1O1\OHZDE\09-Apr-2025\0\\#t hf
 aug-cc-pvdz iop(5/13=1,5/36=2,99/5=2) pseudo=read geom=check guess=(re
 ad,tcheck) scf=(maxcycle=1)\\title\\0,1\N,0,2.32015402,-0.06378234,-1.
 58667601\C,0,1.37676798,-0.04258605,-0.93279039\C,0,0.18998909,0.01428
 032,-0.09615928\C,0,-0.00674506,1.32307534,0.62339798\O,0,-0.93328624,
 1.52344228,1.35552598\C,0,-1.02508572,-0.80693714,-0.45776698\C,0,-0.3
 5148166,-1.24985154,0.52837956\H,0,0.76395114,2.09416195,0.43127506\H,
 0,-1.85046024,-0.82256814,-1.14508687\H,0,-0.15651631,-1.93693869,1.33

 Normal termination of Gaussian 16 at Wed Apr  9 18:30:10 2025.
