 Gaussian 16, Revision C.01,

 ----------------------------------------------------------------------
 #t hf aug-cc-pvdz symm=none int=(grid=ultrafine) guess=(read,tcheck) s
 table=(opt,rrhf)
 ----------------------------------------------------------------------
 -----
 title
 -----
 Symbolic Z-matrix:
 Charge =  0 Multiplicity = 1

 SCF Done:  E(RHF) =  -286.706335928     A.U. after   15 cycles
 Normal termination of Gaussian 16 at Wed Apr  9 19:07:05 2025.
 Gaussian 16:  ES64L-G16RevC.01  3-Jul-2019

 ----------------------------------------------------------------------
 #t hf aug-cc-pvdz iop(5/13=1,5/36=2,99/5=2) pseudo=read geom=check gue
 ss=(read,tcheck) scf=(maxcycle=1)
 ----------------------------------------------------------------------
 -----
 title
 -----
 Structure from the checkpoint file:  "Grambow2020_wb97xd3_008596_reverse_mol1.chk"
 Charge =  0 Multiplicity = 1

                         Standard orientation:
 ---------------------------------------------------------------------
 Center     Atomic      Atomic             Coordinates (Angstroms)
 Number     Number       Type             X           Y           Z
 ---------------------------------------------------------------------
      1          6           0       -1.729145    0.271508    0.160668
      2          6           0       -0.827009    0.299682   -1.013620
      3          6           0        0.594477    0.767276   -0.683287
      4          6           0        1.349462   -0.587746   -0.554454
      5          6           0        0.522720   -0.667256    0.750686
      6          6           0        0.757207    0.849980    0.851917
      7          7           0       -0.856409   -0.911754    0.251609
      8          1           0       -2.766426    0.000097   -0.009760
      9          1           0       -1.615710    0.970492    0.976370
     10          1           0       -0.833819   -1.075512   -0.909366
     11          1           0        0.963930    1.547483   -1.345372
     12          1           0        1.158249   -1.347922   -1.313685
     13          1           0        2.419320   -0.478173   -0.379687
     14          1           0        0.765472   -1.354742    1.558841
     15          1           0        0.106557    1.476459    1.457643
     16          1           0        1.791022    1.043437    1.132294
 ---------------------------------------------------------------------

 SCF Done:  E(RHF) =  -287.012187967     A.U. after    2 cycles

 The electronic state is 1-A.
 Alpha  occ. eigenvalues --  -15.54240 -11.28259 -11.26661 -11.24757 -11.24556
 Alpha  occ. eigenvalues --  -11.24329 -11.23825  -1.30683  -1.13212  -0.98947
 Alpha  occ. eigenvalues --   -0.92958  -0.86838  -0.79650  -0.76640  -0.70471
 Alpha  occ. eigenvalues --   -0.69361  -0.65196  -0.57252  -0.54761  -0.54537
 Alpha  occ. eigenvalues --   -0.52225  -0.50402  -0.47346  -0.46874  -0.42451
 Alpha  occ. eigenvalues --   -0.33604
 Alpha virt. eigenvalues --    0.03398   0.03708   0.03829   0.04346   0.05530
 Alpha virt. eigenvalues --    0.05733   0.06246   0.08565   0.09532   0.09794
 Alpha virt. eigenvalues --    0.10274   0.12410   0.13105   0.13528   0.14462

 Mulliken charges:
               1
     1  C    0.171402
     2  C   -0.705373
     3  C    0.241099
     4  C    0.207109
     5  C   -0.798161
     6  C    0.414616
     7  N    0.489207
     8  H   -0.087609
     9  H   -0.038497
    10  H    0.601825
    11  H   -0.068002
    12  H   -0.000201
    13  H   -0.111431
    14  H   -0.174650
    15  H   -0.047207
    16  H   -0.094126
 Sum of Mulliken charges =   0.00000

 Dipole moment (field-independent basis, Debye):
    X=              1.4765    Y=              0.9603    Z=              1.5695  Tot=              2.3592

 Test job not archived.
 1\1\GINC-SE118\SP\RHF\Aug-CC-pVDZ\C6H9N1\OHZDE\09-Apr-2025\0\\#t hf au
 g-cc-pvdz iop(5/13=1,5/36=2,99/5=2) pseudo=read geom=check guess=(read
 ,tcheck) scf=(maxcycle=1)\\title\\0,1\C,0,1.68929916,0.74714125,0.0795
 979\C,0,1.13156936,-0.44215287,0.76378638\C,0,-0.38023358,-0.36009246,
 1.00064728\C,0,-0.93107675,-1.19942843,-0.18879577\C,0,-0.4717445,0.04
 410434,-0.98619945\C,0,-0.9488423,0.85452503,0.23151653\N,0,1.01036526
 ,-0.06707014,-0.94321934\H,0,2.76359194,0.78020108,-0.0735774\H,0,1.26
 343638,1.72997645,0.21921154\H,0,1.31661789,-1.08276637,-0.44345988\H,

 Normal termination of Gaussian 16 at Wed Apr  9 19:07:11 2025.
