 Gaussian 16, Revision C.01,

 ----------------------------------------------------------------------
 #t hf aug-cc-pvdz symm=none int=(grid=ultrafine) guess=(read,tcheck) s
 table=(opt,rrhf)
 ----------------------------------------------------------------------
 -----
 title
 -----
 Symbolic Z-matrix:
 Charge =  0 Multiplicity = 1

 SCF Done:  E(RHF) =  -332.350157513     A.U. after   17 cycles
 Normal termination of Gaussian 16 at Wed Apr  9 19:15:41 2025.
 Gaussian 16:  ES64L-G16RevC.01  3-Jul-2019

 ----------------------------------------------------------------------
 #t hf aug-cc-pvdz iop(5/13=1,5/36=2,99/5=2) pseudo=read geom=check gue
 ss=(read,tcheck) scf=(maxcycle=1)
 ----------------------------------------------------------------------
 -----
 title
 -----
 Structure from the checkpoint file:  "Grambow2020_wb97xd3_009006_forward_mol1.chk"
 Charge =  0 Multiplicity = 1

                         Standard orientation:
 ---------------------------------------------------------------------
 Center     Atomic      Atomic             Coordinates (Angstroms)
 Number     Number       Type             X           Y           Z
 ---------------------------------------------------------------------
      1          7           0        2.485308   -0.000980   -0.491966
      2          6           0        1.452344    0.061451    0.036940
      3          6           0        0.045803    0.911146    0.526228
      4          6           0       -1.175806    1.016587   -0.139842
      5          7           0       -1.600664   -0.244987   -0.336251
      6          7           0       -0.763520   -1.176452    0.017368
      7          7           0        0.211018   -0.471691    0.611405
      8          1           0       -1.761715    1.866084   -0.446805
      9          1           0       -2.497321   -0.542410   -0.697033
 ---------------------------------------------------------------------

 SCF Done:  E(RHF) =  -332.680407747     A.U. after    2 cycles

 The electronic state is 1-A.
 Alpha  occ. eigenvalues --  -15.69991 -15.64450 -15.63316 -15.49068 -11.33887
 Alpha  occ. eigenvalues --  -11.33751 -11.30153  -1.52345  -1.32849  -1.21707
 Alpha  occ. eigenvalues --   -1.18605  -1.02593  -0.95035  -0.83727  -0.81021
 Alpha  occ. eigenvalues --   -0.73828  -0.66132  -0.63242  -0.61811  -0.58616
 Alpha  occ. eigenvalues --   -0.53564  -0.48270  -0.42526  -0.39382
 Alpha virt. eigenvalues --   -0.00186   0.00794   0.03206   0.06391   0.07119
 Alpha virt. eigenvalues --    0.08357   0.09397   0.10664   0.10903   0.11313
 Alpha virt. eigenvalues --    0.11445   0.13460   0.14626   0.14928   0.15472

 Mulliken charges:
               1
     1  N    1.095089
     2  C   -1.705325
     3  C   -0.311767
     4  C    0.352148
     5  N    0.427291
     6  N    0.106802
     7  N   -0.011581
     8  H   -0.021437
     9  H    0.068780
 Sum of Mulliken charges =   0.00000

 Dipole moment (field-independent basis, Debye):
    X=             -8.8253    Y=              1.4411    Z=             -0.8374  Tot=              8.9813

 Test job not archived.
 1\1\GINC-SE028\SP\RHF\Aug-CC-pVDZ\C3H2N4\OHZDE\09-Apr-2025\0\\#t hf au
 g-cc-pvdz iop(5/13=1,5/36=2,99/5=2) pseudo=read geom=check guess=(read
 ,tcheck) scf=(maxcycle=1)\\title\\0,1\N,0,2.66866623,0.73588871,0.9057
 0853\C,0,1.71669085,0.6645088,0.24291051\C,0,0.66871259,-0.17385445,-0
 .82415459\C,0,-0.45609926,-0.93698845,-0.50868544\N,0,-1.27138893,-0.1
 2442663,0.18823261\N,0,-0.78216527,1.04818841,0.46951192\N,0,0.3734606
 7,1.04446261,-0.21152157\H,0,-0.73435119,-1.94909223,-0.74823205\H,0,-
 2.21858769,-0.31372476,0.48756307\\Version=ES64L-G16RevC.01\State=1-A\

 Normal termination of Gaussian 16 at Wed Apr  9 19:15:44 2025.
