 Gaussian 16, Revision C.01,

 ----------------------------------------------------------------------
 #t hf aug-cc-pvdz symm=none int=(grid=ultrafine) guess=(read,tcheck) s
 table=(opt,rrhf)
 ----------------------------------------------------------------------
 -----
 title
 -----
 Symbolic Z-matrix:
 Charge =  0 Multiplicity = 1

 SCF Done:  E(RHF) =  -306.561658032     A.U. after   16 cycles
 Normal termination of Gaussian 16 at Wed Apr  9 03:39:35 2025.
 Gaussian 16:  ES64L-G16RevC.01  3-Jul-2019

 ----------------------------------------------------------------------
 #t hf aug-cc-pvdz iop(5/13=1,5/36=2,99/5=2) pseudo=read geom=check gue
 ss=(read,tcheck) scf=(maxcycle=1)
 ----------------------------------------------------------------------
 -----
 title
 -----
 Structure from the checkpoint file:  "Grambow2020_wb97xd3_007366_reverse_mol2.chk"
 Charge =  0 Multiplicity = 1

                         Standard orientation:
 ---------------------------------------------------------------------
 Center     Atomic      Atomic             Coordinates (Angstroms)
 Number     Number       Type             X           Y           Z
 ---------------------------------------------------------------------
      1          6           0        1.572572   -0.685756   -0.639215
      2          6           0        1.854043    0.089152    0.616582
      3          6           0        0.492450    0.111147    0.005279
      4          6           0       -0.290794    1.329291   -0.473764
      5          6           0       -1.516520    0.910129    0.330179
      6          8           0       -1.536824   -1.060360   -0.352906
      7          6           0       -0.775202   -0.384364    0.654720
      8          1           0        1.978615   -0.310033   -1.569722
      9          1           0        1.511292   -1.764558   -0.575830
     10          1           0        1.988976   -0.464428    1.537623
     11          1           0        2.453974    0.987505    0.540683
     12          1           0        0.050123    2.291675   -0.072452
     13          1           0       -0.463519    1.463988   -1.543035
     14          1           0       -2.461787   -1.044344   -0.076003
     15          1           0       -0.782378   -0.894520    1.619301
 ---------------------------------------------------------------------

 SCF Done:  E(RHF) =  -306.880086842     A.U. after    2 cycles

 The electronic state is 1-A.
 Alpha  occ. eigenvalues --  -20.57828 -11.29686 -11.27602 -11.24618 -11.24177
 Alpha  occ. eigenvalues --  -11.24126 -11.23802  -1.48017  -1.18076  -1.08350
 Alpha  occ. eigenvalues --   -0.91327  -0.83696  -0.80315  -0.73765  -0.71403
 Alpha  occ. eigenvalues --   -0.67195  -0.65784  -0.60449  -0.57191  -0.52808
 Alpha  occ. eigenvalues --   -0.52504  -0.48585  -0.47013  -0.43723  -0.42685
 Alpha  occ. eigenvalues --   -0.35249
 Alpha virt. eigenvalues --    0.03568   0.03704   0.04046   0.04440   0.05678
 Alpha virt. eigenvalues --    0.06138   0.06334   0.07687   0.08846   0.09976
 Alpha virt. eigenvalues --    0.11075   0.12890   0.13464   0.13686   0.14165

 Mulliken charges:
               1
     1  C    0.073724
     2  C    0.174580
     3  C    0.589243
     4  C   -0.461541
     5  C   -0.298345
     6  O   -1.280404
     7  C    0.917786
     8  H   -0.066692
     9  H   -0.077976
    10  H   -0.082655
    11  H   -0.083715
    12  H    0.150970
    13  H    0.079728
    14  H    0.379452
    15  H   -0.014155
 Sum of Mulliken charges =  -0.00000

 Dipole moment (field-independent basis, Debye):
    X=              1.6110    Y=             -0.4858    Z=              0.5370  Tot=              1.7663

 Test job not archived.
 1\1\GINC-SE120\SP\RHF\Aug-CC-pVDZ\C6H8O1\OHZDE\09-Apr-2025\0\\#t hf au
 g-cc-pvdz iop(5/13=1,5/36=2,99/5=2) pseudo=read geom=check guess=(read
 ,tcheck) scf=(maxcycle=1)\\title\\0,1\C,0,-1.33341907,0.32913597,-0.88
 020752\C,0,-1.60063626,0.01167679,0.56358961\C,0,-0.21569068,-0.080086
 18,0.01439323\C,0,0.69831862,-1.30123025,-0.00050863\C,0,1.84105787,-0
 .50616363,0.62113729\O,0,1.71122893,1.09751406,-0.70596854\C,0,0.96893
 491,0.73707893,0.46511456\H,0,-1.65896673,-0.38482309,-1.62597202\H,0,
 -1.37509845,1.36350897,-1.1963112\H,0,-1.82914152,0.83256789,1.2320942

 Normal termination of Gaussian 16 at Wed Apr  9 03:39:40 2025.
