 Gaussian 16, Revision C.01,

 ----------------------------------------------------------------------
 #t hf aug-cc-pvdz symm=none int=(grid=ultrafine) guess=(read,tcheck) s
 table=(opt,rrhf)
 ----------------------------------------------------------------------
 -----
 title
 -----
 Symbolic Z-matrix:
 Charge =  0 Multiplicity = 1

 SCF Done:  E(RHF) =  -339.186930939     A.U. after   17 cycles
 Normal termination of Gaussian 16 at Wed Apr  9 15:49:35 2025.
 Gaussian 16:  ES64L-G16RevC.01  3-Jul-2019

 ----------------------------------------------------------------------
 #t hf aug-cc-pvdz iop(5/13=1,5/36=2,99/5=2) pseudo=read geom=check gue
 ss=(read,tcheck) scf=(maxcycle=1)
 ----------------------------------------------------------------------
 -----
 title
 -----
 Structure from the checkpoint file:  "Grambow2020_b97d3_006809_reverse_mol1.chk"
 Charge =  0 Multiplicity = 1

                         Standard orientation:
 ---------------------------------------------------------------------
 Center     Atomic      Atomic             Coordinates (Angstroms)
 Number     Number       Type             X           Y           Z
 ---------------------------------------------------------------------
      1          8           0       -1.541034    0.030390    0.235260
      2          6           0       -1.124338   -1.057373   -0.316066
      3          6           0        0.794695   -0.194741    0.082335
      4          8           0        1.838187   -0.769999    0.165359
      5          6           0       -0.206417    0.767461    0.494775
      6          8           0        0.399836    1.127068   -0.685077
      7          1           0       -2.007871   -1.673292   -0.602291
      8          1           0       -0.351683    1.481539    1.311685
 ---------------------------------------------------------------------

 SCF Done:  E(RHF) =  -339.511771548     A.U. after    2 cycles

 The electronic state is 1-A.
 Alpha  occ. eigenvalues --  -20.66047 -20.59758 -20.58178 -11.45547 -11.42140
 Alpha  occ. eigenvalues --  -11.36715  -1.59429  -1.53006  -1.49026  -0.99739
 Alpha  occ. eigenvalues --   -0.92743  -0.81074  -0.75190  -0.71007  -0.68284
 Alpha  occ. eigenvalues --   -0.65679  -0.62830  -0.57904  -0.56521  -0.49628
 Alpha  occ. eigenvalues --   -0.42465  -0.40880
 Alpha virt. eigenvalues --    0.02960   0.03611   0.04874   0.06753   0.08516
 Alpha virt. eigenvalues --    0.09553   0.10331   0.11086   0.11879   0.13408
 Alpha virt. eigenvalues --    0.14326   0.14830   0.15591   0.15654   0.20257

 Mulliken charges:
               1
     1  O   -0.991245
     2  C    0.224862
     3  C    1.164891
     4  O   -1.132683
     5  C    1.700446
     6  O   -1.190768
     7  H    0.110120
     8  H    0.114378
 Sum of Mulliken charges =   0.00000

 Dipole moment (field-independent basis, Debye):
    X=             -3.3543    Y=              0.1700    Z=              1.6731  Tot=              3.7522

 Test job not archived.
 1\1\GINC-SE043\SP\RHF\Aug-CC-pVDZ\C3H2O3\OHZDE\09-Apr-2025\0\\#t hf au
 g-cc-pvdz iop(5/13=1,5/36=2,99/5=2) pseudo=read geom=check guess=(read
 ,tcheck) scf=(maxcycle=1)\\title\\0,1\O,0,-0.93630741,-0.703987,0.6104
 4268\C,0,-1.0032323,0.56693994,0.81315088\C,0,0.62189203,0.59294168,-0
 .58106624\O,0,0.9833803,1.51658712,-1.24657051\C,0,0.2785857,-0.793893
 89,-0.34233122\O,0,1.43963643,-0.43206904,0.2979456\H,0,-1.82651266,0.
 76988424,1.53629251\H,0,0.2024299,-1.71835506,-0.92364171\\Version=ES6
 4L-G16RevC.01\State=1-A\HF=-339.5117715\RMSD=1.434e-02\Dipole=-1.17641

 Normal termination of Gaussian 16 at Wed Apr  9 15:49:38 2025.
