 Gaussian 16, Revision C.01,

 ----------------------------------------------------------------------
 #t hf aug-cc-pvdz symm=none int=(grid=ultrafine) guess=(read,tcheck) s
 table=(opt,rrhf)
 ----------------------------------------------------------------------
 -----
 title
 -----
 Symbolic Z-matrix:
 Charge =  0 Multiplicity = 1

 SCF Done:  E(RHF) =  -307.915842587     A.U. after   14 cycles

 1\1\GINC-SE131\Stability\RHF\Aug-CC-pVDZ\C6H10O1\OHZDE\09-Apr-2025\0\\
 #t hf aug-cc-pvdz symm=none int=(grid=ultrafine) guess=(read,tcheck) s
 table=(opt,rrhf)\\title\\0,1\O,0,0.89058662,-1.07805711,0.97704501\C,0
 ,1.24504442,-0.74370086,-0.13218648\C,0,2.51192553,-1.28909086,-0.7472
 4289\C,0,-2.28868954,0.1984056,0.9959089\C,0,-1.07655841,1.11738136,0.
 81999022\C,0,-0.50573972,1.00239134,-0.55823543\C,0,0.47807021,0.20495
 3,-0.97830055\H,0,-1.98528097,-0.84396717,0.89486613\H,0,3.17932755,-0
 .47039348,-1.02662197\H,0,3.01167361,-1.95120595,-0.0441945\H,0,2.2740

 Normal termination of Gaussian 16 at Wed Apr  9 18:59:59 2025.
 Gaussian 16:  ES64L-G16RevC.01  3-Jul-2019

 ----------------------------------------------------------------------
 #t hf aug-cc-pvdz iop(5/13=1,5/36=2,99/5=2) pseudo=read geom=check gue
 ss=(read,tcheck) scf=(maxcycle=1)
 ----------------------------------------------------------------------
 -----
 title
 -----
 Structure from the checkpoint file:  "Grambow2020_wb97xd3_008420_reverse_mol2.chk"
 Charge =  0 Multiplicity = 1

                         Standard orientation:
 ---------------------------------------------------------------------
 Center     Atomic      Atomic             Coordinates (Angstroms)
 Number     Number       Type             X           Y           Z
 ---------------------------------------------------------------------
      1          8           0        0.786653   -1.298055    0.178588
      2          6           0        1.272520   -0.203871   -0.007215
      3          6           0        2.768967   -0.013082   -0.077766
      4          6           0       -2.497589   -0.617293   -0.519856
      5          6           0       -1.772562    0.105903    0.618586
      6          6           0       -0.838788    1.148390    0.089578
      7          6           0        0.459907    1.025026   -0.190451
      8          1           0       -1.779326   -1.158687   -1.136133
      9          1           0        3.092116    0.719295    0.665835
     10          1           0        3.273315   -0.961295    0.092370
     11          1           0        3.047016    0.380630   -1.058795
     12          1           0       -3.216189   -1.335350   -0.121957
     13          1           0       -3.039521    0.084106   -1.158331
     14          1           0       -2.506410    0.594491    1.265363
     15          1           0       -1.226828   -0.624826    1.212950
     16          1           0       -1.286060    2.121111   -0.105855
     17          1           0        0.993936    1.894526   -0.561410
 ---------------------------------------------------------------------

 SCF Done:  E(RHF) =  -308.240676381     A.U. after    2 cycles

 The electronic state is 1-A.
 Alpha  occ. eigenvalues --  -20.52602 -11.33555 -11.26589 -11.24028 -11.23810
 Alpha  occ. eigenvalues --  -11.23228 -11.22348  -1.46413  -1.10177  -1.03633
 Alpha  occ. eigenvalues --   -0.98963  -0.88002  -0.81546  -0.71794  -0.68450
 Alpha  occ. eigenvalues --   -0.64849  -0.61494  -0.60764  -0.58367  -0.57701
 Alpha  occ. eigenvalues --   -0.55181  -0.53243  -0.50495  -0.49939  -0.48846
 Alpha  occ. eigenvalues --   -0.40430  -0.37836
 Alpha virt. eigenvalues --    0.03184   0.03524   0.04199   0.04404   0.05485
 Alpha virt. eigenvalues --    0.05747   0.06372   0.07510   0.08034   0.08608
 Alpha virt. eigenvalues --    0.08807   0.11079   0.12276   0.13231   0.13817

 Mulliken charges:
               1
     1  O   -1.432483
     2  C    0.910678
     3  C   -0.628723
     4  C   -0.442069
     5  C   -0.539217
     6  C    0.648259
     7  C    0.502284
     8  H    0.194907
     9  H    0.282884
    10  H    0.109677
    11  H    0.262976
    12  H    0.112940
    13  H    0.154432
    14  H    0.101965
    15  H    0.249252
    16  H   -0.200599
    17  H   -0.287164
 Sum of Mulliken charges =   0.00000

 Dipole moment (field-independent basis, Debye):
    X=              0.2502    Y=              2.5316    Z=             -0.2579  Tot=              2.5570

 Test job not archived.
 1\1\GINC-SE131\SP\RHF\Aug-CC-pVDZ\C6H10O1\OHZDE\09-Apr-2025\0\\#t hf a
 ug-cc-pvdz iop(5/13=1,5/36=2,99/5=2) pseudo=read geom=check guess=(rea
 d,tcheck) scf=(maxcycle=1)\\title\\0,1\O,0,0.89058662,-1.07805711,0.97
 704501\C,0,1.24504442,-0.74370086,-0.13218648\C,0,2.51192553,-1.289090
 86,-0.74724289\C,0,-2.28868954,0.1984056,0.9959089\C,0,-1.07655841,1.1
 1738136,0.81999022\C,0,-0.50573972,1.00239134,-0.55823543\C,0,0.478070
 21,0.204953,-0.97830055\H,0,-1.98528097,-0.84396717,0.89486613\H,0,3.1
 7932755,-0.47039348,-1.02662197\H,0,3.01167361,-1.95120595,-0.0441945\

 Normal termination of Gaussian 16 at Wed Apr  9 19:00:05 2025.
