 Gaussian 16, Revision C.01,

 ----------------------------------------------------------------------
 #t hf aug-cc-pvdz symm=none int=(grid=ultrafine) guess=(read,tcheck) s
 table=(opt,rrhf)
 ----------------------------------------------------------------------
 -----
 title
 -----
 Symbolic Z-matrix:
 Charge =  0 Multiplicity = 1

 SCF Done:  E(RHF) =  -322.438232317     A.U. after   16 cycles
 Normal termination of Gaussian 16 at Wed Apr  9 04:05:49 2025.
 Gaussian 16:  ES64L-G16RevC.01  3-Jul-2019

 ----------------------------------------------------------------------
 #t hf aug-cc-pvdz iop(5/13=1,5/36=2,99/5=2) pseudo=read geom=check gue
 ss=(read,tcheck) scf=(maxcycle=1)
 ----------------------------------------------------------------------
 -----
 title
 -----
 Structure from the checkpoint file:  "Grambow2020_wb97xd3_009197_forward_mol1.chk"
 Charge =  0 Multiplicity = 1

                         Standard orientation:
 ---------------------------------------------------------------------
 Center     Atomic      Atomic             Coordinates (Angstroms)
 Number     Number       Type             X           Y           Z
 ---------------------------------------------------------------------
      1          8           0        1.235397    1.399365    0.299548
      2          6           0        2.112810   -0.442443   -0.202553
      3          6           0        1.066253   -1.306469   -0.122856
      4          6           0       -0.159868   -1.139819    0.047487
      5          6           0       -1.249426   -0.490777    0.569495
      6          6           0       -1.091570    0.837819   -0.315001
      7          7           0       -2.334033    0.146848   -0.165146
      8          1           0        1.633802    2.162559   -0.128744
      9          1           0        2.518109   -0.159134   -1.167277
     10          1           0        2.772100   -0.337128    0.648380
     11          1           0       -1.314048   -0.385571    1.644405
     12          1           0       -0.661465    0.642940   -1.304454
     13          1           0        0.015633    1.471488    0.213866
     14          1           0       -2.578269   -0.367870   -1.005980
 ---------------------------------------------------------------------

 SCF Done:  E(RHF) =  -322.775007076     A.U. after    2 cycles

 The electronic state is 1-A.
 Alpha  occ. eigenvalues --  -20.50788 -15.52880 -11.35097 -11.30045 -11.29798
 Alpha  occ. eigenvalues --  -11.26728 -11.25147  -1.36572  -1.29052  -1.11910
 Alpha  occ. eigenvalues --   -1.00872  -0.90842  -0.85529  -0.77604  -0.70440
 Alpha  occ. eigenvalues --   -0.67902  -0.66882  -0.62984  -0.59157  -0.55904
 Alpha  occ. eigenvalues --   -0.50900  -0.50066  -0.44787  -0.40710  -0.38486
 Alpha  occ. eigenvalues --   -0.32814
 Alpha virt. eigenvalues --    0.02776   0.03560   0.04263   0.04882   0.05751
 Alpha virt. eigenvalues --    0.06037   0.07187   0.08480   0.08983   0.11126
 Alpha virt. eigenvalues --    0.11399   0.12209   0.12889   0.13451   0.13696

 Mulliken charges:
               1
     1  O   -1.277208
     2  C    0.267475
     3  C   -0.426120
     4  C    0.573502
     5  C   -0.457670
     6  C   -0.820786
     7  N    0.405222
     8  H    0.292342
     9  H    0.082294
    10  H    0.080927
    11  H   -0.150939
    12  H    0.050264
    13  H    1.044949
    14  H    0.335747
 Sum of Mulliken charges =  -0.00000

 Dipole moment (field-independent basis, Debye):
    X=              2.7822    Y=             -0.6719    Z=             -1.9123  Tot=              3.4423

 Test job not archived.
 1\1\GINC-SE060\SP\RHF\Aug-CC-pVDZ\C5H7N1O1\OHZDE\09-Apr-2025\0\\#t hf
 aug-cc-pvdz iop(5/13=1,5/36=2,99/5=2) pseudo=read geom=check guess=(re
 ad,tcheck) scf=(maxcycle=1)\\title\\0,1\O,0,0.94526788,-0.88000182,-0.
 8605377\C,0,1.98292172,0.60901428,0.19791497\C,0,0.97975872,1.32884921
 ,0.76683972\C,0,-0.25547284,1.15598286,0.83378932\C,0,-1.46206322,0.72
 138123,0.3478414\C,0,-1.13687773,-0.84440066,0.47031969\N,0,-2.3530925
 8,-0.26350527,0.94675802\H,0,1.41036032,-1.71863531,-0.93131227\H,0,2.
 60384431,-0.04083731,0.80402676\H,0,2.40755341,0.94893138,-0.73695671\

 Normal termination of Gaussian 16 at Wed Apr  9 04:05:54 2025.
