 Gaussian 16, Revision C.01,

 ----------------------------------------------------------------------
 #t hf aug-cc-pvdz symm=none int=(grid=ultrafine) guess=(read,tcheck) s
 table=(opt,rrhf)
 ----------------------------------------------------------------------
 -----
 title
 -----
 Symbolic Z-matrix:
 Charge =  0 Multiplicity = 1

 SCF Done:  E(RHF) =  -287.885258237     A.U. after   17 cycles

 1\1\GINC-SE113\Stability\RHF\Aug-CC-pVDZ\C6H11N1\OHZDE\09-Apr-2025\0\\
 #t hf aug-cc-pvdz symm=none int=(grid=ultrafine) guess=(read,tcheck) s
 table=(opt,rrhf)\\title\\0,1\C,0,-1.96119503,0.45025656,-0.59766575\C,
 0,-1.34042918,-0.82983908,-0.11930304\C,0,0.1803265,-0.86037531,-0.347
 48052\C,0,0.98180142,0.00692113,0.61578834\C,0,2.45855076,0.09789864,0
 .24435766\C,0,0.41292553,1.39244815,0.77744436\N,0,-0.63546117,1.84057
 603,0.39472154\H,0,-1.55916696,2.08292657,0.05660169\H,0,-1.87949836,0
 .61624277,-1.67234274\H,0,-2.97607172,0.62644719,-0.23696592\H,0,-1.54

 Normal termination of Gaussian 16 at Wed Apr  9 17:45:19 2025.
 Gaussian 16:  ES64L-G16RevC.01  3-Jul-2019

 ----------------------------------------------------------------------
 #t hf aug-cc-pvdz iop(5/13=1,5/36=2,99/5=2) pseudo=read geom=check gue
 ss=(read,tcheck) scf=(maxcycle=1)
 ----------------------------------------------------------------------
 -----
 title
 -----
 Structure from the checkpoint file:  "Grambow2020_wb97xd3_006806_reverse_mol1.chk"
 Charge =  0 Multiplicity = 1

                         Standard orientation:
 ---------------------------------------------------------------------
 Center     Atomic      Atomic             Coordinates (Angstroms)
 Number     Number       Type             X           Y           Z
 ---------------------------------------------------------------------
      1          6           0        2.071789    0.036185    0.344022
      2          6           0        1.317869   -1.074883   -0.326768
      3          6           0       -0.136021   -1.172205    0.165601
      4          6           0       -1.059420   -0.085019   -0.370880
      5          6           0       -2.438640   -0.102822    0.280627
      6          6           0       -0.467936    1.296729   -0.269107
      7          7           0        0.651486    1.632871    0.014288
      8          1           0        1.631123    1.781743    0.225093
      9          1           0        2.194035   -0.088355    1.420452
     10          1           0        3.011179    0.306516   -0.141354
     11          1           0        1.322156   -0.926620   -1.413230
     12          1           0        1.804964   -2.043015   -0.158808
     13          1           0       -0.556934   -2.135936   -0.131697
     14          1           0       -0.145666   -1.152700    1.260890
     15          1           0       -1.192419   -0.235183   -1.450054
     16          1           0       -2.912028   -1.077536    0.147956
     17          1           0       -2.359577    0.090601    1.352593
     18          1           0       -3.083079    0.662480   -0.152827
 ---------------------------------------------------------------------

 SCF Done:  E(RHF) =  -288.192387270     A.U. after    2 cycles

 The electronic state is 1-A.
 Alpha  occ. eigenvalues --  -15.56776 -11.27699 -11.25771 -11.23067 -11.23008
 Alpha  occ. eigenvalues --  -11.22970 -11.22639  -1.26369  -1.09764  -1.03056
 Alpha  occ. eigenvalues --   -0.93516  -0.88609  -0.84886  -0.77793  -0.67751
 Alpha  occ. eigenvalues --   -0.63467  -0.61325  -0.59948  -0.56341  -0.55301
 Alpha  occ. eigenvalues --   -0.53904  -0.51300  -0.50061  -0.49681  -0.47636
 Alpha  occ. eigenvalues --   -0.47562  -0.25100
 Alpha virt. eigenvalues --    0.03625   0.03826   0.04002   0.04051   0.05092
 Alpha virt. eigenvalues --    0.05562   0.05905   0.06836   0.07965   0.08041
 Alpha virt. eigenvalues --    0.09159   0.09482   0.11362   0.11941   0.12913

 Mulliken charges:
               1
     1  C   -0.251421
     2  C   -0.275794
     3  C    0.029458
     4  C   -0.610421
     5  C   -0.096418
     6  C   -1.416357
     7  N    0.974317
     8  H    0.281009
     9  H    0.018241
    10  H   -0.019942
    11  H    0.137418
    12  H    0.147660
    13  H    0.135315
    14  H    0.168443
    15  H    0.246438
    16  H    0.178994
    17  H    0.204386
    18  H    0.148672
 Sum of Mulliken charges =  -0.00000

 Dipole moment (field-independent basis, Debye):
    X=              0.3197    Y=             -1.6637    Z=             -0.0137  Tot=              1.6942

 Test job not archived.
 1\1\GINC-SE113\SP\RHF\Aug-CC-pVDZ\C6H11N1\OHZDE\09-Apr-2025\0\\#t hf a
 ug-cc-pvdz iop(5/13=1,5/36=2,99/5=2) pseudo=read geom=check guess=(rea
 d,tcheck) scf=(maxcycle=1)\\title\\0,1\C,0,-1.96119503,0.45025656,-0.5
 9766575\C,0,-1.34042918,-0.82983908,-0.11930304\C,0,0.1803265,-0.86037
 531,-0.34748052\C,0,0.98180142,0.00692113,0.61578834\C,0,2.45855076,0.
 09789864,0.24435766\C,0,0.41292553,1.39244815,0.77744436\N,0,-0.635461
 17,1.84057603,0.39472154\H,0,-1.55916696,2.08292657,0.05660169\H,0,-1.
 87949836,0.61624277,-1.67234274\H,0,-2.97607172,0.62644719,-0.23696592

 Normal termination of Gaussian 16 at Wed Apr  9 17:45:25 2025.
