 Gaussian 16, Revision C.01,

 ----------------------------------------------------------------------
 #t hf aug-cc-pvdz symm=none int=(grid=ultrafine) guess=(read,tcheck) s
 table=(opt,rrhf)
 ----------------------------------------------------------------------
 -----
 title
 -----
 Symbolic Z-matrix:
 Charge =  0 Multiplicity = 1

 SCF Done:  E(RHF) =  -318.732564084     A.U. after   16 cycles
 Normal termination of Gaussian 16 at Wed Apr  9 18:40:35 2025.
 Gaussian 16:  ES64L-G16RevC.01  3-Jul-2019

 ----------------------------------------------------------------------
 #t hf aug-cc-pvdz iop(5/13=1,5/36=2,99/5=2) pseudo=read geom=check gue
 ss=(read,tcheck) scf=(maxcycle=1)
 ----------------------------------------------------------------------
 -----
 title
 -----
 Structure from the checkpoint file:  "Grambow2020_wb97xd3_007957_forward_mol1.chk"
 Charge =  0 Multiplicity = 1

                         Standard orientation:
 ---------------------------------------------------------------------
 Center     Atomic      Atomic             Coordinates (Angstroms)
 Number     Number       Type             X           Y           Z
 ---------------------------------------------------------------------
      1          6           0        2.503065   -0.228238   -0.530617
      2          6           0        1.598277    0.354171    0.554168
      3          6           0        0.146654    0.215064    0.227596
      4          6           0       -0.719572    1.211573   -0.185859
      5          7           0       -1.928979    0.382087   -0.242104
      6          7           0       -1.680180   -0.958293   -0.019469
      7          7           0       -0.444697   -1.025595    0.254157
      8          1           0        3.553735   -0.131696   -0.251723
      9          1           0        2.288491   -1.286633   -0.686850
     10          1           0        2.354533    0.292131   -1.478662
     11          1           0        1.795327   -0.147123    1.505116
     12          1           0        1.812527    1.414501    0.694984
     13          1           0       -1.839910    1.129730    0.645574
     14          1           0       -2.758247    0.626285   -0.768250
 ---------------------------------------------------------------------

 SCF Done:  E(RHF) =  -319.064115598     A.U. after    2 cycles

 The electronic state is 1-A.
 Alpha  occ. eigenvalues --  -15.64914 -15.59919 -15.57306 -11.26947 -11.26427
 Alpha  occ. eigenvalues --  -11.23783 -11.22409  -1.46158  -1.26673  -1.13004
 Alpha  occ. eigenvalues --   -1.03185  -0.92301  -0.91001  -0.85067  -0.78040
 Alpha  occ. eigenvalues --   -0.72640  -0.64733  -0.61409  -0.59834  -0.55262
 Alpha  occ. eigenvalues --   -0.53450  -0.52101  -0.50933  -0.48969  -0.41362
 Alpha  occ. eigenvalues --   -0.37904
 Alpha virt. eigenvalues --    0.02414   0.04336   0.04850   0.05032   0.05426
 Alpha virt. eigenvalues --    0.05665   0.06918   0.07641   0.08950   0.10558
 Alpha virt. eigenvalues --    0.11323   0.12584   0.13034   0.13708   0.14659

 Mulliken charges:
               1
     1  C   -0.299876
     2  C   -0.137361
     3  C   -0.445386
     4  C   -0.879456
     5  N    0.247935
     6  N   -0.094701
     7  N    0.112388
     8  H    0.101140
     9  H    0.213215
    10  H    0.163725
    11  H    0.182169
    12  H    0.168108
    13  H    0.568852
    14  H    0.099247
 Sum of Mulliken charges =   0.00000

 Dipole moment (field-independent basis, Debye):
    X=             -1.2443    Y=              1.7439    Z=              0.1797  Tot=              2.1498

 Test job not archived.
 1\1\GINC-SE232\SP\RHF\Aug-CC-pVDZ\C4H7N3\OHZDE\09-Apr-2025\0\\#t hf au
 g-cc-pvdz iop(5/13=1,5/36=2,99/5=2) pseudo=read geom=check guess=(read
 ,tcheck) scf=(maxcycle=1)\\title\\0,1\C,0,-1.97857685,0.73894621,0.178
 37109\C,0,-1.16152627,-0.49978567,-0.18573132\C,0,0.30884178,-0.285680
 88,-0.02640017\C,0,1.24509829,-0.11224,-1.0302246\N,0,2.42441403,-0.03
 423531,-0.16016495\N,0,2.10849532,-0.02088685,1.18449223\N,0,0.8509376
 1,-0.16973661,1.23150474\H,0,-3.04701891,0.54280183,0.07363926\H,0,-1.
 78744405,1.03956914,1.20975049\H,0,-1.7220212,1.57665046,-0.4728324\H,

 Normal termination of Gaussian 16 at Wed Apr  9 18:40:39 2025.
