 Gaussian 16, Revision C.01,

 ----------------------------------------------------------------------
 #t hf aug-cc-pvdz symm=none int=(grid=ultrafine) guess=(read,tcheck) s
 table=(opt,rrhf)
 ----------------------------------------------------------------------
 -----
 title
 -----
 Symbolic Z-matrix:
 Charge =  0 Multiplicity = 1

 SCF Done:  E(RHF) =  -343.769430918     A.U. after   13 cycles
 Normal termination of Gaussian 16 at Wed Apr  9 03:45:36 2025.
 Gaussian 16:  ES64L-G16RevC.01  3-Jul-2019

 ----------------------------------------------------------------------
 #t hf aug-cc-pvdz iop(5/13=1,5/36=2,99/5=2) pseudo=read geom=check gue
 ss=(read,tcheck) scf=(maxcycle=1)
 ----------------------------------------------------------------------
 -----
 title
 -----
 Structure from the checkpoint file:  "Grambow2020_wb97xd3_007804_forward_mol2.chk"
 Charge =  0 Multiplicity = 1

                         Standard orientation:
 ---------------------------------------------------------------------
 Center     Atomic      Atomic             Coordinates (Angstroms)
 Number     Number       Type             X           Y           Z
 ---------------------------------------------------------------------
      1          6           0        1.543049    1.265319   -0.078024
      2          6           0        0.726739   -0.000298    0.045457
      3          6           0        1.553831   -1.258171   -0.082498
      4          6           0       -0.341973   -0.005583    1.151066
      5          6           0       -1.317614   -0.001603   -0.009306
      6          8           0       -2.492593    0.000428   -0.165276
      7          8           0       -0.352079   -0.001476   -0.963769
      8          1           0        0.905645    2.148415   -0.019332
      9          1           0        2.282209    1.316504    0.723874
     10          1           0        2.070266    1.284928   -1.033047
     11          1           0        0.925305   -2.147592   -0.024937
     12          1           0        2.080193   -1.270940   -1.038131
     13          1           0        2.294236   -1.302940    0.718673
     14          1           0       -0.392081   -0.901357    1.767759
     15          1           0       -0.392586    0.883387    1.777323
 ---------------------------------------------------------------------

 SCF Done:  E(RHF) =  -344.121655147     A.U. after    2 cycles

 The electronic state is 1-A.
 Alpha  occ. eigenvalues --  -20.58403 -20.53704 -11.38869 -11.32465 -11.26621
 Alpha  occ. eigenvalues --  -11.24810 -11.24783  -1.54635  -1.46738  -1.10351
 Alpha  occ. eigenvalues --   -1.02118  -0.97156  -0.82475  -0.75826  -0.70106
 Alpha  occ. eigenvalues --   -0.69372  -0.68374  -0.62373  -0.59867  -0.59023
 Alpha  occ. eigenvalues --   -0.57490  -0.55165  -0.53149  -0.52642  -0.49590
 Alpha  occ. eigenvalues --   -0.44930  -0.43286
 Alpha virt. eigenvalues --    0.02819   0.03639   0.03676   0.04763   0.05794
 Alpha virt. eigenvalues --    0.06194   0.06889   0.09092   0.09362   0.09700
 Alpha virt. eigenvalues --    0.12830   0.13016   0.14057   0.14250   0.14894

 Mulliken charges:
               1
     1  C   -0.215769
     2  C    0.276553
     3  C   -0.215568
     4  C   -0.224696
     5  C    1.641182
     6  O   -1.287296
     7  O   -1.409881
     8  H    0.155865
     9  H    0.258747
    10  H    0.221144
    11  H    0.156212
    12  H    0.221872
    13  H    0.259970
    14  H    0.081701
    15  H    0.079963
 Sum of Mulliken charges =  -0.00000

 Dipole moment (field-independent basis, Debye):
    X=              4.3736    Y=             -0.0045    Z=              2.3291  Tot=              4.9551

 Test job not archived.
 1\1\GINC-SE273\SP\RHF\Aug-CC-pVDZ\C5H8O2\OHZDE\09-Apr-2025\0\\#t hf au
 g-cc-pvdz iop(5/13=1,5/36=2,99/5=2) pseudo=read geom=check guess=(read
 ,tcheck) scf=(maxcycle=1)\\title\\0,1\C,0,-0.85838645,1.27961525,-0.41
 474127\C,0,-0.11966611,0.07416513,0.11871622\C,0,-1.01960059,-0.911407
 89,0.8268551\C,0,0.94093197,-0.53176729,-0.81537205\C,0,1.92123385,-0.
 01159185,0.2174792\O,0,3.09505618,0.00268533,0.38131954\O,0,0.96251476
 ,0.50999018,1.02498679\H,0,-0.16977882,1.9837415,-0.88337114\H,0,-1.59
 743382,0.97056837,-1.15657448\H,0,-1.37840767,1.79449961,0.39450753\H,

 Normal termination of Gaussian 16 at Wed Apr  9 03:45:42 2025.
