 Gaussian 16, Revision C.01,

 ----------------------------------------------------------------------
 #t hf aug-cc-pvdz symm=none int=(grid=ultrafine) guess=(read,tcheck) s
 table=(opt,rrhf)
 ----------------------------------------------------------------------
 -----
 title
 -----
 Symbolic Z-matrix:
 Charge =  0 Multiplicity = 1

 SCF Done:  E(RHF) =  -247.739439640     A.U. after   15 cycles
 Normal termination of Gaussian 16 at Wed Apr  9 16:54:06 2025.
 Gaussian 16:  ES64L-G16RevC.01  3-Jul-2019

 ----------------------------------------------------------------------
 #t hf aug-cc-pvdz iop(5/13=1,5/36=2,99/5=2) pseudo=read geom=check gue
 ss=(read,tcheck) scf=(maxcycle=1)
 ----------------------------------------------------------------------
 -----
 title
 -----
 Structure from the checkpoint file:  "Grambow2020_wb97xd3_006174_forward_mol1.chk"
 Charge =  0 Multiplicity = 1

                         Standard orientation:
 ---------------------------------------------------------------------
 Center     Atomic      Atomic             Coordinates (Angstroms)
 Number     Number       Type             X           Y           Z
 ---------------------------------------------------------------------
      1          6           0        1.367928    1.273321    0.011982
      2          6           0        1.445573   -0.176373   -0.365242
      3          6           0        0.753295   -1.062432    0.596521
      4          6           0       -0.338685   -0.846694   -0.459268
      5          6           0       -1.443758    0.000044   -0.080667
      6          7           0       -2.316642    0.686882    0.208994
      7          1           0        1.367810    1.935980   -0.852768
      8          1           0        2.324255    1.433377    0.524805
      9          1           0        0.573185    1.567420    0.709197
     10          1           0        0.315669   -0.360805   -1.325931
     11          1           0        0.484501   -0.657422    1.572421
     12          1           0        1.087138   -2.093910    0.652213
     13          1           0       -0.642178   -1.760006   -0.962846
 ---------------------------------------------------------------------

 SCF Done:  E(RHF) =  -247.995820191     A.U. after    2 cycles

 The electronic state is 1-A.
 Alpha  occ. eigenvalues --  -15.52421 -11.32781 -11.29466 -11.28058 -11.27345
 Alpha  occ. eigenvalues --  -11.24577  -1.25133  -1.17710  -1.01092  -0.93501
 Alpha  occ. eigenvalues --   -0.80953  -0.74385  -0.65218  -0.62808  -0.61066
 Alpha  occ. eigenvalues --   -0.59660  -0.58821  -0.55423  -0.53064  -0.50555
 Alpha  occ. eigenvalues --   -0.48910  -0.35589
 Alpha virt. eigenvalues --    0.02975   0.03508   0.04128   0.04828   0.05886
 Alpha virt. eigenvalues --    0.06569   0.07854   0.09052   0.09823   0.11403
 Alpha virt. eigenvalues --    0.12203   0.12664   0.13744   0.14222   0.15151

 Mulliken charges:
               1
     1  C   -0.292624
     2  C   -0.617719
     3  C    0.244024
     4  C    0.215755
     5  C   -1.797973
     6  N    1.009278
     7  H    0.149047
     8  H    0.218755
     9  H    0.155626
    10  H    0.583217
    11  H    0.073700
    12  H   -0.009272
    13  H    0.068185
 Sum of Mulliken charges =  -0.00000

 Dipole moment (field-independent basis, Debye):
    X=              2.2025    Y=             -2.1146    Z=              0.0423  Tot=              3.0536

 Test job not archived.
 1\1\GINC-SE168\SP\RHF\Aug-CC-pVDZ\C5H7N1\OHZDE\09-Apr-2025\0\\#t hf au
 g-cc-pvdz iop(5/13=1,5/36=2,99/5=2) pseudo=read geom=check guess=(read
 ,tcheck) scf=(maxcycle=1)\\title\\0,1\C,0,1.49936471,0.5779126,0.07808
 62\C,0,0.83355097,-0.75411767,-0.10170976\C,0,-0.35294673,-0.92961221,
 0.76475497\C,0,-0.9966759,-0.43279138,-0.53618185\C,0,-1.50958759,0.91
 566928,-0.52814808\N,0,-1.90370553,1.99373461,-0.53292885\H,0,1.976936
 53,0.93839732,-0.83234497\H,0,2.30864356,0.34232507,0.78003576\H,0,0.9
 0158155,1.3795668,0.52999835\H,0,-0.07088264,-0.55072605,-1.27399506\H

 Normal termination of Gaussian 16 at Wed Apr  9 16:54:09 2025.
