 Gaussian 16, Revision C.01,

 ----------------------------------------------------------------------
 #t hf aug-cc-pvdz symm=none int=(grid=ultrafine) guess=(read,tcheck) s
 table=(opt,rrhf)
 ----------------------------------------------------------------------
 -----
 title
 -----
 Symbolic Z-matrix:
 Charge =  0 Multiplicity = 1

 SCF Done:  E(RHF) =  -286.856560330     A.U. after   14 cycles
 Normal termination of Gaussian 16 at Wed Apr  9 19:20:10 2025.
 Gaussian 16:  ES64L-G16RevC.01  3-Jul-2019

 ----------------------------------------------------------------------
 #t hf aug-cc-pvdz iop(5/13=1,5/36=2,99/5=2) pseudo=read geom=check gue
 ss=(read,tcheck) scf=(maxcycle=1)
 ----------------------------------------------------------------------
 -----
 title
 -----
 Structure from the checkpoint file:  "Grambow2020_wb97xd3_009354_reverse_mol2.chk"
 Charge =  0 Multiplicity = 1

                         Standard orientation:
 ---------------------------------------------------------------------
 Center     Atomic      Atomic             Coordinates (Angstroms)
 Number     Number       Type             X           Y           Z
 ---------------------------------------------------------------------
      1          6           0       -2.126915   -0.341158    0.151965
      2          7           0       -0.867839    0.131294   -0.366477
      3          6           0       -0.299712    1.311518    0.105524
      4          6           0        1.035588    1.288099    0.101135
      5          6           0        1.046277   -1.189677    0.642264
      6          6           0        0.196436   -0.818615   -0.542217
      7          6           0        1.486172   -0.077981   -0.283757
      8          1           0       -2.035591   -0.775105    1.158368
      9          1           0       -2.535098   -1.105120   -0.512185
     10          1           0       -2.839709    0.483555    0.192962
     11          1           0       -0.952353    2.124110    0.396033
     12          1           0        1.687054    2.120510    0.315934
     13          1           0        0.719845   -0.912168    1.636856
     14          1           0        1.571371   -2.132889    0.571080
     15          1           0        0.066396   -1.533838   -1.345914
     16          1           0        2.365881   -0.221228   -0.897287
 ---------------------------------------------------------------------

 SCF Done:  E(RHF) =  -287.162556318     A.U. after    2 cycles

 The electronic state is 1-A.
 Alpha  occ. eigenvalues --  -15.49863 -11.26072 -11.26032 -11.25987 -11.23633
 Alpha  occ. eigenvalues --  -11.22620 -11.21404  -1.27503  -1.12264  -1.02949
 Alpha  occ. eigenvalues --   -0.93199  -0.85413  -0.79519  -0.75720  -0.72052
 Alpha  occ. eigenvalues --   -0.65249  -0.61863  -0.61286  -0.59272  -0.57010
 Alpha  occ. eigenvalues --   -0.53773  -0.50737  -0.48960  -0.46340  -0.40032
 Alpha  occ. eigenvalues --   -0.30206
 Alpha virt. eigenvalues --    0.03658   0.04010   0.04227   0.04628   0.05181
 Alpha virt. eigenvalues --    0.05368   0.06200   0.07198   0.08974   0.10541
 Alpha virt. eigenvalues --    0.12080   0.12455   0.12938   0.13658   0.14950

 Mulliken charges:
               1
     1  C   -0.376997
     2  N    1.041494
     3  C   -0.345826
     4  C    0.583652
     5  C    0.377493
     6  C   -0.512200
     7  C    0.066165
     8  H    0.182427
     9  H    0.098401
    10  H    0.061405
    11  H   -0.288198
    12  H   -0.129601
    13  H   -0.121026
    14  H   -0.115300
    15  H   -0.313377
    16  H   -0.208512
 Sum of Mulliken charges =  -0.00000

 Dipole moment (field-independent basis, Debye):
    X=             -0.4085    Y=             -0.5217    Z=              0.4021  Tot=              0.7751

 Test job not archived.
 1\1\GINC-SE207\SP\RHF\Aug-CC-pVDZ\C6H9N1\OHZDE\09-Apr-2025\0\\#t hf au
 g-cc-pvdz iop(5/13=1,5/36=2,99/5=2) pseudo=read geom=check guess=(read
 ,tcheck) scf=(maxcycle=1)\\title\\0,1\C,0,2.01308333,0.3168157,-0.1380
 7085\N,0,0.79633624,-0.45542508,-0.11719459\C,0,0.25053582,-0.89439004
 ,1.08608959\C,0,-1.08320338,-0.95927928,1.06320882\C,0,-1.20739817,1.0
 5668078,-0.47067125\C,0,-0.29253534,-0.03450857,-0.95569316\C,0,-1.565
 02702,-0.39226178,-0.22662734\H,0,1.86119507,1.35709687,0.18479352\H,0
 ,2.42281192,0.33091914,-1.14963952\H,0,2.7525803,-0.14550494,0.5171483

 Normal termination of Gaussian 16 at Wed Apr  9 19:20:15 2025.
