 Gaussian 16, Revision C.01,

 ----------------------------------------------------------------------
 #t hf aug-cc-pvdz symm=none int=(grid=ultrafine) guess=(read,tcheck) s
 table=(opt,rrhf)
 ----------------------------------------------------------------------
 -----
 title
 -----
 Symbolic Z-matrix:
 Charge =  0 Multiplicity = 1

 SCF Done:  E(RHF) =  -302.859479714     A.U. after   14 cycles
 Normal termination of Gaussian 16 at Wed Apr  9 19:11:05 2025.
 Gaussian 16:  ES64L-G16RevC.01  3-Jul-2019

 ----------------------------------------------------------------------
 #t hf aug-cc-pvdz iop(5/13=1,5/36=2,99/5=2) pseudo=read geom=check gue
 ss=(read,tcheck) scf=(maxcycle=1)
 ----------------------------------------------------------------------
 -----
 title
 -----
 Structure from the checkpoint file:  "Grambow2020_wb97xd3_008836_reverse_mol2.chk"
 Charge =  0 Multiplicity = 1

                         Standard orientation:
 ---------------------------------------------------------------------
 Center     Atomic      Atomic             Coordinates (Angstroms)
 Number     Number       Type             X           Y           Z
 ---------------------------------------------------------------------
      1          6           0       -0.613829    1.640221    0.012320
      2          6           0       -0.610977    0.138376    0.123742
      3          6           0        0.600614   -0.460030    0.806983
      4          6           0        2.765960   -0.014533   -0.538919
      5          7           0        1.799172   -0.219912    0.074552
      6          6           0       -1.875039   -0.615032    0.262979
      7          7           0       -1.170434   -0.575580   -1.016333
      8          1           0       -0.589766    2.106032    1.000313
      9          1           0        0.254122    1.984370   -0.553197
     10          1           0       -1.510029    1.971777   -0.510076
     11          1           0        0.483676   -1.540011    0.919185
     12          1           0        0.722068   -0.031434    1.804210
     13          1           0       -2.815117   -0.076393    0.286613
     14          1           0       -1.868002   -1.536479    0.836568
     15          1           0       -0.678491   -1.443427   -1.193772
 ---------------------------------------------------------------------

 SCF Done:  E(RHF) =  -303.173976456     A.U. after    2 cycles

 The electronic state is 1-A.
 Alpha  occ. eigenvalues --  -15.53603 -15.51138 -11.31855 -11.28929 -11.28186
 Alpha  occ. eigenvalues --  -11.27590 -11.23561  -1.30018  -1.27500  -1.07426
 Alpha  occ. eigenvalues --   -0.99682  -0.91296  -0.82482  -0.77793  -0.71378
 Alpha  occ. eigenvalues --   -0.68845  -0.63979  -0.60047  -0.58773  -0.55958
 Alpha  occ. eigenvalues --   -0.52743  -0.50804  -0.49990  -0.48578  -0.48240
 Alpha  occ. eigenvalues --   -0.43194
 Alpha virt. eigenvalues --    0.02935   0.03846   0.04019   0.04410   0.05797
 Alpha virt. eigenvalues --    0.05947   0.06643   0.07931   0.09043   0.10534
 Alpha virt. eigenvalues --    0.11620   0.12337   0.12697   0.13343   0.13690

 Mulliken charges:
               1
     1  C   -0.549400
     2  C   -1.062108
     3  C   -0.668070
     4  C   -0.664248
     5  N    0.934423
     6  C    0.545896
     7  N    0.530318
     8  H    0.268560
     9  H    0.271299
    10  H    0.171094
    11  H    0.066287
    12  H    0.128239
    13  H   -0.088944
    14  H   -0.100417
    15  H    0.217071
 Sum of Mulliken charges =   0.00000

 Dipole moment (field-independent basis, Debye):
    X=             -2.4161    Y=             -1.0153    Z=              3.1728  Tot=              4.1153

 Test job not archived.
 1\1\GINC-SE048\SP\RHF\Aug-CC-pVDZ\C5H8N2\OHZDE\09-Apr-2025\0\\#t hf au
 g-cc-pvdz iop(5/13=1,5/36=2,99/5=2) pseudo=read geom=check guess=(read
 ,tcheck) scf=(maxcycle=1)\\title\\0,1\C,0,-0.51669335,1.13850988,1.019
 34183\C,0,-0.17711748,-0.09282302,0.22155279\C,0,1.28022941,-0.2356593
 9,-0.16393261\C,0,2.03173836,1.66248272,-1.75482315\N,0,1.70509638,0.8
 052089,-1.03956661\C,0,-0.92595144,-1.35261522,0.41399197\N,0,-1.18104
 05,-0.50676331,-0.74967781\H,0,0.02729479,1.15339791,1.96673032\H,0,-0
 .2611291,2.04035698,0.45992661\H,0,-1.5852841,1.16235306,1.22802004\H,

 Normal termination of Gaussian 16 at Wed Apr  9 19:11:10 2025.
