 Gaussian 16, Revision C.01,

 ----------------------------------------------------------------------
 #t hf aug-cc-pvdz symm=none int=(grid=ultrafine) guess=(read,tcheck) s
 table=(opt,rrhf)
 ----------------------------------------------------------------------
 -----
 title
 -----
 Symbolic Z-matrix:
 Charge =  0 Multiplicity = 1

 SCF Done:  E(RHF) =  -332.489611774     A.U. after   17 cycles
 Normal termination of Gaussian 16 at Wed Apr  9 19:15:40 2025.
 Gaussian 16:  ES64L-G16RevC.01  3-Jul-2019

 ----------------------------------------------------------------------
 #t hf aug-cc-pvdz iop(5/13=1,5/36=2,99/5=2) pseudo=read geom=check gue
 ss=(read,tcheck) scf=(maxcycle=1)
 ----------------------------------------------------------------------
 -----
 title
 -----
 Structure from the checkpoint file:  "Grambow2020_wb97xd3_009011_reverse_mol1.chk"
 Charge =  0 Multiplicity = 1

                         Standard orientation:
 ---------------------------------------------------------------------
 Center     Atomic      Atomic             Coordinates (Angstroms)
 Number     Number       Type             X           Y           Z
 ---------------------------------------------------------------------
      1          7           0        2.884603    0.074718   -0.000846
      2          6           0        1.735225    0.022668    0.000388
      3          6           0        0.327298    0.008743    0.001301
      4          6           0       -0.587132    1.112310    0.000150
      5          7           0       -1.828601    0.829599   -0.000265
      6          7           0       -1.534142   -1.298036   -0.000635
      7          7           0       -0.406451   -1.117630    0.000343
      8          1           0       -0.175438    2.118507   -0.000533
      9          1           0       -2.484769    1.598612   -0.000683
 ---------------------------------------------------------------------

 SCF Done:  E(RHF) =  -332.810935991     A.U. after    2 cycles

 The electronic state is 1-A.
 Alpha  occ. eigenvalues --  -15.68486 -15.67902 -15.53068 -15.52121 -11.33980
 Alpha  occ. eigenvalues --  -11.32498 -11.29640  -1.52773  -1.26615  -1.24391
 Alpha  occ. eigenvalues --   -1.16065  -0.94531  -0.88495  -0.81385  -0.74575
 Alpha  occ. eigenvalues --   -0.74259  -0.73850  -0.64052  -0.61140  -0.56563
 Alpha  occ. eigenvalues --   -0.52842  -0.51950  -0.50813  -0.38599
 Alpha virt. eigenvalues --    0.01050   0.02737   0.04076   0.04945   0.06504
 Alpha virt. eigenvalues --    0.08556   0.08610   0.10735   0.11093   0.11359
 Alpha virt. eigenvalues --    0.12772   0.12893   0.13604   0.14756   0.15300

 Mulliken charges:
               1
     1  N    0.944424
     2  C   -1.808627
     3  C    0.103362
     4  C   -0.214378
     5  N    0.471110
     6  N    0.685387
     7  N   -0.129092
     8  H   -0.089689
     9  H    0.037503
 Sum of Mulliken charges =  -0.00000

 Dipole moment (field-independent basis, Debye):
    X=             -3.4641    Y=              1.9895    Z=              0.0016  Tot=              3.9947

 Test job not archived.
 1\1\GINC-SE173\SP\RHF\Aug-CC-pVDZ\C3H2N4\OHZDE\09-Apr-2025\0\\#t hf au
 g-cc-pvdz iop(5/13=1,5/36=2,99/5=2) pseudo=read geom=check guess=(read
 ,tcheck) scf=(maxcycle=1)\\title\\0,1\N,0,3.07288868,0.31135282,0.5125
 2591\C,0,1.94268964,0.35519272,0.30155038\C,0,0.5572197,0.35965514,0.0
 5073953\C,0,-0.36374719,-0.73845552,0.04671273\N,0,-1.58056871,-0.4666
 7399,-0.21145929\N,0,-1.25097418,1.6412235,-0.45979982\N,0,-0.1441373,
 1.46988047,-0.23666636\H,0,0.02255764,-1.73159946,0.26202247\H,0,-2.24
 092827,-1.23206368,-0.21797754\\Version=ES64L-G16RevC.01\State=1-A\HF=

 Normal termination of Gaussian 16 at Wed Apr  9 19:15:43 2025.
