 Gaussian 16, Revision C.01,

 ----------------------------------------------------------------------
 #t hf aug-cc-pvdz symm=none int=(grid=ultrafine) guess=(read,tcheck) s
 table=(opt,rrhf)
 ----------------------------------------------------------------------
 -----
 title
 -----
 Symbolic Z-matrix:
 Charge =  0 Multiplicity = 1

 SCF Done:  E(RHF) =  -341.238796542     A.U. after   19 cycles
 Normal termination of Gaussian 16 at Wed Apr  9 04:04:02 2025.
 Gaussian 16:  ES64L-G16RevC.01  3-Jul-2019

 ----------------------------------------------------------------------
 #t hf aug-cc-pvdz iop(5/13=1,5/36=2,99/5=2) pseudo=read geom=check gue
 ss=(read,tcheck) scf=(maxcycle=1)
 ----------------------------------------------------------------------
 -----
 title
 -----
 Structure from the checkpoint file:  "Grambow2020_wb97xd3_009090_reverse_mol1.chk"
 Charge =  0 Multiplicity = 1

                         Standard orientation:
 ---------------------------------------------------------------------
 Center     Atomic      Atomic             Coordinates (Angstroms)
 Number     Number       Type             X           Y           Z
 ---------------------------------------------------------------------
      1          8           0       -0.688223    1.769573   -0.290050
      2          6           0       -0.662635    0.632664    0.057244
      3          6           0       -1.595985   -0.369945    0.512826
      4          6           0       -0.654377   -1.087469   -0.498241
      5          6           0        0.661984   -1.411112   -0.062690
      6          6           0        1.166276   -0.164270    0.139776
      7          8           0        2.017137    0.646913    0.127503
      8          1           0       -1.526144   -0.795454    1.509391
      9          1           0       -2.620228   -0.192727    0.188797
     10          1           0       -1.108636   -1.564602   -1.365028
     11          1           0        1.132120   -2.378310    0.073739
 ---------------------------------------------------------------------

 SCF Done:  E(RHF) =  -341.576191541     A.U. after    2 cycles

 The electronic state is 1-A.
 Alpha  occ. eigenvalues --  -20.56811 -20.56001 -11.37873 -11.36680 -11.34265
 Alpha  occ. eigenvalues --  -11.28941 -11.28749  -1.51384  -1.49434  -1.20183
 Alpha  occ. eigenvalues --   -1.05588  -0.87779  -0.81092  -0.73933  -0.72200
 Alpha  occ. eigenvalues --   -0.68889  -0.67387  -0.62545  -0.61612  -0.59824
 Alpha  occ. eigenvalues --   -0.57792  -0.51566  -0.50057  -0.37462  -0.32911
 Alpha virt. eigenvalues --    0.00857   0.02636   0.03251   0.03752   0.05558
 Alpha virt. eigenvalues --    0.07029   0.08937   0.10330   0.11083   0.11673
 Alpha virt. eigenvalues --    0.13147   0.13724   0.14369   0.14561   0.15206

 Mulliken charges:
               1
     1  O   -1.394512
     2  C    1.241843
     3  C    0.115853
     4  C   -0.085583
     5  C    0.711185
     6  C    0.534915
     7  O   -1.103721
     8  H    0.063008
     9  H    0.061057
    10  H   -0.099825
    11  H   -0.044219
 Sum of Mulliken charges =  -0.00000

 Dipole moment (field-independent basis, Debye):
    X=             -2.9039    Y=             -5.1853    Z=              0.5082  Tot=              5.9648

 Test job not archived.
 1\1\GINC-SE041\SP\RHF\Aug-CC-pVDZ\C5H4O2\OHZDE\09-Apr-2025\0\\#t hf au
 g-cc-pvdz iop(5/13=1,5/36=2,99/5=2) pseudo=read geom=check guess=(read
 ,tcheck) scf=(maxcycle=1)\\title\\0,1\O,0,-0.42790854,1.90983606,-1.15
 664898\C,0,-0.40743286,0.95924313,-0.44265767\C,0,-1.33427272,-0.03312
 332,0.04734029\C,0,-0.03905244,-0.80722095,-0.33593622\C,0,1.07758106,
 -0.70568458,0.54160383\C,0,1.35573611,0.62110541,0.43125915\O,0,2.0745
 5018,1.54999284,0.3801993\H,0,-1.56356289,-0.11831725,1.10528417\H,0,-
 2.2006559,-0.17721352,-0.5961593\H,0,-0.12276881,-1.60426557,-1.072846

 Normal termination of Gaussian 16 at Wed Apr  9 04:04:07 2025.
