 Gaussian 16, Revision C.01,

 ----------------------------------------------------------------------
 #t hf aug-cc-pvdz symm=none int=(grid=ultrafine) guess=(read,tcheck) s
 table=(opt,rrhf)
 ----------------------------------------------------------------------
 -----
 title
 -----
 Symbolic Z-matrix:
 Charge =  0 Multiplicity = 1

 SCF Done:  E(RHF) =  -269.858116598     A.U. after   15 cycles

 1\1\GINC-SE042\Stability\RHF\Aug-CC-pVDZ\C5H10O1\OHZDE\09-Apr-2025\0\\
 #t hf aug-cc-pvdz symm=none int=(grid=ultrafine) guess=(read,tcheck) s
 table=(opt,rrhf)\\title\\0,1\O,0,2.34801634,0.6156782,0.98261677\C,0,1
 .64701791,-0.52507439,1.06589825\C,0,0.31489347,-0.5291452,-0.71054805
 \C,0,-1.04035246,-1.03177959,-0.21325781\C,0,-1.43721232,0.43509627,0.
 08548222\C,0,-0.19446289,0.90535633,-0.70825367\H,0,1.84368883,1.38640
 717,1.27271824\H,0,1.33766359,-1.00907759,-0.02217642\H,0,0.72814765,-
 0.41149018,1.65391124\H,0,0.73065532,-0.93021186,-1.63792828\H,0,-1.02

 Normal termination of Gaussian 16 at Wed Apr  9 16:52:15 2025.
 Gaussian 16:  ES64L-G16RevC.01  3-Jul-2019

 ----------------------------------------------------------------------
 #t hf aug-cc-pvdz iop(5/13=1,5/36=2,99/5=2) pseudo=read geom=check gue
 ss=(read,tcheck) scf=(maxcycle=1)
 ----------------------------------------------------------------------
 -----
 title
 -----
 Structure from the checkpoint file:  "Grambow2020_wb97xd3_006161_reverse_mol1.chk"
 Charge =  0 Multiplicity = 1

                         Standard orientation:
 ---------------------------------------------------------------------
 Center     Atomic      Atomic             Coordinates (Angstroms)
 Number     Number       Type             X           Y           Z
 ---------------------------------------------------------------------
      1          8           0       -2.317976    0.328802   -0.050957
      2          6           0       -1.572341   -0.759226   -0.295650
      3          6           0        0.324952   -0.434484    0.811219
      4          6           0        1.438849   -0.898277   -0.127269
      5          6           0        1.517344    0.541823   -0.691554
      6          6           0        0.623020    1.020512    0.477475
      7          1           0       -2.055824    1.089492   -0.584956
      8          1           0       -0.818556   -1.073130    0.624752
      9          1           0       -0.965698   -0.657205   -1.203703
     10          1           0        0.342585   -0.739935    1.860092
     11          1           0        1.184169   -1.695954   -0.828950
     12          1           0        2.344990   -1.194931    0.404531
     13          1           0        2.510220    0.985801   -0.749731
     14          1           0        1.042154    0.644003   -1.667503
     15          1           0       -0.223712    1.673042    0.241548
     16          1           0        1.192537    1.516318    1.266257
 ---------------------------------------------------------------------

 SCF Done:  E(RHF) =  -270.147301125     A.U. after    2 cycles

 The electronic state is 1-A.
 Alpha  occ. eigenvalues --  -20.57986 -11.29402 -11.25832 -11.24211 -11.23908
 Alpha  occ. eigenvalues --  -11.23883  -1.49298  -1.14780  -0.93776  -0.91605
 Alpha  occ. eigenvalues --   -0.87023  -0.75778  -0.73015  -0.68444  -0.66213
 Alpha  occ. eigenvalues --   -0.60478  -0.58034  -0.54690  -0.52445  -0.50497
 Alpha  occ. eigenvalues --   -0.48429  -0.46636  -0.45906  -0.30801
 Alpha virt. eigenvalues --    0.03160   0.03345   0.03777   0.04446   0.06099
 Alpha virt. eigenvalues --    0.06248   0.06741   0.07100   0.09206   0.09959
 Alpha virt. eigenvalues --    0.11838   0.12698   0.13049   0.13432   0.14088

 Mulliken charges:
               1
     1  O   -0.995695
     2  C    0.233894
     3  C   -0.673168
     4  C    0.167633
     5  C   -0.142986
     6  C    0.359576
     7  H    0.357506
     8  H    0.654000
     9  H    0.090527
    10  H   -0.151655
    11  H   -0.008394
    12  H    0.055522
    13  H   -0.017077
    14  H    0.038788
    15  H   -0.038573
    16  H    0.070103
 Sum of Mulliken charges =  -0.00000

 Dipole moment (field-independent basis, Debye):
    X=              2.5465    Y=              1.8284    Z=             -0.6758  Tot=              3.2069

 Test job not archived.
 1\1\GINC-SE042\SP\RHF\Aug-CC-pVDZ\C5H10O1\OHZDE\09-Apr-2025\0\\#t hf a
 ug-cc-pvdz iop(5/13=1,5/36=2,99/5=2) pseudo=read geom=check guess=(rea
 d,tcheck) scf=(maxcycle=1)\\title\\0,1\O,0,2.34801634,0.6156782,0.9826
 1677\C,0,1.64701791,-0.52507439,1.06589825\C,0,0.31489347,-0.5291452,-
 0.71054805\C,0,-1.04035246,-1.03177959,-0.21325781\C,0,-1.43721232,0.4
 3509627,0.08548222\C,0,-0.19446289,0.90535633,-0.70825367\H,0,1.843688
 83,1.38640717,1.27271824\H,0,1.33766359,-1.00907759,-0.02217642\H,0,0.
 72814765,-0.41149018,1.65391124\H,0,0.73065532,-0.93021186,-1.63792828

 Normal termination of Gaussian 16 at Wed Apr  9 16:52:20 2025.
