 Gaussian 16, Revision C.01,

 ----------------------------------------------------------------------
 #t hf aug-cc-pvdz symm=none int=(grid=ultrafine) guess=(read,tcheck) s
 table=(opt,rrhf)
 ----------------------------------------------------------------------
 -----
 title
 -----
 Symbolic Z-matrix:
 Charge =  0 Multiplicity = 1

 SCF Done:  E(RHF) =  -332.414474203     A.U. after   17 cycles
 Normal termination of Gaussian 16 at Wed Apr  9 19:15:41 2025.
 Gaussian 16:  ES64L-G16RevC.01  3-Jul-2019

 ----------------------------------------------------------------------
 #t hf aug-cc-pvdz iop(5/13=1,5/36=2,99/5=2) pseudo=read geom=check gue
 ss=(read,tcheck) scf=(maxcycle=1)
 ----------------------------------------------------------------------
 -----
 title
 -----
 Structure from the checkpoint file:  "Grambow2020_wb97xd3_009005_reverse_mol2.chk"
 Charge =  0 Multiplicity = 1

                         Standard orientation:
 ---------------------------------------------------------------------
 Center     Atomic      Atomic             Coordinates (Angstroms)
 Number     Number       Type             X           Y           Z
 ---------------------------------------------------------------------
      1          7           0       -2.193043    1.032491   -0.000031
      2          6           0       -1.513472    0.104357   -0.000076
      3          6           0        1.238762    1.898713   -0.000129
      4          6           0       -0.833347   -1.133086    0.000067
      5          7           0        0.470242   -1.317759   -0.000093
      6          7           0        1.530529   -0.568672   -0.000018
      7          7           0        1.237016    0.726133    0.000248
      8          1           0       -1.423392   -2.036391    0.000725
      9          1           0        0.758518   -2.288859   -0.000644
 ---------------------------------------------------------------------

 SCF Done:  E(RHF) =  -332.735363702     A.U. after    2 cycles

 The electronic state is 1-A.
 Alpha  occ. eigenvalues --  -15.72048 -15.61781 -15.57455 -15.53976 -11.36257
 Alpha  occ. eigenvalues --  -11.30847 -11.30052  -1.47431  -1.31957  -1.25971
 Alpha  occ. eigenvalues --   -1.18895  -1.05478  -0.92567  -0.86932  -0.74086
 Alpha  occ. eigenvalues --   -0.72249  -0.67263  -0.62736  -0.59718  -0.55173
 Alpha  occ. eigenvalues --   -0.54356  -0.50330  -0.49382  -0.37665
 Alpha virt. eigenvalues --   -0.01558   0.00850   0.03801   0.06563   0.07789
 Alpha virt. eigenvalues --    0.08618   0.09920   0.10290   0.10463   0.11319
 Alpha virt. eigenvalues --    0.12455   0.13055   0.13914   0.14620   0.16390

 Mulliken charges:
               1
     1  N    1.090816
     2  C   -2.145406
     3  C   -0.447761
     4  C    0.855157
     5  N    0.022914
     6  N   -0.098054
     7  N    0.483222
     8  H   -0.098312
     9  H    0.337424
 Sum of Mulliken charges =  -0.00000

 Dipole moment (field-independent basis, Debye):
    X=             -0.3111    Y=             -7.2276    Z=             -0.0003  Tot=              7.2343

 Test job not archived.
 1\1\GINC-SE226\SP\RHF\Aug-CC-pVDZ\C3H2N4\OHZDE\09-Apr-2025\0\\#t hf au
 g-cc-pvdz iop(5/13=1,5/36=2,99/5=2) pseudo=read geom=check guess=(read
 ,tcheck) scf=(maxcycle=1)\\title\\0,1\N,0,2.46808143,-0.18295307,-0.64
 317126\C,0,1.34884775,-0.43511586,-0.55963263\C,0,0.69883911,2.2341952
 7,1.24224775\C,0,0.01292644,-0.89243988,-0.55750854\N,0,-1.01829744,-0
 .31573136,0.02338249\N,0,-1.22830021,0.75108356,0.73270791\N,0,-0.1198
 9359,1.45420069,0.93203473\H,0,-0.21045478,-1.80902469,-1.08104035\H,0
 ,-1.89669272,-0.80668366,-0.0929171\\Version=ES64L-G16RevC.01\State=1-

 Normal termination of Gaussian 16 at Wed Apr  9 19:15:45 2025.
