 Gaussian 16, Revision C.01,

 ----------------------------------------------------------------------
 #t hf aug-cc-pvdz symm=none int=(grid=ultrafine) guess=(read,tcheck) s
 table=(opt,rrhf)
 ----------------------------------------------------------------------
 -----
 title
 -----
 Symbolic Z-matrix:
 Charge =  0 Multiplicity = 1

 SCF Done:  E(RHF) =  -268.813104851     A.U. after   13 cycles
 Normal termination of Gaussian 16 at Wed Apr  9 03:21:03 2025.
 Gaussian 16:  ES64L-G16RevC.01  3-Jul-2019

 ----------------------------------------------------------------------
 #t hf aug-cc-pvdz iop(5/13=1,5/36=2,99/5=2) pseudo=read geom=check gue
 ss=(read,tcheck) scf=(maxcycle=1)
 ----------------------------------------------------------------------
 -----
 title
 -----
 Structure from the checkpoint file:  "Grambow2020_wb97xd3_006046_forward_mol2.chk"
 Charge =  0 Multiplicity = 1

                         Standard orientation:
 ---------------------------------------------------------------------
 Center     Atomic      Atomic             Coordinates (Angstroms)
 Number     Number       Type             X           Y           Z
 ---------------------------------------------------------------------
      1          6           0        1.991259    1.061342    0.145114
      2          8           0        1.844746   -0.196678   -0.465989
      3          6           0        0.897226   -1.017977    0.169207
      4          6           0       -0.480089   -0.513592    0.086753
      5          6           0       -1.603722   -0.100669    0.020794
      6          6           0       -2.971895    0.395837   -0.061129
      7          1           0        2.285189    0.959290    1.198419
      8          1           0        2.777684    1.588515   -0.392601
      9          1           0        1.065042    1.644629    0.094817
     10          1           0        0.959568   -1.989906   -0.322759
     11          1           0        1.162800   -1.162059    1.226470
     12          1           0       -3.389007    0.228198   -1.055046
     13          1           0       -3.607934   -0.110949    0.666160
     14          1           0       -3.007992    1.466059    0.148018
 ---------------------------------------------------------------------

 SCF Done:  E(RHF) =  -269.097301532     A.U. after    2 cycles

 The electronic state is 1-A.
 Alpha  occ. eigenvalues --  -20.54785 -11.30769 -11.27714 -11.25918 -11.23625
 Alpha  occ. eigenvalues --  -11.22556  -1.46993  -1.06817  -1.00704  -0.95050
 Alpha  occ. eigenvalues --   -0.88749  -0.70142  -0.67035  -0.66505  -0.63894
 Alpha  occ. eigenvalues --   -0.59810  -0.59644  -0.58231  -0.54919  -0.49218
 Alpha  occ. eigenvalues --   -0.42908  -0.38922  -0.38030
 Alpha virt. eigenvalues --    0.03302   0.04023   0.04408   0.04895   0.05947
 Alpha virt. eigenvalues --    0.06207   0.07458   0.07709   0.10092   0.11380
 Alpha virt. eigenvalues --    0.12405   0.13590   0.13906   0.15113   0.15710

 Mulliken charges:
               1
     1  C    0.209226
     2  O   -1.196915
     3  C    0.162257
     4  C    0.216152
     5  C   -0.112725
     6  C   -0.814286
     7  H    0.168246
     8  H   -0.017443
     9  H    0.202759
    10  H    0.086941
    11  H    0.281483
    12  H    0.274439
    13  H    0.272040
    14  H    0.267824
 Sum of Mulliken charges =  -0.00000

 Dipole moment (field-independent basis, Debye):
    X=             -1.1555    Y=              0.6176    Z=              1.0467  Tot=              1.6769

 Test job not archived.
 1\1\GINC-SE029\SP\RHF\Aug-CC-pVDZ\C5H8O1\OHZDE\09-Apr-2025\0\\#t hf au
 g-cc-pvdz iop(5/13=1,5/36=2,99/5=2) pseudo=read geom=check guess=(read
 ,tcheck) scf=(maxcycle=1)\\title\\0,1\C,0,-2.30134524,0.24555556,-0.14
 645882\O,0,-1.80111764,-1.06863869,-0.1325356\C,0,-0.6982077,-1.254313
 55,-0.98395526\C,0,0.49878591,-0.50350148,-0.58184945\C,0,1.47487274,0
 .1108344,-0.25435513\C,0,2.66512044,0.8527529,0.14312895\H,0,-2.602697
 44,0.54498814,-1.15927104\H,0,-3.17541291,0.26200673,0.50257687\H,0,-1
 .56119799,0.9629264,0.22528429\H,0,-0.47999956,-2.32330065,-0.96931043

 Normal termination of Gaussian 16 at Wed Apr  9 03:21:08 2025.
