 Gaussian 16, Revision C.01,

 ----------------------------------------------------------------------
 #t hf aug-cc-pvdz symm=none int=(grid=ultrafine) guess=(read,tcheck) s
 table=(opt,rrhf)
 ----------------------------------------------------------------------
 -----
 title
 -----
 Symbolic Z-matrix:
 Charge =  0 Multiplicity = 1

 SCF Done:  E(RHF) =  -307.813878350     A.U. after   15 cycles

 1\1\GINC-SE131\Stability\RHF\Aug-CC-pVDZ\C6H10O1\OHZDE\09-Apr-2025\0\\
 #t hf aug-cc-pvdz symm=none int=(grid=ultrafine) guess=(read,tcheck) s
 table=(opt,rrhf)\\title\\0,1\C,0,1.85228273,-0.55541234,0.23949238\C,0
 ,0.52744805,0.14521498,0.48106515\C,0,0.19636586,1.29301824,-0.4875200
 8\C,0,-1.26655252,1.47611249,-0.61398461\C,0,-1.82091362,0.29483112,0.
 08676033\C,0,-0.72429687,-0.74245162,0.36998928\O,0,-0.64920237,-1.722
 81085,-0.65009714\H,0,1.87955099,-1.01242253,-0.75100129\H,0,2.6828142
 8,0.14967767,0.31241678\H,0,2.02066673,-1.34871658,0.97000111\H,0,0.52

 Normal termination of Gaussian 16 at Wed Apr  9 18:37:43 2025.
 Gaussian 16:  ES64L-G16RevC.01  3-Jul-2019

 ----------------------------------------------------------------------
 #t hf aug-cc-pvdz iop(5/13=1,5/36=2,99/5=2) pseudo=read geom=check gue
 ss=(read,tcheck) scf=(maxcycle=1)
 ----------------------------------------------------------------------
 -----
 title
 -----
 Structure from the checkpoint file:  "Grambow2020_wb97xd3_007823_reverse_mol2.chk"
 Charge =  0 Multiplicity = 1

                         Standard orientation:
 ---------------------------------------------------------------------
 Center     Atomic      Atomic             Coordinates (Angstroms)
 Number     Number       Type             X           Y           Z
 ---------------------------------------------------------------------
      1          6           0       -2.124884   -0.218903    0.050530
      2          6           0       -0.683069   -0.426462    0.477746
      3          6           0        0.133623   -1.399033   -0.389632
      4          6           0        1.576476   -1.075025   -0.336308
      5          6           0        1.608574    0.228283    0.366646
      6          6           0        0.200627    0.832975    0.470443
      7          8           0       -0.071074    1.723725   -0.597294
      8          1           0       -2.179645    0.196039   -0.957193
      9          1           0       -2.672062   -1.163761    0.060176
     10          1           0       -2.640597    0.474167    0.717628
     11          1           0       -0.669745   -0.813258    1.503722
     12          1           0       -0.037204   -1.194639   -1.467361
     13          1           0       -0.096687   -2.461347   -0.289004
     14          1           0        1.917366   -0.158995    1.358432
     15          1           0        2.403130    0.915089    0.069808
     16          1           0        0.059417    1.431371    1.371473
     17          1           0        0.216539    1.334534   -1.425875
 ---------------------------------------------------------------------

 SCF Done:  E(RHF) =  -308.138068273     A.U. after    2 cycles

 The electronic state is 1-A.
 Alpha  occ. eigenvalues --  -20.55408 -11.29155 -11.26667 -11.24218 -11.24197
 Alpha  occ. eigenvalues --  -11.24110 -11.22871  -1.45922  -1.14972  -1.02547
 Alpha  occ. eigenvalues --   -0.97366  -0.90368  -0.79700  -0.73813  -0.69962
 Alpha  occ. eigenvalues --   -0.66196  -0.62773  -0.60971  -0.57934  -0.55343
 Alpha  occ. eigenvalues --   -0.54597  -0.52294  -0.50355  -0.48935  -0.48271
 Alpha  occ. eigenvalues --   -0.43806  -0.35394
 Alpha virt. eigenvalues --    0.03142   0.03526   0.03950   0.04115   0.05884
 Alpha virt. eigenvalues --    0.06041   0.06232   0.06980   0.07523   0.08102
 Alpha virt. eigenvalues --    0.09591   0.10950   0.12510   0.13746   0.13870

 Mulliken charges:
               1
     1  C   -0.037647
     2  C   -1.127400
     3  C    0.025061
     4  C   -0.494449
     5  C   -0.320152
     6  C    1.400733
     7  O   -1.451875
     8  H    0.227199
     9  H    0.178530
    10  H    0.185291
    11  H    0.128362
    12  H    0.311063
    13  H    0.099704
    14  H    0.368656
    15  H    0.110482
    16  H    0.112638
    17  H    0.283802
 Sum of Mulliken charges =  -0.00000

 Dipole moment (field-independent basis, Debye):
    X=             -1.2634    Y=             -0.2415    Z=              0.8482  Tot=              1.5408

 Test job not archived.
 1\1\GINC-SE131\SP\RHF\Aug-CC-pVDZ\C6H10O1\OHZDE\09-Apr-2025\0\\#t hf a
 ug-cc-pvdz iop(5/13=1,5/36=2,99/5=2) pseudo=read geom=check guess=(rea
 d,tcheck) scf=(maxcycle=1)\\title\\0,1\C,0,1.85228273,-0.55541234,0.23
 949238\C,0,0.52744805,0.14521498,0.48106515\C,0,0.19636586,1.29301824,
 -0.48752008\C,0,-1.26655252,1.47611249,-0.61398461\C,0,-1.82091362,0.2
 9483112,0.08676033\C,0,-0.72429687,-0.74245162,0.36998928\O,0,-0.64920
 237,-1.72281085,-0.65009714\H,0,1.87955099,-1.01242253,-0.75100129\H,0
 ,2.68281428,0.14967767,0.31241678\H,0,2.02066673,-1.34871658,0.9700011

 Normal termination of Gaussian 16 at Wed Apr  9 18:37:50 2025.
