 Gaussian 16, Revision C.01,

 ----------------------------------------------------------------------
 #t hf aug-cc-pvdz symm=none int=(grid=ultrafine) guess=(read,tcheck) s
 table=(opt,rrhf)
 ----------------------------------------------------------------------
 -----
 title
 -----
 Symbolic Z-matrix:
 Charge =  0 Multiplicity = 1

 SCF Done:  E(RHF) =  -317.586228396     A.U. after   16 cycles
 Normal termination of Gaussian 16 at Wed Apr  9 18:47:25 2025.
 Gaussian 16:  ES64L-G16RevC.01  3-Jul-2019

 ----------------------------------------------------------------------
 #t hf aug-cc-pvdz iop(5/13=1,5/36=2,99/5=2) pseudo=read geom=check gue
 ss=(read,tcheck) scf=(maxcycle=1)
 ----------------------------------------------------------------------
 -----
 title
 -----
 Structure from the checkpoint file:  "Grambow2020_wb97xd3_008064_reverse_mol1.chk"
 Charge =  0 Multiplicity = 1

                         Standard orientation:
 ---------------------------------------------------------------------
 Center     Atomic      Atomic             Coordinates (Angstroms)
 Number     Number       Type             X           Y           Z
 ---------------------------------------------------------------------
      1          7           0       -2.450403   -0.252408   -0.716521
      2          6           0       -1.524248   -0.101830   -0.055733
      3          6           0       -0.323238    0.135622    0.777246
      4          6           0        0.676720   -1.029680    0.611782
      5          7           0        1.495689   -0.704434   -0.556279
      6          6           0        1.576513    0.418619   -0.941058
      7          7           0        0.345650    1.370879    0.496037
      8          1           0       -0.642043    0.095853    1.827223
      9          1           0        1.351423   -1.077331    1.467503
     10          1           0        0.192196   -1.995256    0.482289
     11          1           0        1.258033    1.481630   -0.870611
     12          1           0       -0.330646    2.060461    0.177518
 ---------------------------------------------------------------------

 SCF Done:  E(RHF) =  -317.902438155     A.U. after    2 cycles

 The electronic state is 1-A.
 Alpha  occ. eigenvalues --  -15.57030 -15.51621 -15.49212 -11.36727 -11.32505
 Alpha  occ. eigenvalues --  -11.32427 -11.27924  -1.33564  -1.24290  -1.18162
 Alpha  occ. eigenvalues --   -1.05754  -0.92851  -0.83519  -0.76911  -0.73470
 Alpha  occ. eigenvalues --   -0.68431  -0.65451  -0.62315  -0.60747  -0.55836
 Alpha  occ. eigenvalues --   -0.54838  -0.51012  -0.49620  -0.47444  -0.38788
 Alpha virt. eigenvalues --    0.02952   0.03676   0.04536   0.04805   0.05017
 Alpha virt. eigenvalues --    0.06981   0.07511   0.08305   0.09310   0.10521
 Alpha virt. eigenvalues --    0.11515   0.12721   0.13029   0.14029   0.14635

 Mulliken charges:
               1
     1  N    1.048567
     2  C   -1.771410
     3  C   -0.505516
     4  C   -0.207845
     5  N    0.871316
     6  C   -0.523165
     7  N    0.162366
     8  H    0.168405
     9  H    0.131587
    10  H    0.132251
    11  H    0.329907
    12  H    0.163538
 Sum of Mulliken charges =  -0.00000

 Dipole moment (field-independent basis, Debye):
    X=              3.2102    Y=             -0.0527    Z=              1.4009  Tot=              3.5029

 Test job not archived.
 1\1\GINC-SE192\SP\RHF\Aug-CC-pVDZ\C4H5N3\OHZDE\09-Apr-2025\0\\#t hf au
 g-cc-pvdz iop(5/13=1,5/36=2,99/5=2) pseudo=read geom=check guess=(read
 ,tcheck) scf=(maxcycle=1)\\title\\0,1\N,0,2.17883154,-0.8184981,1.5065
 248\C,0,1.48331032,-0.49998154,0.65102728\C,0,0.58619906,-0.04448409,-
 0.43542356\C,0,-0.67398088,-0.9355149,-0.49227707\N,0,-1.62725281,-0.3
 584444,0.45594392\C,0,-1.52027185,0.77470161,0.80289132\N,0,0.18626157
 ,1.32665123,-0.32412272\H,0,1.1084521,-0.22177219,-1.38489239\H,0,-1.1
 3614499,-0.87953544,-1.47869643\H,0,-0.47417798,-1.9767731,-0.2478805\

 Normal termination of Gaussian 16 at Wed Apr  9 18:47:29 2025.
