 Gaussian 16, Revision C.01,

 ----------------------------------------------------------------------
 #t hf aug-cc-pvdz symm=none int=(grid=ultrafine) guess=(read,tcheck) s
 table=(opt,rrhf)
 ----------------------------------------------------------------------
 -----
 title
 -----
 Symbolic Z-matrix:
 Charge =  0 Multiplicity = 1

 SCF Done:  E(RHF) =  -302.779065894     A.U. after   15 cycles
 Normal termination of Gaussian 16 at Wed Apr  9 18:15:15 2025.
 Gaussian 16:  ES64L-G16RevC.01  3-Jul-2019

 ----------------------------------------------------------------------
 #t hf aug-cc-pvdz iop(5/13=1,5/36=2,99/5=2) pseudo=read geom=check gue
 ss=(read,tcheck) scf=(maxcycle=1)
 ----------------------------------------------------------------------
 -----
 title
 -----
 Structure from the checkpoint file:  "Grambow2020_wb97xd3_007246_reverse_mol2.chk"
 Charge =  0 Multiplicity = 1

                         Standard orientation:
 ---------------------------------------------------------------------
 Center     Atomic      Atomic             Coordinates (Angstroms)
 Number     Number       Type             X           Y           Z
 ---------------------------------------------------------------------
      1          6           0       -2.242078   -0.718415    0.584052
      2          7           0       -1.163361   -0.180943   -0.447653
      3          6           0       -0.717844    1.156465   -0.147249
      4          7           0        0.518124    1.234073    0.130452
      5          6           0        1.039084   -0.078062   -0.042751
      6          6           0        2.475317   -0.336269    0.220256
      7          6           0        0.071153   -0.921533   -0.401514
      8          1           0       -1.725563   -0.591551    1.546588
      9          1           0       -3.017925    0.061237    0.534793
     10          1           0       -1.625662   -0.249576   -1.350439
     11          1           0       -1.447931    1.952739   -0.110933
     12          1           0        3.094587    0.292090   -0.421796
     13          1           0        2.714626   -0.082508    1.254397
     14          1           0        2.727109   -1.380947    0.044661
     15          1           0        0.043623   -1.986509   -0.553630
 ---------------------------------------------------------------------

 SCF Done:  E(RHF) =  -303.096953483     A.U. after    2 cycles

 The electronic state is 1-A.
 Alpha  occ. eigenvalues --  -15.61756 -15.53281 -11.34700 -11.30032 -11.28690
 Alpha  occ. eigenvalues --  -11.25495 -11.19730  -1.37688  -1.23502  -1.08707
 Alpha  occ. eigenvalues --   -0.98714  -0.89956  -0.86991  -0.83631  -0.79152
 Alpha  occ. eigenvalues --   -0.70227  -0.64162  -0.63807  -0.60512  -0.58887
 Alpha  occ. eigenvalues --   -0.57409  -0.52555  -0.52307  -0.50199  -0.38374
 Alpha  occ. eigenvalues --   -0.29083
 Alpha virt. eigenvalues --    0.02828   0.03640   0.04237   0.04511   0.05119
 Alpha virt. eigenvalues --    0.05536   0.06042   0.07568   0.08112   0.09944
 Alpha virt. eigenvalues --    0.10683   0.11664   0.12266   0.13643   0.13821

 Mulliken charges:
               1
     1  C   -0.545448
     2  N    0.450258
     3  C   -0.757675
     4  N    0.906209
     5  C   -0.192644
     6  C   -0.691476
     7  C   -0.234263
     8  H    0.123105
     9  H    0.025484
    10  H    0.433439
    11  H   -0.069590
    12  H    0.265063
    13  H    0.269810
    14  H    0.205912
    15  H   -0.188184
 Sum of Mulliken charges =  -0.00000

 Dipole moment (field-independent basis, Debye):
    X=              2.3608    Y=              1.2402    Z=             -2.6206  Tot=              3.7389

 Test job not archived.
 1\1\GINC-SE454\SP\RHF\Aug-CC-pVDZ\C5H8N2\OHZDE\09-Apr-2025\0\\#t hf au
 g-cc-pvdz iop(5/13=1,5/36=2,99/5=2) pseudo=read geom=check guess=(read
 ,tcheck) scf=(maxcycle=1)\\title\\0,1\C,0,-2.31521002,-0.19297876,-0.6
 4034165\N,0,-1.19365823,0.40418555,0.30962519\C,0,-0.65764681,-0.57070
 745,1.22595738\N,0,0.57858462,-0.80457396,1.05924036\C,0,1.0074513,0.0
 8192173,0.0329384\C,0,2.41998817,0.0524416,-0.41703899\C,0,-0.01455733
 ,0.81536011,-0.40820745\H,0,-1.79835576,-1.04778058,-1.10026869\H,0,-3
 .03402311,-0.60820105,0.08292953\H,0,-1.6527985,1.17881283,0.78142955\

 Normal termination of Gaussian 16 at Wed Apr  9 18:15:20 2025.
