 Gaussian 16, Revision C.01,

 ----------------------------------------------------------------------
 #t hf aug-cc-pvdz symm=none int=(grid=ultrafine) guess=(read,tcheck) s
 table=(opt,rrhf)
 ----------------------------------------------------------------------
 -----
 title
 -----
 Symbolic Z-matrix:
 Charge =  0 Multiplicity = 1

 SCF Done:  E(RHF) =  -268.746548608     A.U. after   17 cycles
 Normal termination of Gaussian 16 at Wed Apr  9 03:05:38 2025.
 Gaussian 16:  ES64L-G16RevC.01  3-Jul-2019

 ----------------------------------------------------------------------
 #t hf aug-cc-pvdz iop(5/13=1,5/36=2,99/5=2) pseudo=read geom=check gue
 ss=(read,tcheck) scf=(maxcycle=1)
 ----------------------------------------------------------------------
 -----
 title
 -----
 Structure from the checkpoint file:  "Grambow2020_b97d3_006488_forward_mol1.chk"
 Charge =  0 Multiplicity = 1

                         Standard orientation:
 ---------------------------------------------------------------------
 Center     Atomic      Atomic             Coordinates (Angstroms)
 Number     Number       Type             X           Y           Z
 ---------------------------------------------------------------------
      1          8           0       -2.217919   -0.154600   -0.101054
      2          6           0       -0.983229   -0.003027    0.037066
      3          6           0        0.037065   -1.108396    0.273544
      4          6           0        1.366466   -0.693333   -0.375315
      5          6           0        1.810009    0.676714    0.147863
      6          6           0       -0.632040    1.374288    0.101765
      7          1           0        0.162089   -1.238972    1.361195
      8          1           0       -0.356035   -2.050676   -0.129409
      9          1           0        2.154713   -1.437117   -0.182754
     10          1           0        1.230943   -0.644749   -1.465631
     11          1           0        2.510461    1.205616   -0.508942
     12          1           0        2.208900    0.625942    1.170296
     13          1           0        0.902591    1.383310    0.310778
     14          1           0       -0.659939    1.915963   -0.856639
 ---------------------------------------------------------------------

 SCF Done:  E(RHF) =  -269.024960193     A.U. after    2 cycles

 The electronic state is 1-A.
 Alpha  occ. eigenvalues --  -20.52454 -11.34515 -11.29795 -11.27930 -11.26778
 Alpha  occ. eigenvalues --  -11.26505  -1.44180  -1.12083  -0.99550  -0.97726
 Alpha  occ. eigenvalues --   -0.84887  -0.73492  -0.68094  -0.66364  -0.61638
 Alpha  occ. eigenvalues --   -0.60428  -0.57881  -0.57238  -0.52782  -0.52108
 Alpha  occ. eigenvalues --   -0.49411  -0.41030  -0.36972
 Alpha virt. eigenvalues --    0.02511   0.03198   0.03539   0.04498   0.05974
 Alpha virt. eigenvalues --    0.06339   0.06642   0.07118   0.07864   0.10542
 Alpha virt. eigenvalues --    0.12026   0.12640   0.13529   0.14289   0.14422

 Mulliken charges:
               1
     1  O   -1.394309
     2  C    1.371667
     3  C   -0.400235
     4  C   -0.340264
     5  C   -0.247926
     6  C   -0.483819
     7  H    0.269778
     8  H    0.177115
     9  H    0.180235
    10  H    0.150328
    11  H    0.161012
    12  H    0.211754
    13  H    0.187191
    14  H    0.157475
 Sum of Mulliken charges =  -0.00000

 Dipole moment (field-independent basis, Debye):
    X=              4.9347    Y=             -0.6457    Z=             -0.8595  Tot=              5.0505

 Test job not archived.
 1\1\GINC-SE021\SP\RHF\Aug-CC-pVDZ\C5H8O1\OHZDE\09-Apr-2025\0\\#t hf au
 g-cc-pvdz iop(5/13=1,5/36=2,99/5=2) pseudo=read geom=check guess=(read
 ,tcheck) scf=(maxcycle=1)\\title\\0,1\O,0,-0.91634265,2.53238128,-0.46
 839998\C,0,-0.41579721,1.42925026,-0.1536521\C,0,-1.18026936,0.1891320
 4,0.28957742\C,0,-0.40431959,-1.05413318,-0.17172072\C,0,1.03815469,-1
 .0031623,0.34222979\C,0,1.00467638,1.49678549,-0.10663529\H,0,-1.26365
 301,0.20676971,1.3888507\H,0,-2.19787953,0.23050673,-0.11974825\H,0,-0
 .88932961,-1.97948309,0.17486199\H,0,-0.40250268,-1.08544736,-1.271053

 Normal termination of Gaussian 16 at Wed Apr  9 03:05:43 2025.
