 Gaussian 16, Revision C.01,

 ----------------------------------------------------------------------
 #t hf aug-cc-pvdz symm=none int=(grid=ultrafine) guess=(read,tcheck) s
 table=(opt,rrhf)
 ----------------------------------------------------------------------
 -----
 title
 -----
 Symbolic Z-matrix:
 Charge =  0 Multiplicity = 1

 SCF Done:  E(RHF) =  -307.730018482     A.U. after   15 cycles

 1\1\GINC-SE322\Stability\RHF\Aug-CC-pVDZ\C6H10O1\OHZDE\09-Apr-2025\0\\
 #t hf aug-cc-pvdz symm=none int=(grid=ultrafine) guess=(read,tcheck) s
 table=(opt,rrhf)\\title\\0,1\C,0,1.92914459,0.50563429,-0.39985561\C,0
 ,0.53407783,0.132926,0.02022113\C,0,0.17971851,-1.33064051,0.14247928\
 C,0,-1.32428127,-1.20434055,-0.04642348\C,0,-0.67789098,0.66438379,-0.
 78576046\C,0,-0.93952533,1.4755441,0.46296727\O,0,0.12024621,0.8603994
 2,1.21444339\H,0,2.64154335,0.22619809,0.37944976\H,0,2.1984916,-0.005
 45114,-1.32535652\H,0,2.0058892,1.58144701,-0.56403312\H,0,0.62496466,

 Normal termination of Gaussian 16 at Wed Apr  9 03:34:10 2025.
 Gaussian 16:  ES64L-G16RevC.01  3-Jul-2019

 ----------------------------------------------------------------------
 #t hf aug-cc-pvdz iop(5/13=1,5/36=2,99/5=2) pseudo=read geom=check gue
 ss=(read,tcheck) scf=(maxcycle=1)
 ----------------------------------------------------------------------
 -----
 title
 -----
 Structure from the checkpoint file:  "Grambow2020_wb97xd3_007032_forward_mol1.chk"
 Charge =  0 Multiplicity = 1

                         Standard orientation:
 ---------------------------------------------------------------------
 Center     Atomic      Atomic             Coordinates (Angstroms)
 Number     Number       Type             X           Y           Z
 ---------------------------------------------------------------------
      1          6           0        1.889007   -0.720116   -0.273712
      2          6           0        0.478872   -0.276361    0.002312
      3          6           0       -0.552004   -1.319298    0.365798
      4          6           0       -1.793729   -0.553765   -0.065163
      5          6           0       -0.291207    0.541291   -1.065089
      6          6           0       -0.157968    1.662890   -0.060093
      7          8           0        0.440140    0.832157    0.949058
      8          1           0        2.348714   -1.096542    0.642741
      9          1           0        1.900180   -1.510462   -1.025734
     10          1           0        2.489027    0.114167   -0.639995
     11          1           0       -0.414628   -2.208320   -0.252851
     12          1           0       -0.541271   -1.616775    1.416092
     13          1           0       -2.172957    0.159641    0.659198
     14          1           0       -2.604154   -1.134474   -0.507788
     15          1           0       -1.464373    0.032911   -1.149589
     16          1           0       -1.056235    2.187521    0.275693
     17          1           0        0.556751    2.407233   -0.434543
 ---------------------------------------------------------------------

 SCF Done:  E(RHF) =  -308.053871300     A.U. after    2 cycles

 The electronic state is 1-A.
 Alpha  occ. eigenvalues --  -20.53077 -11.29256 -11.28572 -11.27944 -11.25240
 Alpha  occ. eigenvalues --  -11.24633 -11.22570  -1.46222  -1.12068  -1.01035
 Alpha  occ. eigenvalues --   -0.98301  -0.88514  -0.85400  -0.69675  -0.68605
 Alpha  occ. eigenvalues --   -0.66816  -0.63684  -0.60120  -0.58967  -0.57447
 Alpha  occ. eigenvalues --   -0.55071  -0.53184  -0.51037  -0.49298  -0.44462
 Alpha  occ. eigenvalues --   -0.41314  -0.32687
 Alpha virt. eigenvalues --    0.03135   0.03744   0.04264   0.04279   0.05698
 Alpha virt. eigenvalues --    0.05843   0.06481   0.07168   0.09271   0.09439
 Alpha virt. eigenvalues --    0.09722   0.10150   0.12493   0.13559   0.14193

 Mulliken charges:
               1
     1  C   -0.279574
     2  C    0.702903
     3  C   -0.173165
     4  C   -0.189479
     5  C   -0.756670
     6  C    0.593252
     7  O   -1.516662
     8  H    0.255900
     9  H    0.253220
    10  H    0.206973
    11  H    0.180467
    12  H    0.138331
    13  H    0.152703
    14  H   -0.008384
    15  H    0.393770
    16  H   -0.001384
    17  H    0.047799
 Sum of Mulliken charges =  -0.00000

 Dipole moment (field-independent basis, Debye):
    X=             -1.5277    Y=             -1.2864    Z=              0.4100  Tot=              2.0389

 Test job not archived.
 1\1\GINC-SE322\SP\RHF\Aug-CC-pVDZ\C6H10O1\OHZDE\09-Apr-2025\0\\#t hf a
 ug-cc-pvdz iop(5/13=1,5/36=2,99/5=2) pseudo=read geom=check guess=(rea
 d,tcheck) scf=(maxcycle=1)\\title\\0,1\C,0,1.92914459,0.50563429,-0.39
 985561\C,0,0.53407783,0.132926,0.02022113\C,0,0.17971851,-1.33064051,0
 .14247928\C,0,-1.32428127,-1.20434055,-0.04642348\C,0,-0.67789098,0.66
 438379,-0.78576046\C,0,-0.93952533,1.4755441,0.46296727\O,0,0.12024621
 ,0.86039942,1.21444339\H,0,2.64154335,0.22619809,0.37944976\H,0,2.1984
 916,-0.00545114,-1.32535652\H,0,2.0058892,1.58144701,-0.56403312\H,0,0

 Normal termination of Gaussian 16 at Wed Apr  9 03:34:17 2025.
