 Gaussian 16, Revision C.01,

 ----------------------------------------------------------------------
 #t hf aug-cc-pvdz symm=none int=(grid=ultrafine) guess=(read,tcheck) s
 table=(opt,rrhf)
 ----------------------------------------------------------------------
 -----
 title
 -----
 Symbolic Z-matrix:
 Charge =  0 Multiplicity = 1

 SCF Done:  E(RHF) =  -316.353382850     A.U. after   17 cycles
 Normal termination of Gaussian 16 at Wed Apr  9 18:16:23 2025.
 Gaussian 16:  ES64L-G16RevC.01  3-Jul-2019

 ----------------------------------------------------------------------
 #t hf aug-cc-pvdz iop(5/13=1,5/36=2,99/5=2) pseudo=read geom=check gue
 ss=(read,tcheck) scf=(maxcycle=1)
 ----------------------------------------------------------------------
 -----
 title
 -----
 Structure from the checkpoint file:  "Grambow2020_wb97xd3_007266_forward_mol1.chk"
 Charge =  0 Multiplicity = 1

                         Standard orientation:
 ---------------------------------------------------------------------
 Center     Atomic      Atomic             Coordinates (Angstroms)
 Number     Number       Type             X           Y           Z
 ---------------------------------------------------------------------
      1          7           0       -2.320368   -0.379025   -0.084100
      2          6           0       -1.187884   -0.119142   -0.092533
      3          6           0        0.273232    0.303765   -0.908247
      4          7           0        1.201538   -0.746657   -0.716854
      5          6           0        1.048199   -0.867201    0.551379
      6          6           0        0.159755    0.278591    0.895265
      7          7           0        0.694434    1.323986   -0.009557
      8          1           0        1.443157   -1.654628    1.181640
      9          1           0       -0.266835    0.589806    1.840547
     10          1           0        0.034633    2.100616   -0.023795
 ---------------------------------------------------------------------

 SCF Done:  E(RHF) =  -316.669966100     A.U. after    2 cycles

 The electronic state is 1-A.
 Alpha  occ. eigenvalues --  -15.58099 -15.55161 -15.49848 -11.38832 -11.38120
 Alpha  occ. eigenvalues --  -11.34576 -11.29696  -1.41991  -1.24683  -1.22042
 Alpha  occ. eigenvalues --   -1.02201  -0.95211  -0.82639  -0.81600  -0.74741
 Alpha  occ. eigenvalues --   -0.70396  -0.64412  -0.61041  -0.56718  -0.54776
 Alpha  occ. eigenvalues --   -0.53529  -0.50661  -0.48118  -0.38844
 Alpha virt. eigenvalues --    0.00521   0.02672   0.03454   0.04202   0.06592
 Alpha virt. eigenvalues --    0.07972   0.08645   0.09323   0.10864   0.11057
 Alpha virt. eigenvalues --    0.12001   0.12521   0.13250   0.14136   0.14822

 Mulliken charges:
               1
     1  N    1.108003
     2  C   -1.224615
     3  C   -0.997739
     4  N    0.699415
     5  C   -0.011949
     6  C   -0.313291
     7  N    0.506482
     8  H   -0.025232
     9  H   -0.119573
    10  H    0.378499
 Sum of Mulliken charges =   0.00000

 Dipole moment (field-independent basis, Debye):
    X=              3.1890    Y=              1.6680    Z=              3.7577  Tot=              5.2032

 Test job not archived.
 1\1\GINC-SE162\SP\RHF\Aug-CC-pVDZ\C4H3N3\OHZDE\09-Apr-2025\0\\#t hf au
 g-cc-pvdz iop(5/13=1,5/36=2,99/5=2) pseudo=read geom=check guess=(read
 ,tcheck) scf=(maxcycle=1)\\title\\0,1\N,0,1.94561017,-0.09786262,-1.50
 091192\C,0,1.13554458,-0.08196533,-0.66804218\C,0,0.61532952,-0.337068
 29,0.95781028\N,0,-0.3738276,-1.3486177,0.94759225\C,0,-1.08226591,-0.
 87060951,-0.00952927\C,0,-0.44814378,0.45204596,-0.27202314\N,0,-0.113
 0416,0.87650838,1.10818458\H,0,-1.90533601,-1.36003715,-0.51576801\H,0
 ,-0.67678181,1.21879685,-1.00154934\H,0,0.51739844,1.6752694,1.0514397

 Normal termination of Gaussian 16 at Wed Apr  9 18:16:27 2025.
