 Gaussian 16, Revision C.01,

 ----------------------------------------------------------------------
 #t hf aug-cc-pvdz symm=none int=(grid=ultrafine) guess=(read,tcheck) s
 table=(opt,rrhf)
 ----------------------------------------------------------------------
 -----
 title
 -----
 Symbolic Z-matrix:
 Charge =  0 Multiplicity = 1

 SCF Done:  E(RHF) =  -302.895774149     A.U. after   15 cycles
 Normal termination of Gaussian 16 at Wed Apr  9 19:11:02 2025.
 Gaussian 16:  ES64L-G16RevC.01  3-Jul-2019

 ----------------------------------------------------------------------
 #t hf aug-cc-pvdz iop(5/13=1,5/36=2,99/5=2) pseudo=read geom=check gue
 ss=(read,tcheck) scf=(maxcycle=1)
 ----------------------------------------------------------------------
 -----
 title
 -----
 Structure from the checkpoint file:  "Grambow2020_wb97xd3_008850_reverse_mol2.chk"
 Charge =  0 Multiplicity = 1

                         Standard orientation:
 ---------------------------------------------------------------------
 Center     Atomic      Atomic             Coordinates (Angstroms)
 Number     Number       Type             X           Y           Z
 ---------------------------------------------------------------------
      1          6           0       -1.633158   -0.811992   -0.974341
      2          6           0       -1.186583    0.130336    0.104100
      3          6           0       -1.644172    1.369099    0.218331
      4          6           0        1.834899    0.054237   -0.186379
      5          7           0        2.491807    0.840754   -0.714728
      6          6           0       -0.167242   -0.399162    1.080742
      7          7           0        1.090730   -0.839770    0.467746
      8          1           0       -2.020323   -1.741730   -0.546559
      9          1           0       -2.413808   -0.366552   -1.589260
     10          1           0       -0.802128   -1.077278   -1.633496
     11          1           0       -1.288782    2.034401    0.996631
     12          1           0       -2.386294    1.764754   -0.465058
     13          1           0       -0.563275   -1.268550    1.611139
     14          1           0        0.071079    0.358668    1.827381
     15          1           0        1.103300   -1.765713    0.073375
 ---------------------------------------------------------------------

 SCF Done:  E(RHF) =  -303.211865995     A.U. after    2 cycles

 The electronic state is 1-A.
 Alpha  occ. eigenvalues --  -15.56011 -15.49525 -11.30130 -11.30086 -11.25938
 Alpha  occ. eigenvalues --  -11.24740 -11.24206  -1.29092  -1.20802  -1.10837
 Alpha  occ. eigenvalues --   -0.97616  -0.95516  -0.83197  -0.76998  -0.70321
 Alpha  occ. eigenvalues --   -0.67121  -0.64651  -0.60292  -0.59359  -0.58473
 Alpha  occ. eigenvalues --   -0.56023  -0.54665  -0.51582  -0.49290  -0.43569
 Alpha  occ. eigenvalues --   -0.38379
 Alpha virt. eigenvalues --    0.02472   0.03728   0.03914   0.04153   0.05166
 Alpha virt. eigenvalues --    0.05734   0.07707   0.08903   0.09484   0.09986
 Alpha virt. eigenvalues --    0.11302   0.11798   0.13424   0.13843   0.14438

 Mulliken charges:
               1
     1  C   -0.734478
     2  C    0.429287
     3  C    0.205629
     4  C   -1.433459
     5  N    0.835017
     6  C   -0.553346
     7  N    0.451178
     8  H    0.251011
     9  H    0.104263
    10  H    0.244127
    11  H   -0.111963
    12  H   -0.145367
    13  H    0.092400
    14  H    0.041705
    15  H    0.323996
 Sum of Mulliken charges =  -0.00000

 Dipole moment (field-independent basis, Debye):
    X=             -4.0452    Y=             -3.3375    Z=              1.6229  Tot=              5.4897

 Test job not archived.
 1\1\GINC-SE084\SP\RHF\Aug-CC-pVDZ\C5H8N2\OHZDE\09-Apr-2025\0\\#t hf au
 g-cc-pvdz iop(5/13=1,5/36=2,99/5=2) pseudo=read geom=check guess=(read
 ,tcheck) scf=(maxcycle=1)\\title\\0,1\C,0,-1.18867367,0.9750968,-0.766
 75576\C,0,0.09678721,0.84555391,-0.0043547\C,0,1.17551759,1.56631672,-
 0.27603712\C,0,0.64653892,-2.135865,-0.17298119\N,0,1.38204387,-2.6567
 1069,-0.89203927\C,0,0.11690816,-0.1653912,1.11405464\N,0,-0.17376654,
 -1.54116621,0.69555001\H,0,-2.02314748,1.19346198,-0.09349842\H,0,-1.1
 2934495,1.77056745,-1.50814892\H,0,-1.42850247,0.04747773,-1.29351726\

 Normal termination of Gaussian 16 at Wed Apr  9 19:11:07 2025.
