 Gaussian 16, Revision C.01,

 ----------------------------------------------------------------------
 #t hf aug-cc-pvdz symm=none int=(grid=ultrafine) guess=(read,tcheck) s
 table=(opt,rrhf)
 ----------------------------------------------------------------------
 -----
 title
 -----
 Symbolic Z-matrix:
 Charge =  0 Multiplicity = 1

 SCF Done:  E(RHF) =  -317.586286576     A.U. after   17 cycles
 Normal termination of Gaussian 16 at Wed Apr  9 18:47:25 2025.
 Gaussian 16:  ES64L-G16RevC.01  3-Jul-2019

 ----------------------------------------------------------------------
 #t hf aug-cc-pvdz iop(5/13=1,5/36=2,99/5=2) pseudo=read geom=check gue
 ss=(read,tcheck) scf=(maxcycle=1)
 ----------------------------------------------------------------------
 -----
 title
 -----
 Structure from the checkpoint file:  "Grambow2020_wb97xd3_008066_forward_mol1.chk"
 Charge =  0 Multiplicity = 1

                         Standard orientation:
 ---------------------------------------------------------------------
 Center     Atomic      Atomic             Coordinates (Angstroms)
 Number     Number       Type             X           Y           Z
 ---------------------------------------------------------------------
      1          7           0       -2.551700   -0.475982   -0.658992
      2          6           0       -1.690495   -0.033196   -0.038076
      3          6           0       -0.611335    0.555750    0.720301
      4          6           0        0.782539   -1.403360    0.393972
      5          7           0        1.622794   -0.615573   -0.223671
      6          6           0        1.915922    0.485000   -0.574303
      7          7           0        0.117384    1.534866    0.265191
      8          1           0       -0.604607    0.344883    1.783248
      9          1           0        0.999390   -1.631022    1.429692
     10          1           0        0.244775   -2.129477   -0.202345
     11          1           0        2.805425    0.912731   -1.012371
     12          1           0       -0.144111    1.774540   -0.687290
 ---------------------------------------------------------------------

 SCF Done:  E(RHF) =  -317.901322415     A.U. after    2 cycles

 The electronic state is 1-A.
 Alpha  occ. eigenvalues --  -15.59651 -15.52569 -15.50826 -11.33089 -11.31115
 Alpha  occ. eigenvalues --  -11.30551 -11.27810  -1.33116  -1.24160  -1.21159
 Alpha  occ. eigenvalues --   -1.06673  -0.92879  -0.80269  -0.77310  -0.73550
 Alpha  occ. eigenvalues --   -0.69680  -0.66949  -0.65435  -0.60741  -0.53699
 Alpha  occ. eigenvalues --   -0.52911  -0.50418  -0.49246  -0.44640  -0.33234
 Alpha virt. eigenvalues --    0.02769   0.03928   0.04794   0.04957   0.05567
 Alpha virt. eigenvalues --    0.07150   0.07624   0.08297   0.08361   0.09597
 Alpha virt. eigenvalues --    0.11101   0.12121   0.12594   0.14151   0.14391

 Mulliken charges:
               1
     1  N    0.937908
     2  C   -1.574660
     3  C   -0.588806
     4  C   -0.462654
     5  N    0.983708
     6  C   -0.466939
     7  N    0.761005
     8  H   -0.000951
     9  H    0.043887
    10  H    0.079217
    11  H    0.028306
    12  H    0.259980
 Sum of Mulliken charges =  -0.00000

 Dipole moment (field-independent basis, Debye):
    X=              4.7504    Y=             -0.2470    Z=              0.8231  Tot=              4.8275

 Test job not archived.
 1\1\GINC-SE104\SP\RHF\Aug-CC-pVDZ\C4H5N3\OHZDE\09-Apr-2025\0\\#t hf au
 g-cc-pvdz iop(5/13=1,5/36=2,99/5=2) pseudo=read geom=check guess=(read
 ,tcheck) scf=(maxcycle=1)\\title\\0,1\N,0,2.55074352,-1.10963715,0.912
 69495\C,0,1.86238657,-0.49614519,0.22490007\C,0,1.00864676,0.30677846,
 -0.61950711\C,0,-0.87901511,-1.16869918,-0.23586199\N,0,-1.48712231,-0
 .13832831,0.29012441\C,0,-1.47588595,1.02327547,0.55597637\N,0,0.56493
 03,1.47828064,-0.26240472\H,0,0.9740328,0.02769285,-1.66606286\H,0,-1.
 12094324,-1.40463059,-1.26415001\H,0,-0.57874285,-1.9676879,0.43008421

 Normal termination of Gaussian 16 at Wed Apr  9 18:47:30 2025.
