 Gaussian 16, Revision C.01,

 ----------------------------------------------------------------------
 #t hf aug-cc-pvdz symm=none int=(grid=ultrafine) guess=(read,tcheck) s
 table=(opt,rrhf)
 ----------------------------------------------------------------------
 -----
 title
 -----
 Symbolic Z-matrix:
 Charge =  0 Multiplicity = 1

 SCF Done:  E(RHF) =  -324.915006850     A.U. after   14 cycles
 Normal termination of Gaussian 16 at Wed Apr  9 04:06:04 2025.
 Gaussian 16:  ES64L-G16RevC.01  3-Jul-2019

 ----------------------------------------------------------------------
 #t hf aug-cc-pvdz iop(5/13=1,5/36=2,99/5=2) pseudo=read geom=check gue
 ss=(read,tcheck) scf=(maxcycle=1)
 ----------------------------------------------------------------------
 -----
 title
 -----
 Structure from the checkpoint file:  "Grambow2020_wb97xd3_009230_reverse_mol2.chk"
 Charge =  0 Multiplicity = 1

                         Standard orientation:
 ---------------------------------------------------------------------
 Center     Atomic      Atomic             Coordinates (Angstroms)
 Number     Number       Type             X           Y           Z
 ---------------------------------------------------------------------
      1          6           0       -2.659547    0.460295   -0.017212
      2          8           0       -1.627552   -0.331157    0.509558
      3          6           0       -0.575753   -0.513189   -0.412063
      4          6           0        0.340217    0.632934   -0.697073
      5          7           0        1.419972    0.054642   -0.151643
      6          6           0        2.692012    0.291398    0.029146
      7          6           0        0.656737   -1.139823    0.261125
      8          1           0       -3.435609    0.538633    0.742625
      9          1           0       -3.090638    0.007832   -0.920910
     10          1           0       -2.302770    1.467770   -0.265954
     11          1           0       -0.962267   -1.067899   -1.279847
     12          1           0        0.324970    1.544775   -1.272286
     13          1           0        0.575090    1.907420    1.633178
     14          1           0        1.216958    1.994715    2.010172
     15          1           0        3.123515    1.195282   -0.370346
     16          1           0        3.276614   -0.443343    0.557674
     17          1           0        0.575039   -1.215210    1.344365
     18          1           0        1.057712   -2.052902   -0.177158
 ---------------------------------------------------------------------

 SCF Done:  E(RHF) =  -325.260191015     A.U. after    2 cycles

 The electronic state is 1-A.
 Alpha  occ. eigenvalues --  -20.54116 -15.60544 -11.29798 -11.28888 -11.27786
 Alpha  occ. eigenvalues --  -11.24343 -11.23516  -1.46689  -1.33407  -1.08943
 Alpha  occ. eigenvalues --   -0.96656  -0.93573  -0.86325  -0.75182  -0.72334
 Alpha  occ. eigenvalues --   -0.70360  -0.69373  -0.64191  -0.62786  -0.61322
 Alpha  occ. eigenvalues --   -0.57619  -0.56038  -0.53880  -0.52020  -0.51163
 Alpha  occ. eigenvalues --   -0.47355  -0.41799  -0.25667
 Alpha virt. eigenvalues --    0.03688   0.03994   0.04330   0.04623   0.05578
 Alpha virt. eigenvalues --    0.05662   0.06124   0.07001   0.07548   0.09107
 Alpha virt. eigenvalues --    0.09284   0.10744   0.11643   0.12807   0.14060

 Mulliken charges:
               1
     1  C    0.130446
     2  O   -1.460819
     3  C    1.488454
     4  C   -0.722056
     5  N    1.185374
     6  C   -0.290894
     7  C   -0.323958
     8  H   -0.025320
     9  H    0.203012
    10  H    0.190563
    11  H    0.078326
    12  H   -0.321024
    13  H    0.029415
    14  H    0.030989
    15  H   -0.087337
    16  H   -0.104363
    17  H   -0.010592
    18  H    0.009784
 Sum of Mulliken charges =  -0.00000

 Dipole moment (field-independent basis, Debye):
    X=             -0.1100    Y=             -0.6343    Z=             -1.0117  Tot=              1.1991

 Test job not archived.
 1\1\GINC-SE454\SP\RHF\Aug-CC-pVDZ\C5H11N1O1\OHZDE\09-Apr-2025\0\\#t hf
  aug-cc-pvdz iop(5/13=1,5/36=2,99/5=2) pseudo=read geom=check guess=(r
 ead,tcheck) scf=(maxcycle=1)\\title\\0,1\C,0,2.64556063,0.55843276,0.1
 6558378\O,0,1.46708702,0.94903522,-0.48827017\C,0,0.6753123,-0.1571854
 9,-0.85998462\C,0,-0.06611491,-0.90310572,0.20195571\N,0,-1.28239452,-
 0.55159825,-0.23951022\C,0,-2.54162555,-0.763089,0.03695713\C,0,-0.723
 84398,0.28480943,-1.32029438\H,0,3.20603022,1.46149936,0.40244936\H,0,
 3.26389793,-0.08683473,-0.4735737\H,0,2.42613009,0.02175547,1.09724644

 Normal termination of Gaussian 16 at Wed Apr  9 04:06:10 2025.
