 Gaussian 16, Revision C.01,

 ----------------------------------------------------------------------
 #t hf aug-cc-pvdz symm=none int=(grid=ultrafine) guess=(read,tcheck) s
 table=(opt,rrhf)
 ----------------------------------------------------------------------
 -----
 title
 -----
 Symbolic Z-matrix:
 Charge =  0 Multiplicity = 1

 SCF Done:  E(RHF) =  -344.818195728     A.U. after   15 cycles

 1\1\GINC-SE104\Stability\RHF\Aug-CC-pVDZ\C5H10O2\OHZDE\09-Apr-2025\0\\
 #t hf aug-cc-pvdz symm=none int=(grid=ultrafine) guess=(read,tcheck) s
 table=(opt,rrhf)\\title\\0,1\O,0,1.78143548,0.12930453,1.35341033\C,0,
 2.02511401,-0.1298083,-0.02003101\C,0,0.81414377,-0.81685293,-0.619262
 35\C,0,-0.43274249,0.0546238,-0.76653979\C,0,-3.45891999,0.72910358,0.
 36657329\O,0,-2.27551901,1.2208978,0.27290774\C,0,-1.07454827,0.449982
 69,0.54790947\H,0,2.55619722,0.54178855,1.7370435\H,0,2.90076065,-0.77
 987292,-0.13486993\H,0,2.22835826,0.80496998,-0.56030276\H,0,0.5864371

 Normal termination of Gaussian 16 at Wed Apr  9 18:25:31 2025.
 Gaussian 16:  ES64L-G16RevC.01  3-Jul-2019

 ----------------------------------------------------------------------
 #t hf aug-cc-pvdz iop(5/13=1,5/36=2,99/5=2) pseudo=read geom=check gue
 ss=(read,tcheck) scf=(maxcycle=1)
 ----------------------------------------------------------------------
 -----
 title
 -----
 Structure from the checkpoint file:  "Grambow2020_wb97xd3_007545_reverse_mol2.chk"
 Charge =  0 Multiplicity = 1

                         Standard orientation:
 ---------------------------------------------------------------------
 Center     Atomic      Atomic             Coordinates (Angstroms)
 Number     Number       Type             X           Y           Z
 ---------------------------------------------------------------------
      1          8           0       -2.000314   -1.213181    0.192162
      2          6           0       -2.289514    0.108789   -0.234006
      3          6           0       -1.249653    1.053640    0.334767
      4          6           0        0.153775    0.922548   -0.256073
      5          6           0        3.251019   -0.110044    0.231219
      6          8           0        2.198704   -0.346366   -0.467249
      7          6           0        0.861075   -0.369150    0.100638
      8          1           0       -2.671331   -1.806205   -0.147885
      9          1           0       -3.282544    0.413114    0.117853
     10          1           0       -2.288917    0.170862   -1.330892
     11          1           0       -1.216237    0.918539    1.420493
     12          1           0       -1.600327    2.073979    0.158682
     13          1           0        0.112276    1.016811   -1.345259
     14          1           0        2.910577    0.035351    1.297168
     15          1           0        0.766000    1.753594    0.106832
     16          1           0        0.365874   -1.241016   -0.319098
     17          1           0        0.957295   -0.493351    1.183530
 ---------------------------------------------------------------------

 SCF Done:  E(RHF) =  -345.175760819     A.U. after    2 cycles

 The electronic state is 1-A.
 Alpha  occ. eigenvalues --  -20.60315 -20.56169 -11.29785 -11.29647 -11.29477
 Alpha  occ. eigenvalues --  -11.24595 -11.24482  -1.53059  -1.46518  -1.09620
 Alpha  occ. eigenvalues --   -1.00723  -0.90941  -0.82893  -0.81089  -0.72702
 Alpha  occ. eigenvalues --   -0.69339  -0.66981  -0.64024  -0.62099  -0.59696
 Alpha  occ. eigenvalues --   -0.56875  -0.55316  -0.53026  -0.50893  -0.49047
 Alpha  occ. eigenvalues --   -0.48111  -0.45331  -0.34745
 Alpha virt. eigenvalues --    0.02727   0.03220   0.03635   0.04487   0.05822
 Alpha virt. eigenvalues --    0.06299   0.06765   0.07080   0.07739   0.09273
 Alpha virt. eigenvalues --    0.10422   0.12646   0.13021   0.13451   0.13928

 Mulliken charges:
               1
     1  O   -1.165206
     2  C    0.685610
     3  C   -0.376419
     4  C   -0.382640
     5  C    0.012027
     6  O   -1.007177
     7  C    0.776696
     8  H    0.331737
     9  H    0.085755
    10  H    0.108946
    11  H    0.148935
    12  H    0.154774
    13  H    0.175891
    14  H    0.112915
    15  H    0.113954
    16  H    0.049865
    17  H    0.174339
 Sum of Mulliken charges =  -0.00000

 Dipole moment (field-independent basis, Debye):
    X=             -5.4804    Y=              0.4661    Z=              0.3939  Tot=              5.5142

 Test job not archived.
 1\1\GINC-SE104\SP\RHF\Aug-CC-pVDZ\C5H10O2\OHZDE\09-Apr-2025\0\\#t hf a
 ug-cc-pvdz iop(5/13=1,5/36=2,99/5=2) pseudo=read geom=check guess=(rea
 d,tcheck) scf=(maxcycle=1)\\title\\0,1\O,0,1.78143548,0.12930453,1.353
 41033\C,0,2.02511401,-0.1298083,-0.02003101\C,0,0.81414377,-0.81685293
 ,-0.61926235\C,0,-0.43274249,0.0546238,-0.76653979\C,0,-3.45891999,0.7
 2910358,0.36657329\O,0,-2.27551901,1.2208978,0.27290774\C,0,-1.0745482
 7,0.44998269,0.54790947\H,0,2.55619722,0.54178855,1.7370435\H,0,2.9007
 6065,-0.77987292,-0.13486993\H,0,2.22835826,0.80496998,-0.56030276\H,0

 Normal termination of Gaussian 16 at Wed Apr  9 18:25:37 2025.
