 Gaussian 16, Revision C.01,

 ----------------------------------------------------------------------
 #t hf aug-cc-pvdz symm=none int=(grid=ultrafine) guess=(read,tcheck) s
 table=(opt,rrhf)
 ----------------------------------------------------------------------
 -----
 title
 -----
 Symbolic Z-matrix:
 Charge =  0 Multiplicity = 1

 SCF Done:  E(RHF) =  -338.700503037     A.U. after   14 cycles
 Normal termination of Gaussian 16 at Wed Apr  9 03:40:23 2025.
 Gaussian 16:  ES64L-G16RevC.01  3-Jul-2019

 ----------------------------------------------------------------------
 #t hf aug-cc-pvdz iop(5/13=1,5/36=2,99/5=2) pseudo=read geom=check gue
 ss=(read,tcheck) scf=(maxcycle=1)
 ----------------------------------------------------------------------
 -----
 title
 -----
 Structure from the checkpoint file:  "Grambow2020_wb97xd3_007483_reverse_mol2.chk"
 Charge =  0 Multiplicity = 1

                         Standard orientation:
 ---------------------------------------------------------------------
 Center     Atomic      Atomic             Coordinates (Angstroms)
 Number     Number       Type             X           Y           Z
 ---------------------------------------------------------------------
      1          6           0        1.879272   -0.087569   -0.538491
      2          8           0        1.599937    0.076713    0.844249
      3          6           0        0.505742   -0.023580   -0.061639
      4          6           0       -0.399866    1.161053   -0.136463
      5          7           0       -1.625830    0.871562   -0.053357
      6          6           0       -1.734329   -0.575794    0.075138
      7          7           0       -0.380908   -1.128136    0.010493
      8          1           0        2.333404    0.764961   -1.037992
      9          1           0       -2.370247   -0.970300   -0.720730
     10          1           0        2.288596   -1.057101   -0.813740
     11          1           0       -0.040572    2.182766   -0.209336
     12          1           0       -2.217497   -0.791714    1.032200
     13          1           0       -0.250937   -1.790961   -0.735627
 ---------------------------------------------------------------------

 SCF Done:  E(RHF) =  -339.046036014     A.U. after    2 cycles

 The electronic state is 1-A.
 Alpha  occ. eigenvalues --  -20.56479 -15.51522 -15.50763 -11.33726 -11.30506
 Alpha  occ. eigenvalues --  -11.29782 -11.29135  -1.51311  -1.30659  -1.18009
 Alpha  occ. eigenvalues --   -1.00409  -0.93359  -0.87252  -0.81702  -0.75085
 Alpha  occ. eigenvalues --   -0.70441  -0.67346  -0.65774  -0.60370  -0.59774
 Alpha  occ. eigenvalues --   -0.57582  -0.50894  -0.48944  -0.48092  -0.44729
 Alpha  occ. eigenvalues --   -0.40493
 Alpha virt. eigenvalues --    0.03070   0.04013   0.04171   0.05702   0.05785
 Alpha virt. eigenvalues --    0.06658   0.07964   0.09686   0.10782   0.11923
 Alpha virt. eigenvalues --    0.12157   0.12667   0.14376   0.14736   0.15615

 Mulliken charges:
               1
     1  C    0.583433
     2  O   -1.309911
     3  C    0.593617
     4  C   -1.002899
     5  N    0.758799
     6  C   -0.258763
     7  N    0.499176
     8  H    0.005395
     9  H   -0.001392
    10  H   -0.043179
    11  H   -0.093671
    12  H    0.036114
    13  H    0.233282
 Sum of Mulliken charges =  -0.00000

 Dipole moment (field-independent basis, Debye):
    X=              1.0450    Y=             -0.9075    Z=             -2.9265  Tot=              3.2373

 Test job not archived.
 1\1\GINC-SE461\SP\RHF\Aug-CC-pVDZ\C4H6N2O1\OHZDE\09-Apr-2025\0\\#t hf
 aug-cc-pvdz iop(5/13=1,5/36=2,99/5=2) pseudo=read geom=check guess=(re
 ad,tcheck) scf=(maxcycle=1)\\title\\0,1\C,0,-1.53920544,0.25790661,-1.
 10235237\O,0,-0.49396569,-0.42230042,-1.78189641\C,0,-0.25855128,0.026
 20286,-0.45096449\C,0,0.83578049,1.02655916,-0.27544964\N,0,1.64410698
 ,0.74054357,0.65110399\C,0,1.20040007,-0.50636504,1.26058334\N,0,-0.03
 448188,-0.91207217,0.58866362\H,0,-1.79630432,1.24232712,-1.48622775\H
 ,0,1.04784365,-0.35947492,2.33230283\H,0,-2.38566501,-0.36389228,-0.81

 Normal termination of Gaussian 16 at Wed Apr  9 03:40:27 2025.
