 Gaussian 16, Revision C.01,

 ----------------------------------------------------------------------
 #t hf aug-cc-pvdz symm=none int=(grid=ultrafine) guess=(read,tcheck) s
 table=(opt,rrhf)
 ----------------------------------------------------------------------
 -----
 title
 -----
 Symbolic Z-matrix:
 Charge =  0 Multiplicity = 1

 SCF Done:  E(RHF) =  -302.791195406     A.U. after   15 cycles
 Normal termination of Gaussian 16 at Wed Apr  9 19:18:06 2025.
 Gaussian 16:  ES64L-G16RevC.01  3-Jul-2019

 ----------------------------------------------------------------------
 #t hf aug-cc-pvdz iop(5/13=1,5/36=2,99/5=2) pseudo=read geom=check gue
 ss=(read,tcheck) scf=(maxcycle=1)
 ----------------------------------------------------------------------
 -----
 title
 -----
 Structure from the checkpoint file:  "Grambow2020_wb97xd3_009084_reverse_mol1.chk"
 Charge =  0 Multiplicity = 1

                         Standard orientation:
 ---------------------------------------------------------------------
 Center     Atomic      Atomic             Coordinates (Angstroms)
 Number     Number       Type             X           Y           Z
 ---------------------------------------------------------------------
      1          6           0        1.943409   -0.282917    0.850498
      2          7           0        0.966699   -0.603095   -0.713336
      3          6           0        1.018819    0.773225   -0.457042
      4          6           0       -0.240534    1.200844   -0.042980
      5          6           0       -0.993332    0.035196   -0.034015
      6          6           0       -2.428892   -0.144655    0.327175
      7          7           0       -0.252644   -1.026755   -0.405683
      8          1           0        2.617699   -1.097021    0.615863
      9          1           0        1.183801   -0.550873    1.574779
     10          1           0        2.506140    0.595900    1.157617
     11          1           0        1.838528    1.354106   -0.852936
     12          1           0       -0.553831    2.202571    0.200873
     13          1           0       -3.035902    0.682171   -0.042467
     14          1           0       -2.550869   -0.190488    1.411686
     15          1           0       -2.800773   -1.077572   -0.094099
 ---------------------------------------------------------------------

 SCF Done:  E(RHF) =  -303.108584994     A.U. after    2 cycles

 The electronic state is 1-A.
 Alpha  occ. eigenvalues --  -15.56133 -15.49527 -11.30590 -11.29338 -11.26787
 Alpha  occ. eigenvalues --  -11.23270 -11.21908  -1.35744  -1.10717  -1.06375
 Alpha  occ. eigenvalues --   -0.97698  -0.93499  -0.82641  -0.77527  -0.70816
 Alpha  occ. eigenvalues --   -0.65162  -0.62882  -0.60392  -0.59231  -0.56953
 Alpha  occ. eigenvalues --   -0.56342  -0.53736  -0.51904  -0.45299  -0.39546
 Alpha  occ. eigenvalues --   -0.35753
 Alpha virt. eigenvalues --    0.03000   0.03879   0.03936   0.04443   0.05085
 Alpha virt. eigenvalues --    0.05738   0.06973   0.07656   0.09891   0.10823
 Alpha virt. eigenvalues --    0.12011   0.12468   0.12657   0.13413   0.13920

 Mulliken charges:
               1
     1  C   -0.185498
     2  N    0.137906
     3  C   -0.541636
     4  C    0.468092
     5  C   -0.538829
     6  C   -0.342974
     7  N    0.069302
     8  H    0.186922
     9  H    0.183587
    10  H    0.224172
    11  H   -0.116035
    12  H   -0.189856
    13  H    0.221845
    14  H    0.269293
    15  H    0.153710
 Sum of Mulliken charges =  -0.00000

 Dipole moment (field-independent basis, Debye):
    X=              1.2006    Y=              3.3922    Z=              2.4144  Tot=              4.3334

 Test job not archived.
 1\1\GINC-SE224\SP\RHF\Aug-CC-pVDZ\C5H8N2\OHZDE\09-Apr-2025\0\\#t hf au
 g-cc-pvdz iop(5/13=1,5/36=2,99/5=2) pseudo=read geom=check guess=(read
 ,tcheck) scf=(maxcycle=1)\\title\\0,1\C,0,2.09107279,-0.09622894,0.408
 99964\N,0,1.03131211,-0.26155318,-1.12450182\C,0,0.847822,1.00393937,-
 0.5522075\C,0,-0.41814406,1.05572316,0.02651745\C,0,-0.93009183,-0.214
 59999,-0.19643744\C,0,-2.25812505,-0.76680095,0.19731497\N,0,-0.045075
 5,-0.98882167,-0.85356871\H,0,2.8788258,-0.67849452,-0.05240771\H,0,1.
 47834117,-0.67051436,1.09320995\H,0,2.50595875,0.79131896,0.88169174\H

 Normal termination of Gaussian 16 at Wed Apr  9 19:18:11 2025.
