 Gaussian 16, Revision C.01,

 ----------------------------------------------------------------------
 #t hf aug-cc-pvdz symm=none int=(grid=ultrafine) guess=(read,tcheck) s
 table=(opt,rrhf)
 ----------------------------------------------------------------------
 -----
 title
 -----
 Symbolic Z-matrix:
 Charge =  0 Multiplicity = 1

 SCF Done:  E(RHF) =  -344.746688918     A.U. after   15 cycles

 1\1\GINC-SE113\Stability\RHF\Aug-CC-pVDZ\C5H10O2\OHZDE\09-Apr-2025\0\\
 #t hf aug-cc-pvdz symm=none int=(grid=ultrafine) guess=(read,tcheck) s
 table=(opt,rrhf)\\title\\0,1\C,0,-0.90676581,-1.35056009,0.18542144\C,
 0,-0.87805242,0.1478263,0.01482803\C,0,0.45369715,0.82018067,0.0079299
 \C,0,1.50417248,0.39390237,0.85909494\O,0,2.43007638,-0.46431691,-0.46
 603578\C,0,-1.9909671,0.79154606,-0.67842393\O,0,-1.9214763,0.82870263
 ,0.73705242\H,0,-0.32432028,-1.84288622,-0.59542647\H,0,-0.4953883,-1.
 64790014,1.15218559\H,0,-1.93376893,-1.71212866,0.14180186\H,0,0.42996

 Normal termination of Gaussian 16 at Wed Apr  9 18:27:57 2025.
 Gaussian 16:  ES64L-G16RevC.01  3-Jul-2019

 ----------------------------------------------------------------------
 #t hf aug-cc-pvdz iop(5/13=1,5/36=2,99/5=2) pseudo=read geom=check gue
 ss=(read,tcheck) scf=(maxcycle=1)
 ----------------------------------------------------------------------
 -----
 title
 -----
 Structure from the checkpoint file:  "Grambow2020_wb97xd3_007593_reverse_mol1.chk"
 Charge =  0 Multiplicity = 1

                         Standard orientation:
 ---------------------------------------------------------------------
 Center     Atomic      Atomic             Coordinates (Angstroms)
 Number     Number       Type             X           Y           Z
 ---------------------------------------------------------------------
      1          6           0        0.623825    1.562034    0.146501
      2          6           0        0.777729    0.074514   -0.050187
      3          6           0       -0.462567   -0.754131   -0.076226
      4          6           0       -1.559962   -0.473664    0.776273
      5          8           0       -2.578539    0.289507   -0.538977
      6          6           0        1.962935   -0.417007   -0.748216
      7          8           0        1.893537   -0.487620    0.665991
      8          1           0       -0.011332    1.993985   -0.628964
      9          1           0        0.176044    1.789963    1.115942
     10          1           0        1.599514    2.046188    0.114932
     11          1           0       -0.309518   -1.799664   -0.326519
     12          1           0       -1.512119   -0.185233   -0.896579
     13          1           0       -1.558753    0.381327    1.440519
     14          1           0       -2.218129   -1.277912    1.083975
     15          1           0       -3.350365   -0.230414   -0.796527
     16          1           0        2.687884    0.289613   -1.146897
     17          1           0        1.925033   -1.373426   -1.264864
 ---------------------------------------------------------------------

 SCF Done:  E(RHF) =  -345.107701144     A.U. after    2 cycles

 The electronic state is 1-A.
 Alpha  occ. eigenvalues --  -20.54987 -20.53663 -11.33387 -11.28929 -11.27433
 Alpha  occ. eigenvalues --  -11.22631 -11.20699  -1.47839  -1.42030  -1.08026
 Alpha  occ. eigenvalues --   -0.99691  -0.91309  -0.86435  -0.77046  -0.71937
 Alpha  occ. eigenvalues --   -0.69511  -0.66252  -0.61172  -0.59121  -0.58737
 Alpha  occ. eigenvalues --   -0.55373  -0.54020  -0.51654  -0.50316  -0.49967
 Alpha  occ. eigenvalues --   -0.43809  -0.42224  -0.33123
 Alpha virt. eigenvalues --    0.02895   0.03894   0.04270   0.04573   0.05798
 Alpha virt. eigenvalues --    0.05876   0.06888   0.08065   0.08900   0.09690
 Alpha virt. eigenvalues --    0.10527   0.11621   0.13302   0.13741   0.14665

 Mulliken charges:
               1
     1  C   -0.570653
     2  C    1.345172
     3  C   -0.383837
     4  C    0.259057
     5  O   -1.059955
     6  C    0.294428
     7  O   -1.466788
     8  H    0.231123
     9  H    0.278851
    10  H    0.108329
    11  H   -0.167556
    12  H    1.047203
    13  H   -0.081383
    14  H   -0.088905
    15  H    0.372611
    16  H   -0.058798
    17  H   -0.058900
 Sum of Mulliken charges =  -0.00000

 Dipole moment (field-independent basis, Debye):
    X=             -2.3535    Y=             -0.7098    Z=             -0.5391  Tot=              2.5167

 Test job not archived.
 1\1\GINC-SE113\SP\RHF\Aug-CC-pVDZ\C5H10O2\OHZDE\09-Apr-2025\0\\#t hf a
 ug-cc-pvdz iop(5/13=1,5/36=2,99/5=2) pseudo=read geom=check guess=(rea
 d,tcheck) scf=(maxcycle=1)\\title\\0,1\C,0,-0.90676581,-1.35056009,0.1
 8542144\C,0,-0.87805242,0.1478263,0.01482803\C,0,0.45369715,0.82018067
 ,0.0079299\C,0,1.50417248,0.39390237,0.85909494\O,0,2.43007638,-0.4643
 1691,-0.46603578\C,0,-1.9909671,0.79154606,-0.67842393\O,0,-1.9214763,
 0.82870263,0.73705242\H,0,-0.32432028,-1.84288622,-0.59542647\H,0,-0.4
 953883,-1.64790014,1.15218559\H,0,-1.93376893,-1.71212866,0.14180186\H

 Normal termination of Gaussian 16 at Wed Apr  9 18:28:03 2025.
