 Gaussian 16, Revision C.01,

 ----------------------------------------------------------------------
 #t hf aug-cc-pvdz symm=none int=(grid=ultrafine) guess=(read,tcheck) s
 table=(opt,rrhf)
 ----------------------------------------------------------------------
 -----
 title
 -----
 Symbolic Z-matrix:
 Charge =  0 Multiplicity = 1

 SCF Done:  E(RHF) =  -344.920680396     A.U. after   14 cycles

 1\1\GINC-SE029\Stability\RHF\Aug-CC-pVDZ\C5H10O2\OHZDE\09-Apr-2025\0\\
 #t hf aug-cc-pvdz symm=none int=(grid=ultrafine) guess=(read,tcheck) s
 table=(opt,rrhf)\\title\\0,1\C,0,2.27388968,0.41891063,-0.27915694\C,0
 ,1.63398817,-0.59166053,0.67134793\C,0,0.61870973,0.05849155,1.5626377
 6\O,0,-0.52363853,-0.29592589,1.69228803\C,0,-1.67981967,-0.57072275,-
 1.08004052\C,0,-2.70424315,0.41281272,-0.61246195\O,0,-0.70691964,-0.2
 8972472,-1.72987916\H,0,1.53631257,0.79736417,-0.98698949\H,0,3.076607
 79,-0.05044103,-0.84761137\H,0,2.70243834,1.26365365,0.2655546\H,0,1.1

 Normal termination of Gaussian 16 at Wed Apr  9 18:07:51 2025.
 Gaussian 16:  ES64L-G16RevC.01  3-Jul-2019

 ----------------------------------------------------------------------
 #t hf aug-cc-pvdz iop(5/13=1,5/36=2,99/5=2) pseudo=read geom=check gue
 ss=(read,tcheck) scf=(maxcycle=1)
 ----------------------------------------------------------------------
 -----
 title
 -----
 Structure from the checkpoint file:  "Grambow2020_wb97xd3_007114_reverse_mol2.chk"
 Charge =  0 Multiplicity = 1

                         Standard orientation:
 ---------------------------------------------------------------------
 Center     Atomic      Atomic             Coordinates (Angstroms)
 Number     Number       Type             X           Y           Z
 ---------------------------------------------------------------------
      1          6           0       -2.144921   -1.155736    0.500116
      2          6           0       -1.888897   -0.029572   -0.500082
      3          6           0       -1.267111    1.163115    0.162312
      4          8           0       -0.247888    1.700281   -0.184125
      5          6           0        1.833997   -0.463501   -0.470260
      6          6           0        2.616497    0.334676    0.522727
      7          8           0        1.161210   -1.423668   -0.199664
      8          1           0       -1.202484   -1.551947    0.878405
      9          1           0       -2.685973   -1.972099    0.021995
     10          1           0       -2.744376   -0.810157    1.345802
     11          1           0       -1.245326   -0.357423   -1.316403
     12          1           0       -1.821642    1.550531    1.044898
     13          1           0       -2.840199    0.310308   -0.927113
     14          1           0        1.904052   -0.113192   -1.519606
     15          1           0        2.515462   -0.084211    1.522301
     16          1           0        3.668191    0.358261    0.225832
     17          1           0        2.248328    1.363121    0.505318
 ---------------------------------------------------------------------

 SCF Done:  E(RHF) =  -345.277817402     A.U. after    2 cycles

 The electronic state is 1-A.
 Alpha  occ. eigenvalues --  -20.54842 -20.53733 -11.34249 -11.33634 -11.24443
 Alpha  occ. eigenvalues --  -11.23712 -11.23349  -1.48299  -1.47251  -1.06772
 Alpha  occ. eigenvalues --   -1.01667  -0.90180  -0.80034  -0.79549  -0.67979
 Alpha  occ. eigenvalues --   -0.67382  -0.64869  -0.62415  -0.61725  -0.59560
 Alpha  occ. eigenvalues --   -0.56613  -0.55439  -0.53876  -0.51521  -0.49979
 Alpha  occ. eigenvalues --   -0.49356  -0.41633  -0.41162
 Alpha virt. eigenvalues --    0.03565   0.03842   0.04129   0.04566   0.05737
 Alpha virt. eigenvalues --    0.06106   0.06641   0.07766   0.08511   0.09648
 Alpha virt. eigenvalues --    0.10510   0.11309   0.12300   0.13406   0.14122

 Mulliken charges:
               1
     1  C   -0.330996
     2  C   -0.641040
     3  C    1.197393
     4  O   -1.157514
     5  C    1.034489
     6  C   -0.610267
     7  O   -1.136386
     8  H    0.183684
     9  H    0.123744
    10  H    0.149016
    11  H    0.134992
    12  H    0.104628
    13  H    0.242182
    14  H    0.112045
    15  H    0.144780
    16  H    0.193140
    17  H    0.256110
 Sum of Mulliken charges =  -0.00000

 Dipole moment (field-independent basis, Debye):
    X=             -0.7816    Y=              0.6952    Z=              0.2431  Tot=              1.0739

 Test job not archived.
 1\1\GINC-SE029\SP\RHF\Aug-CC-pVDZ\C5H10O2\OHZDE\09-Apr-2025\0\\#t hf a
 ug-cc-pvdz iop(5/13=1,5/36=2,99/5=2) pseudo=read geom=check guess=(rea
 d,tcheck) scf=(maxcycle=1)\\title\\0,1\C,0,2.27388968,0.41891063,-0.27
 915694\C,0,1.63398817,-0.59166053,0.67134793\C,0,0.61870973,0.05849155
 ,1.56263776\O,0,-0.52363853,-0.29592589,1.69228803\C,0,-1.67981967,-0.
 57072275,-1.08004052\C,0,-2.70424315,0.41281272,-0.61246195\O,0,-0.706
 91964,-0.28972472,-1.72987916\H,0,1.53631257,0.79736417,-0.98698949\H,
 0,3.07660779,-0.05044103,-0.84761137\H,0,2.70243834,1.26365365,0.26555

 Normal termination of Gaussian 16 at Wed Apr  9 18:07:57 2025.
