 Gaussian 16, Revision C.01,

 ----------------------------------------------------------------------
 #t hf aug-cc-pvdz symm=none int=(grid=ultrafine) guess=(read,tcheck) s
 table=(opt,rrhf)
 ----------------------------------------------------------------------
 -----
 title
 -----
 Symbolic Z-matrix:
 Charge =  0 Multiplicity = 1

 SCF Done:  E(RHF) =  -304.521950234     A.U. after   15 cycles
 Normal termination of Gaussian 16 at Wed Apr  9 03:14:50 2025.
 Gaussian 16:  ES64L-G16RevC.01  3-Jul-2019

 ----------------------------------------------------------------------
 #t hf aug-cc-pvdz iop(5/13=1,5/36=2,99/5=2) pseudo=read geom=check gue
 ss=(read,tcheck) scf=(maxcycle=1)
 ----------------------------------------------------------------------
 -----
 title
 -----
 Structure from the checkpoint file:  "Grambow2020_b97d3_006924_reverse_mol1.chk"
 Charge =  0 Multiplicity = 1

                         Standard orientation:
 ---------------------------------------------------------------------
 Center     Atomic      Atomic             Coordinates (Angstroms)
 Number     Number       Type             X           Y           Z
 ---------------------------------------------------------------------
      1          8           0       -1.794992   -0.390302   -0.347711
      2          6           0       -0.560732   -0.136798    0.219101
      3          6           0        0.177464    1.597651    0.563015
      4          6           0        0.483274    0.681802   -0.544546
      5          8           0        1.539402   -0.289875   -0.284150
      6          6           0        0.589487   -1.157084    0.372625
      7          1           0       -2.424445   -0.606053    0.366287
      8          1           0       -0.707324    2.170747    0.201775
      9          1           0       -0.558404    0.519768    1.245213
     10          1           0        0.333696    0.923183   -1.599609
     11          1           0        0.891739   -1.417950    1.396773
     12          1           0        0.372505   -2.061708   -0.216722
 ---------------------------------------------------------------------

 SCF Done:  E(RHF) =  -304.829514154     A.U. after    2 cycles

 The electronic state is 1-A.
 Alpha  occ. eigenvalues --  -20.60134 -20.55113 -11.34330 -11.31353 -11.31187
 Alpha  occ. eigenvalues --  -11.27177  -1.50617  -1.46866  -1.11986  -0.97792
 Alpha  occ. eigenvalues --   -0.83940  -0.79751  -0.75084  -0.67987  -0.65515
 Alpha  occ. eigenvalues --   -0.63334  -0.58672  -0.57963  -0.54786  -0.49196
 Alpha  occ. eigenvalues --   -0.46509  -0.42368  -0.35671
 Alpha virt. eigenvalues --    0.02475   0.04185   0.04290   0.05008   0.06363
 Alpha virt. eigenvalues --    0.07455   0.09280   0.09881   0.11445   0.12084
 Alpha virt. eigenvalues --    0.13535   0.13752   0.14534   0.15216   0.15305

 Mulliken charges:
               1
     1  O   -1.350490
     2  C    0.192288
     3  C   -0.564703
     4  C    1.264360
     5  O   -1.406603
     6  C    0.637339
     7  H    0.273752
     8  H    0.182668
     9  H    0.563300
    10  H    0.033760
    11  H    0.083462
    12  H    0.090869
 Sum of Mulliken charges =  -0.00000

 Dipole moment (field-independent basis, Debye):
    X=             -3.2345    Y=             -1.5192    Z=              0.2962  Tot=              3.5858

 Test job not archived.
 1\1\GINC-SE159\SP\RHF\Aug-CC-pVDZ\C4H6O2\OHZDE\09-Apr-2025\0\\#t hf au
 g-cc-pvdz iop(5/13=1,5/36=2,99/5=2) pseudo=read geom=check guess=(read
 ,tcheck) scf=(maxcycle=1)\\title\\0,1\O,0,0.0128407,-1.31798272,-1.177
 09012\C,0,0.04488192,-0.44290829,-0.10837362\C,0,-1.48344772,0.3293996
 ,0.75143554\C,0,-0.58412442,0.94708708,-0.23277343\O,0,0.59374126,1.60
 738659,0.31859493\C,0,1.28373073,0.34020317,0.38106031\H,0,0.13376456,
 -2.22496838,-0.83751816\H,0,-2.24214122,-0.19823963,0.12872719\H,0,-0.
 54273696,-0.7939522,0.89932741\H,0,-0.90591488,1.32376203,-1.20661341\

 Normal termination of Gaussian 16 at Wed Apr  9 03:14:54 2025.
