 Gaussian 16, Revision C.01,

 ----------------------------------------------------------------------
 #t hf aug-cc-pvdz symm=none int=(grid=ultrafine) guess=(read,tcheck) s
 table=(opt,rrhf)
 ----------------------------------------------------------------------
 -----
 title
 -----
 Symbolic Z-matrix:
 Charge =  0 Multiplicity = 1

 SCF Done:  E(RHF) =  -338.586829006     A.U. after   16 cycles
 Normal termination of Gaussian 16 at Wed Apr  9 17:50:55 2025.
 Gaussian 16:  ES64L-G16RevC.01  3-Jul-2019

 ----------------------------------------------------------------------
 #t hf aug-cc-pvdz iop(5/13=1,5/36=2,99/5=2) pseudo=read geom=check gue
 ss=(read,tcheck) scf=(maxcycle=1)
 ----------------------------------------------------------------------
 -----
 title
 -----
 Structure from the checkpoint file:  "Grambow2020_wb97xd3_006847_reverse_mol1.chk"
 Charge =  0 Multiplicity = 1

                         Standard orientation:
 ---------------------------------------------------------------------
 Center     Atomic      Atomic             Coordinates (Angstroms)
 Number     Number       Type             X           Y           Z
 ---------------------------------------------------------------------
      1          7           0       -2.344113   -0.657888   -0.117353
      2          6           0       -1.220772    0.030687    0.158663
      3          6           0       -0.690559    1.290161    0.123806
      4          7           0        0.729329    1.119328   -0.033296
      5          6           0        1.057769   -0.147752   -0.046562
      6          8           0        2.340971   -0.492463   -0.065141
      7          6           0       -0.103756   -0.964158    0.117219
      8          1           0       -1.161654   -1.367476   -0.614273
      9          1           0       -3.144247   -0.113018   -0.408247
     10          1           0       -1.133335    2.239882   -0.122092
     11          1           0        1.399739    1.864785   -0.115285
     12          1           0        2.406814   -1.444569   -0.176052
     13          1           0       -0.047680   -1.723616    0.892863
 ---------------------------------------------------------------------

 SCF Done:  E(RHF) =  -338.931338999     A.U. after    2 cycles

 The electronic state is 1-A.
 Alpha  occ. eigenvalues --  -20.64202 -15.57832 -15.42652 -11.39990 -11.27575
 Alpha  occ. eigenvalues --  -11.23097 -11.22305  -1.57056  -1.32303  -1.17544
 Alpha  occ. eigenvalues --   -1.03479  -0.99488  -0.87150  -0.81575  -0.80010
 Alpha  occ. eigenvalues --   -0.70324  -0.69281  -0.66239  -0.64422  -0.59880
 Alpha  occ. eigenvalues --   -0.57213  -0.55083  -0.49046  -0.44147  -0.37154
 Alpha  occ. eigenvalues --   -0.28314
 Alpha virt. eigenvalues --    0.02381   0.03330   0.05028   0.05473   0.06037
 Alpha virt. eigenvalues --    0.07232   0.08919   0.09281   0.10817   0.11792
 Alpha virt. eigenvalues --    0.12245   0.12781   0.13482   0.14456   0.15211

 Mulliken charges:
               1
     1  N    0.448841
     2  C   -1.453137
     3  C    0.377063
     4  N    0.915635
     5  C    0.573149
     6  O   -1.423556
     7  C   -0.405757
     8  H    0.794236
     9  H    0.038774
    10  H   -0.183051
    11  H    0.003313
    12  H    0.285064
    13  H    0.029428
 Sum of Mulliken charges =  -0.00000

 Dipole moment (field-independent basis, Debye):
    X=              5.3056    Y=              0.7704    Z=             -0.8646  Tot=              5.4305

 Test job not archived.
 1\1\GINC-SE220\SP\RHF\Aug-CC-pVDZ\C4H6N2O1\OHZDE\09-Apr-2025\0\\#t hf
 aug-cc-pvdz iop(5/13=1,5/36=2,99/5=2) pseudo=read geom=check guess=(re
 ad,tcheck) scf=(maxcycle=1)\\title\\0,1\N,0,-2.10307291,0.85583809,-0.
 21304511\C,0,-0.97740851,0.15384702,-0.44174429\C,0,-0.52999897,-1.105
 94291,-0.72699863\N,0,0.80351199,-1.1844946,-0.19265348\C,0,1.17082963
 ,-0.04642407,0.33971257\O,0,2.41683896,0.10105118,0.77730599\C,0,0.130
 38969,0.92409286,0.20529876\H,0,-1.06515844,1.20152744,0.76260232\H,0,
 -2.9743274,0.35619676,-0.32702088\H,0,-1.06248175,-2.01677045,-0.93993

 Normal termination of Gaussian 16 at Wed Apr  9 17:50:59 2025.
