 Gaussian 16, Revision C.01,

 ----------------------------------------------------------------------
 #t hf aug-cc-pvdz symm=none int=(grid=ultrafine) guess=(read,tcheck) s
 table=(opt,rrhf)
 ----------------------------------------------------------------------
 -----
 title
 -----
 Symbolic Z-matrix:
 Charge =  0 Multiplicity = 1

 SCF Done:  E(RHF) =  -341.219058461     A.U. after   16 cycles
 Normal termination of Gaussian 16 at Wed Apr  9 04:04:01 2025.
 Gaussian 16:  ES64L-G16RevC.01  3-Jul-2019

 ----------------------------------------------------------------------
 #t hf aug-cc-pvdz iop(5/13=1,5/36=2,99/5=2) pseudo=read geom=check gue
 ss=(read,tcheck) scf=(maxcycle=1)
 ----------------------------------------------------------------------
 -----
 title
 -----
 Structure from the checkpoint file:  "Grambow2020_wb97xd3_009095_reverse_mol2.chk"
 Charge =  0 Multiplicity = 1

                         Standard orientation:
 ---------------------------------------------------------------------
 Center     Atomic      Atomic             Coordinates (Angstroms)
 Number     Number       Type             X           Y           Z
 ---------------------------------------------------------------------
      1          8           0       -1.340235   -1.582468    0.041996
      2          6           0       -0.815571   -0.537578    0.014781
      3          6           0       -1.542396    0.906163    0.024074
      4          6           0       -0.315944    1.671612   -0.018399
      5          6           0        0.832183    1.236598   -0.051676
      6          6           0        0.804451   -0.247764   -0.040120
      7          8           0        1.616363   -1.101083   -0.059311
      8          1           0       -2.190710    0.991216   -0.848604
      9          1           0       -2.142541    1.006556    0.928922
     10          1           0        3.888553    0.414563    0.189097
     11          1           0        4.459334    0.881882    0.297138
 ---------------------------------------------------------------------

 SCF Done:  E(RHF) =  -341.555526300     A.U. after    2 cycles

 The electronic state is 1-A.
 Alpha  occ. eigenvalues --  -20.61324 -20.59265 -11.41287 -11.40652 -11.33005
 Alpha  occ. eigenvalues --  -11.30817 -11.26990  -1.56074  -1.53470  -1.19652
 Alpha  occ. eigenvalues --   -1.02311  -0.91829  -0.79449  -0.75240  -0.71511
 Alpha  occ. eigenvalues --   -0.68709  -0.67859  -0.67192  -0.60452  -0.57795
 Alpha  occ. eigenvalues --   -0.57074  -0.52948  -0.43886  -0.42889  -0.42575
 Alpha virt. eigenvalues --    0.00168   0.02858   0.03761   0.04227   0.06223
 Alpha virt. eigenvalues --    0.06793   0.07350   0.08676   0.10943   0.10990
 Alpha virt. eigenvalues --    0.11384   0.11749   0.12399   0.12936   0.14594

 Mulliken charges:
               1
     1  O   -1.202846
     2  C    1.187148
     3  C   -0.524742
     4  C    0.239952
     5  C    0.014397
     6  C    0.954567
     7  O   -1.188261
     8  H    0.257558
     9  H    0.252423
    10  H    0.011133
    11  H   -0.001329
 Sum of Mulliken charges =  -0.00000

 Dipole moment (field-independent basis, Debye):
    X=             -3.4170    Y=              2.2301    Z=              0.0678  Tot=              4.0809

 Test job not archived.
 1\1\GINC-SE141\SP\RHF\Aug-CC-pVDZ\C5H4O2\OHZDE\09-Apr-2025\0\\#t hf au
 g-cc-pvdz iop(5/13=1,5/36=2,99/5=2) pseudo=read geom=check guess=(read
 ,tcheck) scf=(maxcycle=1)\\title\\0,1\O,0,-0.66796667,2.41854394,-0.28
 451037\C,0,-0.62948532,1.25525839,-0.17008124\C,0,-1.86739085,0.229208
 04,-0.33608818\C,0,-1.08946675,-0.96046156,-0.06883793\C,0,0.10973175,
 -1.02328876,0.1890683\C,0,0.69253536,0.34220453,0.19057255\O,0,1.76396
 015,0.79565933,0.37536917\H,0,-2.6393147,0.47118948,0.39513691\H,0,-2.
 28286193,0.31835345,-1.34029868\H,0,3.22420565,-1.51940462,0.54828412\

 Normal termination of Gaussian 16 at Wed Apr  9 04:04:05 2025.
