 Gaussian 16, Revision C.01,

 ----------------------------------------------------------------------
 #t hf aug-cc-pvdz symm=none int=(grid=ultrafine) guess=(read,tcheck) s
 table=(opt,rrhf)
 ----------------------------------------------------------------------
 -----
 title
 -----
 Symbolic Z-matrix:
 Charge =  0 Multiplicity = 1

 SCF Done:  E(RHF) =  -287.947201139     A.U. after   15 cycles

 1\1\GINC-SE162\Stability\RHF\Aug-CC-pVDZ\C6H11N1\OHZDE\09-Apr-2025\0\\
 #t hf aug-cc-pvdz symm=none int=(grid=ultrafine) guess=(read,tcheck) s
 table=(opt,rrhf)\\title\\0,1\C,0,-2.51799556,-0.0839097,-0.63137496\C,
 0,-1.1720649,0.60578301,-0.70621588\C,0,-0.02547617,-0.10148702,-1.024
 46365\C,0,1.30279542,-0.53550146,0.80818899\C,0,2.66565163,-0.03490903
 ,0.40975146\C,0,0.46821664,0.19340986,1.57739512\N,0,-0.48385209,0.864
 85786,1.82699417\H,0,-3.21676599,0.46571595,0.00102983\H,0,-2.97232031
 ,-0.17933732,-1.62104534\H,0,-2.41600323,-1.08780178,-0.21315306\H,0,-

 Normal termination of Gaussian 16 at Wed Apr  9 17:45:55 2025.
 Gaussian 16:  ES64L-G16RevC.01  3-Jul-2019

 ----------------------------------------------------------------------
 #t hf aug-cc-pvdz iop(5/13=1,5/36=2,99/5=2) pseudo=read geom=check gue
 ss=(read,tcheck) scf=(maxcycle=1)
 ----------------------------------------------------------------------
 -----
 title
 -----
 Structure from the checkpoint file:  "Grambow2020_wb97xd3_006812_forward_mol1.chk"
 Charge =  0 Multiplicity = 1

                         Standard orientation:
 ---------------------------------------------------------------------
 Center     Atomic      Atomic             Coordinates (Angstroms)
 Number     Number       Type             X           Y           Z
 ---------------------------------------------------------------------
      1          6           0       -2.661905   -0.158139    0.342275
      2          6           0       -1.448608   -0.408969   -0.528242
      3          6           0       -0.404957   -1.202830   -0.084671
      4          6           0        1.435559    0.016130    0.577090
      5          6           0        2.580941   -0.588944   -0.190184
      6          6           0        0.822144    1.148168    0.174943
      7          7           0       -0.054417    1.816206   -0.277763
      8          1           0       -3.174943    0.762772    0.061171
      9          1           0       -3.383540   -0.975595    0.264989
     10          1           0       -2.373271   -0.066338    1.391739
     11          1           0       -1.622868   -0.400113   -1.602957
     12          1           0       -0.846277    0.900496   -0.522201
     13          1           0       -0.434938   -1.635740    0.908598
     14          1           0        0.230521   -1.715199   -0.795245
     15          1           0        1.416419   -0.160500    1.648441
     16          1           0        2.611327   -1.668316   -0.029775
     17          1           0        2.477465   -0.404818   -1.260048
     18          1           0        3.541977   -0.182593    0.132364
 ---------------------------------------------------------------------

 SCF Done:  E(RHF) =  -288.258073648     A.U. after    2 cycles

 The electronic state is 1-A.
 Alpha  occ. eigenvalues --  -15.50592 -11.28384 -11.26858 -11.26342 -11.24930
 Alpha  occ. eigenvalues --  -11.22885 -11.22543  -1.24283  -1.07677  -1.06018
 Alpha  occ. eigenvalues --   -0.93655  -0.91272  -0.79032  -0.71283  -0.68065
 Alpha  occ. eigenvalues --   -0.65566  -0.61005  -0.59930  -0.59465  -0.57258
 Alpha  occ. eigenvalues --   -0.55812  -0.54524  -0.52738  -0.50413  -0.48045
 Alpha  occ. eigenvalues --   -0.37047  -0.34257
 Alpha virt. eigenvalues --    0.03141   0.03686   0.03742   0.04168   0.05050
 Alpha virt. eigenvalues --    0.05737   0.06251   0.07286   0.07999   0.08792
 Alpha virt. eigenvalues --    0.09313   0.10784   0.11567   0.12190   0.12792

 Mulliken charges:
               1
     1  C   -0.372748
     2  C   -0.700449
     3  C    0.365533
     4  C    0.257999
     5  C   -0.306171
     6  C   -2.008991
     7  N    1.241430
     8  H    0.134577
     9  H    0.159816
    10  H    0.157140
    11  H    0.018934
    12  H    0.701539
    13  H    0.005507
    14  H   -0.074925
    15  H   -0.077334
    16  H    0.194277
    17  H    0.169914
    18  H    0.133954
 Sum of Mulliken charges =  -0.00000

 Dipole moment (field-independent basis, Debye):
    X=              1.1122    Y=             -3.6206    Z=              0.7299  Tot=              3.8572

 Test job not archived.
 1\1\GINC-SE162\SP\RHF\Aug-CC-pVDZ\C6H11N1\OHZDE\09-Apr-2025\0\\#t hf a
 ug-cc-pvdz iop(5/13=1,5/36=2,99/5=2) pseudo=read geom=check guess=(rea
 d,tcheck) scf=(maxcycle=1)\\title\\0,1\C,0,-2.51799556,-0.0839097,-0.6
 3137496\C,0,-1.1720649,0.60578301,-0.70621588\C,0,-0.02547617,-0.10148
 702,-1.02446365\C,0,1.30279542,-0.53550146,0.80818899\C,0,2.66565163,-
 0.03490903,0.40975146\C,0,0.46821664,0.19340986,1.57739512\N,0,-0.4838
 5209,0.86485786,1.82699417\H,0,-3.21676599,0.46571595,0.00102983\H,0,-
 2.97232031,-0.17933732,-1.62104534\H,0,-2.41600323,-1.08780178,-0.2131

 Normal termination of Gaussian 16 at Wed Apr  9 17:46:02 2025.
