 Gaussian 16, Revision C.01,

 ----------------------------------------------------------------------
 #t hf aug-cc-pvdz symm=none int=(grid=ultrafine) guess=(read,tcheck) s
 table=(opt,rrhf)
 ----------------------------------------------------------------------
 -----
 title
 -----
 Symbolic Z-matrix:
 Charge =  0 Multiplicity = 1

 SCF Done:  E(RHF) =  -323.885008694     A.U. after   12 cycles
 Normal termination of Gaussian 16 at Wed Apr  9 18:28:27 2025.
 Gaussian 16:  ES64L-G16RevC.01  3-Jul-2019

 ----------------------------------------------------------------------
 #t hf aug-cc-pvdz iop(5/13=1,5/36=2,99/5=2) pseudo=read geom=check gue
 ss=(read,tcheck) scf=(maxcycle=1)
 ----------------------------------------------------------------------
 -----
 title
 -----
 Structure from the checkpoint file:  "Grambow2020_wb97xd3_007603_reverse_mol2.chk"
 Charge =  0 Multiplicity = 1

                         Standard orientation:
 ---------------------------------------------------------------------
 Center     Atomic      Atomic             Coordinates (Angstroms)
 Number     Number       Type             X           Y           Z
 ---------------------------------------------------------------------
      1          6           0       -0.209926    1.220343    0.365043
      2          6           0        0.968521    0.746235   -0.463745
      3          7           0        1.961289    0.015443    0.329247
      4          6           0        0.980643   -0.731220   -0.465023
      5          6           0       -0.192113   -1.230483    0.356461
      6          6           0       -1.118314   -0.016865    0.502018
      7          8           0       -2.043648   -0.092526   -0.576121
      8          1           0        0.136065    1.563862    1.342340
      9          1           0       -0.747243    2.043790   -0.110508
     10          1           0       -2.591865    0.694033   -0.563815
     11          1           0        1.303117    1.318605   -1.320105
     12          1           0        2.857831    0.023751   -0.142715
     13          1           0        1.327022   -1.294936   -1.322414
     14          1           0        0.153622   -1.579175    1.331098
     15          1           0       -0.731704   -2.040836   -0.133193
     16          1           0       -1.659547   -0.025041    1.455029
 ---------------------------------------------------------------------

 SCF Done:  E(RHF) =  -324.228964867     A.U. after    2 cycles

 The electronic state is 1-A.
 Alpha  occ. eigenvalues --  -20.54400 -15.49506 -11.28382 -11.25850 -11.25685
 Alpha  occ. eigenvalues --  -11.22841 -11.22229  -1.44834  -1.27317  -1.06363
 Alpha  occ. eigenvalues --   -0.97661  -0.89417  -0.79334  -0.78140  -0.74020
 Alpha  occ. eigenvalues --   -0.69563  -0.64638  -0.60703  -0.57647  -0.56777
 Alpha  occ. eigenvalues --   -0.53321  -0.51313  -0.49386  -0.47991  -0.47137
 Alpha  occ. eigenvalues --   -0.42853  -0.40083
 Alpha virt. eigenvalues --    0.03477   0.03744   0.04400   0.04662   0.05638
 Alpha virt. eigenvalues --    0.06104   0.06279   0.06957   0.07971   0.12235
 Alpha virt. eigenvalues --    0.12639   0.13601   0.13703   0.14263   0.14835

 Mulliken charges:
               1
     1  C   -0.353709
     2  C   -0.093652
     3  N    0.414065
     4  C   -0.055690
     5  C   -0.381257
     6  C    0.925500
     7  O   -1.365754
     8  H    0.216963
     9  H    0.108927
    10  H    0.270823
    11  H   -0.178428
    12  H    0.146757
    13  H   -0.173929
    14  H    0.210152
    15  H    0.156745
    16  H    0.152488
 Sum of Mulliken charges =   0.00000

 Dipole moment (field-independent basis, Debye):
    X=             -0.1594    Y=              1.1733    Z=             -0.8561  Tot=              1.4612

 Test job not archived.
 1\1\GINC-SE114\SP\RHF\Aug-CC-pVDZ\C5H9N1O1\OHZDE\09-Apr-2025\0\\#t hf
 aug-cc-pvdz iop(5/13=1,5/36=2,99/5=2) pseudo=read geom=check guess=(re
 ad,tcheck) scf=(maxcycle=1)\\title\\0,1\C,0,-0.6897239,-0.17171103,1.0
 1680477\C,0,-1.19324044,0.2874914,-0.33819005\N,0,-0.7911439,1.6606579
 6,-0.65632852\C,0,-0.02986148,0.53828436,-1.21378921\C,0,1.23876463,0.
 23851782,-0.43907323\C,0,0.77741322,-0.57646877,0.77536298\O,0,0.87358
 341,-1.94410011,0.39498735\H,0,-0.75811146,0.64679723,1.73666004\H,0,-
 1.26365997,-1.01407466,1.40916226\H,0,0.51857355,-2.48383272,1.1035249

 Normal termination of Gaussian 16 at Wed Apr  9 18:28:33 2025.
