 Gaussian 16, Revision C.01,

 ----------------------------------------------------------------------
 #t hf aug-cc-pvdz symm=none int=(grid=ultrafine) guess=(read,tcheck) s
 table=(opt,rrhf)
 ----------------------------------------------------------------------
 -----
 title
 -----
 Symbolic Z-matrix:
 Charge =  0 Multiplicity = 1

 SCF Done:  E(RHF) =  -301.877967090     A.U. after   14 cycles
 Normal termination of Gaussian 16 at Wed Apr  9 03:15:01 2025.
 Gaussian 16:  ES64L-G16RevC.01  3-Jul-2019

 ----------------------------------------------------------------------
 #t hf aug-cc-pvdz iop(5/13=1,5/36=2,99/5=2) pseudo=read geom=check gue
 ss=(read,tcheck) scf=(maxcycle=1)
 ----------------------------------------------------------------------
 -----
 title
 -----
 Structure from the checkpoint file:  "Grambow2020_b97d3_006946_reverse_mol1.chk"
 Charge =  0 Multiplicity = 1

                         Standard orientation:
 ---------------------------------------------------------------------
 Center     Atomic      Atomic             Coordinates (Angstroms)
 Number     Number       Type             X           Y           Z
 ---------------------------------------------------------------------
      1          6           0        2.411072    0.170935    0.081831
      2          7           0        1.235966   -0.668051   -0.126253
      3          6           0       -0.014201   -0.114198   -0.053002
      4          8           0       -0.194382    1.153987   -0.057336
      5          7           0       -1.146025   -0.829816    0.021003
      6          6           0       -2.088496    0.284504    0.050941
      7          1           0        3.308000   -0.403129   -0.180513
      8          1           0        2.509133    0.533938    1.119021
      9          1           0        2.350183    1.044827   -0.576164
     10          1           0        1.301233   -1.638791    0.160359
     11          1           0       -2.544608   -1.302617    0.009368
     12          1           0       -3.225349   -0.658305    0.067820
     13          1           0       -2.274469    0.820169    0.989802
     14          1           0       -2.348909    0.809633   -0.872878
 ---------------------------------------------------------------------

 SCF Done:  E(RHF) =  -302.191090577     A.U. after    2 cycles

 The electronic state is 1-A.
 Alpha  occ. eigenvalues --  -20.49393 -15.51364 -15.46929 -11.37381 -11.35678
 Alpha  occ. eigenvalues --  -11.26339  -1.43717  -1.22714  -1.19803  -0.98245
 Alpha  occ. eigenvalues --   -0.91744  -0.79436  -0.76821  -0.68298  -0.67376
 Alpha  occ. eigenvalues --   -0.62775  -0.61318  -0.57409  -0.54379  -0.53347
 Alpha  occ. eigenvalues --   -0.48082  -0.42266  -0.41471  -0.39411
 Alpha virt. eigenvalues --    0.03253   0.04391   0.04957   0.05334   0.05535
 Alpha virt. eigenvalues --    0.05755   0.06746   0.08293   0.10022   0.10864
 Alpha virt. eigenvalues --    0.13168   0.13691   0.14519   0.15084   0.15419

 Mulliken charges:
               1
     1  C   -0.301126
     2  N    0.524177
     3  C   -0.380269
     4  O   -1.314764
     5  N    0.393932
     6  C   -0.226033
     7  H    0.053410
     8  H    0.165433
     9  H    0.145672
    10  H    0.158584
    11  H    0.534723
    12  H   -0.044255
    13  H    0.143372
    14  H    0.147142
 Sum of Mulliken charges =   0.00000

 Dipole moment (field-independent basis, Debye):
    X=             -1.2028    Y=             -0.9940    Z=              0.6727  Tot=              1.6992

 Test job not archived.
 1\1\GINC-SE072\SP\RHF\Aug-CC-pVDZ\C3H8N2O1\OHZDE\09-Apr-2025\0\\#t hf
 aug-cc-pvdz iop(5/13=1,5/36=2,99/5=2) pseudo=read geom=check guess=(re
 ad,tcheck) scf=(maxcycle=1)\\title\\0,1\C,0,-2.44216581,0.36370522,0.0
 2935021\N,0,-1.1749244,0.33610617,0.75143676\C,0,-0.01120121,0.0987574
 7,0.06992995\O,0,0.04665327,0.146998,-1.20878151\N,0,1.15610727,-0.193
 10681,0.66222875\C,0,1.97167574,-0.30737525,-0.54302966\H,0,-3.2263440
 6,0.73074525,0.70255049\H,0,-2.74104445,-0.62272391,-0.36406872\H,0,-2
 .35818319,1.05267344,-0.81836657\H,0,-1.19380715,0.00844888,1.71113797

 Normal termination of Gaussian 16 at Wed Apr  9 03:15:04 2025.
