 Gaussian 16, Revision C.01,

 ----------------------------------------------------------------------
 #t hf aug-cc-pvdz symm=none int=(grid=ultrafine) guess=(read,tcheck) s
 table=(opt,rrhf)
 ----------------------------------------------------------------------
 -----
 title
 -----
 Symbolic Z-matrix:
 Charge =  0 Multiplicity = 1

 SCF Done:  E(RHF) =  -342.273907557     A.U. after   18 cycles
 Normal termination of Gaussian 16 at Wed Apr  9 19:16:59 2025.
 Gaussian 16:  ES64L-G16RevC.01  3-Jul-2019

 ----------------------------------------------------------------------
 #t hf aug-cc-pvdz iop(5/13=1,5/36=2,99/5=2) pseudo=read geom=check gue
 ss=(read,tcheck) scf=(maxcycle=1)
 ----------------------------------------------------------------------
 -----
 title
 -----
 Structure from the checkpoint file:  "Grambow2020_wb97xd3_009062_reverse_mol1.chk"
 Charge =  0 Multiplicity = 1

                         Standard orientation:
 ---------------------------------------------------------------------
 Center     Atomic      Atomic             Coordinates (Angstroms)
 Number     Number       Type             X           Y           Z
 ---------------------------------------------------------------------
      1          8           0        1.756688    0.092260   -0.605661
      2          6           0       -0.312795    1.331313   -0.464070
      3          6           0       -1.302936    0.188974   -0.817110
      4          6           0       -1.263842   -0.944264    0.267949
      5          6           0        0.089956   -0.457407    0.663127
      6          8           0        1.049902   -0.973269    0.019576
      7          6           0        0.106237    0.987016    0.948557
      8          1           0       -1.109568   -0.173873   -1.824868
      9          1           0       -2.273549    0.694764   -0.842778
     10          1           0       -1.249317   -1.949452   -0.141117
     11          1           0       -2.024171   -0.837209    1.037287
     12          1           0        1.039356    1.430344    1.267797
     13          1           0       -0.735183    1.249713    1.601636
 ---------------------------------------------------------------------

 SCF Done:  E(RHF) =  -342.614881785     A.U. after    2 cycles

 The electronic state is 1-A.
 Alpha  occ. eigenvalues --  -20.64072 -20.51820 -11.40397 -11.31199 -11.29266
 Alpha  occ. eigenvalues --  -11.28419 -11.27703  -1.61764  -1.24219  -1.18164
 Alpha  occ. eigenvalues --   -1.03659  -0.95889  -0.81239  -0.77189  -0.73023
 Alpha  occ. eigenvalues --   -0.69775  -0.66796  -0.62619  -0.59698  -0.58239
 Alpha  occ. eigenvalues --   -0.56024  -0.53862  -0.50606  -0.41093  -0.40141
 Alpha  occ. eigenvalues --   -0.35742
 Alpha virt. eigenvalues --    0.02037   0.02891   0.03480   0.04778   0.05181
 Alpha virt. eigenvalues --    0.06377   0.06706   0.07520   0.08227   0.10281
 Alpha virt. eigenvalues --    0.11398   0.13211   0.13814   0.14262   0.14492

 Mulliken charges:
               1
     1  O   -0.608837
     2  C   -0.266251
     3  C   -0.344325
     4  C   -0.094163
     5  C    1.390023
     6  O   -1.100196
     7  C    0.103092
     8  H    0.148890
     9  H    0.250056
    10  H    0.101865
    11  H    0.105889
    12  H    0.125183
    13  H    0.188773
 Sum of Mulliken charges =   0.00000

 Dipole moment (field-independent basis, Debye):
    X=             -5.4777    Y=             -1.4830    Z=              3.2859  Tot=              6.5576

 Test job not archived.
 1\1\GINC-SE112\SP\RHF\Aug-CC-pVDZ\C5H6O2\OHZDE\09-Apr-2025\0\\#t hf au
 g-cc-pvdz iop(5/13=1,5/36=2,99/5=2) pseudo=read geom=check guess=(read
 ,tcheck) scf=(maxcycle=1)\\title\\0,1\O,0,1.40689091,-1.04266844,1.481
 03276\C,0,0.3850509,-1.17025842,-0.70474497\C,0,-1.0219689,-0.62108128
 ,-0.34605945\C,0,-0.93729694,0.86993459,0.13644683\C,0,0.50094986,0.63
 729995,0.4578377\O,0,0.72128951,0.19646792,1.62355028\C,0,1.24663895,0
 .07339897,-0.67972742\H,0,-1.50674081,-1.27877635,0.37300857\H,0,-1.57
 658815,-0.71416742,-1.28536994\H,0,-1.53743743,1.08657065,1.01442709\H

 Normal termination of Gaussian 16 at Wed Apr  9 19:17:03 2025.
