 Gaussian 16, Revision C.01,

 ----------------------------------------------------------------------
 #t hf aug-cc-pvdz symm=none int=(grid=ultrafine) guess=(read,tcheck) s
 table=(opt,rrhf)
 ----------------------------------------------------------------------
 -----
 title
 -----
 Symbolic Z-matrix:
 Charge =  0 Multiplicity = 1

 SCF Done:  E(RHF) =  -263.678233575     A.U. after   18 cycles
 Normal termination of Gaussian 16 at Wed Apr  9 15:51:42 2025.
 Gaussian 16:  ES64L-G16RevC.01  3-Jul-2019

 ----------------------------------------------------------------------
 #t hf aug-cc-pvdz iop(5/13=1,5/36=2,99/5=2) pseudo=read geom=check gue
 ss=(read,tcheck) scf=(maxcycle=1)
 ----------------------------------------------------------------------
 -----
 title
 -----
 Structure from the checkpoint file:  "Grambow2020_b97d3_006855_forward_mol1.chk"
 Charge =  0 Multiplicity = 1

                         Standard orientation:
 ---------------------------------------------------------------------
 Center     Atomic      Atomic             Coordinates (Angstroms)
 Number     Number       Type             X           Y           Z
 ---------------------------------------------------------------------
      1          6           0        2.217765   -0.162116   -0.059743
      2          6           0        0.736061    0.006391   -0.157643
      3          6           0       -0.350667   -0.838481    0.345803
      4          7           0       -1.572426   -0.778120   -0.278916
      5          7           0       -1.464946    0.759688    0.185051
      6          6           0       -0.106432    1.090093   -0.022882
      7          1           0        2.516205   -0.647873    0.886171
      8          1           0        2.632346   -0.774060   -0.877389
      9          1           0        2.716750    0.815921   -0.099709
     10          1           0       -0.332610   -1.287073    1.349436
     11          1           0       -1.403058   -0.701232   -1.298320
     12          1           0        0.151610    2.148028    0.063656
 ---------------------------------------------------------------------

 SCF Done:  E(RHF) =  -263.948478010     A.U. after    2 cycles

 The electronic state is 1-A.
 Alpha  occ. eigenvalues --  -15.54617 -15.51423 -11.38074 -11.31375 -11.25717
 Alpha  occ. eigenvalues --  -11.23956  -1.31904  -1.11544  -1.05079  -0.95171
 Alpha  occ. eigenvalues --   -0.86392  -0.77637  -0.70237  -0.68689  -0.62493
 Alpha  occ. eigenvalues --   -0.58794  -0.57571  -0.54558  -0.51585  -0.48594
 Alpha  occ. eigenvalues --   -0.45887  -0.31811
 Alpha virt. eigenvalues --    0.02883   0.03564   0.04048   0.04467   0.05127
 Alpha virt. eigenvalues --    0.06784   0.07036   0.09345   0.10339   0.11332
 Alpha virt. eigenvalues --    0.12939   0.13871   0.14234   0.14989   0.15616

 Mulliken charges:
               1
     1  C   -0.608335
     2  C    0.251508
     3  C   -0.607256
     4  N    0.167321
     5  N    0.029691
     6  C   -0.075369
     7  H    0.212186
     8  H    0.215908
     9  H    0.168326
    10  H   -0.060174
    11  H    0.443036
    12  H   -0.136843
 Sum of Mulliken charges =  -0.00000

 Dipole moment (field-independent basis, Debye):
    X=              4.4437    Y=             -1.1539    Z=             -0.0864  Tot=              4.5919

 Test job not archived.
 1\1\GINC-SE092\SP\RHF\Aug-CC-pVDZ\C4H6N2\OHZDE\09-Apr-2025\0\\#t hf au
 g-cc-pvdz iop(5/13=1,5/36=2,99/5=2) pseudo=read geom=check guess=(read
 ,tcheck) scf=(maxcycle=1)\\title\\0,1\C,0,-1.67343143,-0.34769716,0.34
 240147\C,0,-0.22196248,-0.01800609,0.20836182\C,0,0.81677149,-0.627871
 38,-0.62670679\N,0,2.12643253,-0.52357295,-0.22605604\N,0,1.79443609,1
 .04521544,-0.36872229\C,0,0.47845147,1.16774956,0.13241216\H,0,-2.1058
 2118,-0.70179617,-0.61019153\H,0,-1.86491496,-1.13338437,1.09135315\H,
 0,-2.24004827,0.54155698,0.65112881\H,0,0.64373906,-0.90171061,-1.6773

 Normal termination of Gaussian 16 at Wed Apr  9 15:51:47 2025.
