 Gaussian 16, Revision C.01,

 ----------------------------------------------------------------------
 #t hf aug-cc-pvdz symm=none int=(grid=ultrafine) guess=(read,tcheck) s
 table=(opt,rrhf)
 ----------------------------------------------------------------------
 -----
 title
 -----
 Symbolic Z-matrix:
 Charge =  0 Multiplicity = 1

 SCF Done:  E(RHF) =  -360.783063897     A.U. after   15 cycles
 Normal termination of Gaussian 16 at Wed Apr  9 17:30:41 2025.
 Gaussian 16:  ES64L-G16RevC.01  3-Jul-2019

 ----------------------------------------------------------------------
 #t hf aug-cc-pvdz iop(5/13=1,5/36=2,99/5=2) pseudo=read geom=check gue
 ss=(read,tcheck) scf=(maxcycle=1)
 ----------------------------------------------------------------------
 -----
 title
 -----
 Structure from the checkpoint file:  "Grambow2020_wb97xd3_006617_forward_mol1.chk"
 Charge =  0 Multiplicity = 1

                         Standard orientation:
 ---------------------------------------------------------------------
 Center     Atomic      Atomic             Coordinates (Angstroms)
 Number     Number       Type             X           Y           Z
 ---------------------------------------------------------------------
      1          6           0       -2.554111   -0.139157   -0.256991
      2          6           0       -1.059314    0.119125   -0.275871
      3          8           0       -0.835546    1.281467    0.496168
      4          6           0       -0.310587   -1.093614    0.282114
      5          7           0        1.139409   -1.114251    0.086832
      6          6           0        1.877814   -0.073254   -0.095152
      7          8           0        2.005407    1.094019   -0.216837
      8          1           0       -2.815169   -0.999315   -0.875429
      9          1           0       -3.083106    0.735423   -0.634143
     10          1           0       -2.891704   -0.324489    0.764956
     11          1           0       -0.735004    0.285608   -1.312780
     12          1           0        0.052213    1.610013    0.325181
     13          1           0       -0.521852   -1.164095    1.353253
     14          1           0       -0.689793   -2.000949   -0.191611
     15          1           0        2.480928   -1.453633   -0.017444
     16          1           0        3.145934   -0.771289   -0.179053
 ---------------------------------------------------------------------

 SCF Done:  E(RHF) =  -361.154446227     A.U. after    2 cycles

 The electronic state is 1-A.
 Alpha  occ. eigenvalues --  -20.58757 -20.54014 -15.52886 -11.44115 -11.29474
 Alpha  occ. eigenvalues --  -11.27952 -11.22887  -1.54275  -1.44944  -1.27834
 Alpha  occ. eigenvalues --   -1.06790  -0.98235  -0.84273  -0.79030  -0.74838
 Alpha  occ. eigenvalues --   -0.72118  -0.71148  -0.65870  -0.61913  -0.59608
 Alpha  occ. eigenvalues --   -0.56366  -0.55889  -0.54605  -0.52747  -0.48711
 Alpha  occ. eigenvalues --   -0.45957  -0.44005  -0.42808
 Alpha virt. eigenvalues --    0.03138   0.04105   0.04406   0.04854   0.05612
 Alpha virt. eigenvalues --    0.06444   0.06986   0.07619   0.08813   0.10751
 Alpha virt. eigenvalues --    0.11389   0.11538   0.12438   0.14055   0.14676

 Mulliken charges:
               1
     1  C   -0.400582
     2  C    0.817615
     3  O   -1.346050
     4  C   -0.780864
     5  N    0.747178
     6  C    0.130912
     7  O   -1.031938
     8  H    0.186786
     9  H    0.147314
    10  H    0.214696
    11  H    0.082893
    12  H    0.379129
    13  H    0.122998
    14  H    0.091497
    15  H    0.538374
    16  H    0.100041
 Sum of Mulliken charges =   0.00000

 Dipole moment (field-independent basis, Debye):
    X=              0.4544    Y=             -2.2945    Z=             -0.7874  Tot=              2.4680

 Test job not archived.
 1\1\GINC-SE103\SP\RHF\Aug-CC-pVDZ\C4H9N1O2\OHZDE\09-Apr-2025\0\\#t hf
 aug-cc-pvdz iop(5/13=1,5/36=2,99/5=2) pseudo=read geom=check guess=(re
 ad,tcheck) scf=(maxcycle=1)\\title\\0,1\C,0,-2.0682488,-0.85462726,-0.
 3550192\C,0,-0.70694293,-0.19604598,-0.47586385\O,0,-0.93362285,1.1414
 1146,-0.87206862\C,0,0.03702008,-0.28109892,0.85903645\N,0,1.4583721,0
 .06592039,0.83940578\C,0,2.02391576,0.82593019,-0.03499715\O,0,1.97687
 007,1.49590172,-1.00584089\H,0,-1.97568549,-1.91082121,-0.09738899\H,0
 ,-2.6021424,-0.77151523,-1.30107334\H,0,-2.6616997,-0.35510895,0.41373

 Normal termination of Gaussian 16 at Wed Apr  9 17:30:47 2025.
