 Gaussian 16, Revision C.01,

 ----------------------------------------------------------------------
 #t hf aug-cc-pvdz symm=none int=(grid=ultrafine) guess=(read,tcheck) s
 table=(opt,rrhf)
 ----------------------------------------------------------------------
 -----
 title
 -----
 Symbolic Z-matrix:
 Charge =  0 Multiplicity = 1

 SCF Done:  E(RHF) =  -305.399116977     A.U. after   16 cycles
 Normal termination of Gaussian 16 at Wed Apr  9 18:44:43 2025.
 Gaussian 16:  ES64L-G16RevC.01  3-Jul-2019

 ----------------------------------------------------------------------
 #t hf aug-cc-pvdz iop(5/13=1,5/36=2,99/5=2) pseudo=read geom=check gue
 ss=(read,tcheck) scf=(maxcycle=1)
 ----------------------------------------------------------------------
 -----
 title
 -----
 Structure from the checkpoint file:  "Grambow2020_wb97xd3_008027_reverse_mol2.chk"
 Charge =  0 Multiplicity = 1

                         Standard orientation:
 ---------------------------------------------------------------------
 Center     Atomic      Atomic             Coordinates (Angstroms)
 Number     Number       Type             X           Y           Z
 ---------------------------------------------------------------------
      1          8           0        2.262090   -0.663480    0.021392
      2          6           0        0.929631   -0.980230   -0.297684
      3          6           0       -0.070093   -0.097426    0.477644
      4          6           0       -0.365120    2.355835   -0.394933
      5          6           0        0.185047    1.358226    0.204805
      6          6           0       -1.440512   -0.490415    0.151303
      7          6           0       -2.545985   -0.846502   -0.134133
      8          1           0        2.578377    0.010413   -0.582076
      9          1           0        0.731377   -0.885534   -1.369416
     10          1           0        0.760737   -2.019384   -0.011037
     11          1           0        0.100204   -0.271185    1.544095
     12          1           0        1.110556    1.827903    0.585876
     13          1           0       -3.535772   -1.151301   -0.380593
 ---------------------------------------------------------------------

 SCF Done:  E(RHF) =  -305.709005799     A.U. after    2 cycles

 The electronic state is 1-A.
 Alpha  occ. eigenvalues --  -20.57064 -11.31208 -11.30397 -11.30302 -11.25884
 Alpha  occ. eigenvalues --  -11.25551 -11.25142  -1.47682  -1.14045  -1.05347
 Alpha  occ. eigenvalues --   -1.00912  -0.89600  -0.76873  -0.73426  -0.71641
 Alpha  occ. eigenvalues --   -0.66749  -0.64011  -0.61346  -0.59383  -0.51838
 Alpha  occ. eigenvalues --   -0.48345  -0.46470  -0.42574  -0.41672  -0.40384
 Alpha virt. eigenvalues --    0.03205   0.03437   0.04056   0.04461   0.05429
 Alpha virt. eigenvalues --    0.06456   0.07007   0.08512   0.10067   0.10629
 Alpha virt. eigenvalues --    0.11204   0.12385   0.12741   0.12964   0.14025

 Mulliken charges:
               1
     1  O   -1.123713
     2  C    0.914320
     3  C   -1.281534
     4  C   -0.670487
     5  C    0.887507
     6  C    0.754143
     7  C    0.222150
     8  H    0.276890
     9  H    0.179023
    10  H    0.049160
    11  H    0.262734
    12  H   -0.045642
    13  H   -0.424551
 Sum of Mulliken charges =  -0.00000

 Dipole moment (field-independent basis, Debye):
    X=              0.5255    Y=             -1.6363    Z=              0.0019  Tot=              1.7186

 Test job not archived.
 1\1\GINC-SE113\SP\RHF\Aug-CC-pVDZ\C6H6O1\OHZDE\09-Apr-2025\0\\#t hf au
 g-cc-pvdz iop(5/13=1,5/36=2,99/5=2) pseudo=read geom=check guess=(read
 ,tcheck) scf=(maxcycle=1)\\title\\0,1\O,0,1.95564856,-1.15085946,-0.03
 234522\C,0,1.25781684,0.04312304,0.22265482\C,0,-0.20217496,-0.0306448
 9,-0.27020025\C,0,-1.85883297,-1.40622639,1.2231779\C,0,-0.92048199,-1
 .18514104,0.36982428\C,0,-0.87603517,1.24447618,-0.02736784\C,0,-1.389
 55374,2.30456457,0.17964552\H,0,1.86098974,-1.73726704,0.7196589\H,0,1
 .26201551,0.30104531,1.2858289\H,0,1.76217141,0.84202252,-0.3231637\H,

 Normal termination of Gaussian 16 at Wed Apr  9 18:44:47 2025.
