 Gaussian 16, Revision C.01,

 ----------------------------------------------------------------------
 #t hf aug-cc-pvdz symm=none int=(grid=ultrafine) guess=(read,tcheck) s
 table=(opt,rrhf)
 ----------------------------------------------------------------------
 -----
 title
 -----
 Symbolic Z-matrix:
 Charge =  0 Multiplicity = 1

 SCF Done:  E(RHF) =  -323.881082411     A.U. after   14 cycles
 Normal termination of Gaussian 16 at Wed Apr  9 18:05:46 2025.
 Gaussian 16:  ES64L-G16RevC.01  3-Jul-2019

 ----------------------------------------------------------------------
 #t hf aug-cc-pvdz iop(5/13=1,5/36=2,99/5=2) pseudo=read geom=check gue
 ss=(read,tcheck) scf=(maxcycle=1)
 ----------------------------------------------------------------------
 -----
 title
 -----
 Structure from the checkpoint file:  "Grambow2020_wb97xd3_006971_reverse_mol2.chk"
 Charge =  0 Multiplicity = 1

                         Standard orientation:
 ---------------------------------------------------------------------
 Center     Atomic      Atomic             Coordinates (Angstroms)
 Number     Number       Type             X           Y           Z
 ---------------------------------------------------------------------
      1          6           0        2.308566   -1.125597    0.027641
      2          6           0        0.811396   -0.851015    0.009700
      3          6           0        0.464500    0.589560    0.369119
      4          8           0        1.040575    1.521126   -0.541388
      5          6           0       -1.012760    0.862016    0.384988
      6          6           0       -1.922641   -0.011132    0.046959
      7          7           0       -2.776092   -0.859978   -0.150576
      8          1           0        2.747203   -0.883923    0.999904
      9          1           0        2.515823   -2.177501   -0.172346
     10          1           0        2.832261   -0.546489   -0.736531
     11          1           0        0.304838   -1.514490    0.716504
     12          1           0        0.405348   -1.067695   -0.982703
     13          1           0        0.853165    0.797773    1.377345
     14          1           0        1.987583    1.547458   -0.390764
     15          1           0       -3.088289   -0.943591   -1.114251
     16          1           0       -1.344258    1.856299    0.657546
 ---------------------------------------------------------------------

 SCF Done:  E(RHF) =  -324.221240254     A.U. after    2 cycles

 The electronic state is 1-A.
 Alpha  occ. eigenvalues --  -20.54975 -15.52265 -11.31955 -11.30235 -11.23898
 Alpha  occ. eigenvalues --  -11.23422 -11.23355  -1.45397  -1.25254  -1.08826
 Alpha  occ. eigenvalues --   -1.02787  -0.91580  -0.83211  -0.78633  -0.71383
 Alpha  occ. eigenvalues --   -0.68204  -0.64326  -0.62224  -0.59542  -0.58781
 Alpha  occ. eigenvalues --   -0.54227  -0.52850  -0.51744  -0.49904  -0.48152
 Alpha  occ. eigenvalues --   -0.44213  -0.36356
 Alpha virt. eigenvalues --    0.03428   0.03581   0.03827   0.04466   0.05639
 Alpha virt. eigenvalues --    0.06744   0.07057   0.07973   0.08449   0.11043
 Alpha virt. eigenvalues --    0.11855   0.12583   0.12813   0.13695   0.14587

 Mulliken charges:
               1
     1  C   -0.563740
     2  C   -0.145645
     3  C    0.498653
     4  O   -1.249281
     5  C    1.598868
     6  C   -2.383158
     7  N    0.933140
     8  H    0.173925
     9  H    0.128992
    10  H    0.157780
    11  H    0.204580
    12  H    0.168758
    13  H    0.145223
    14  H    0.286721
    15  H    0.158982
    16  H   -0.113798
 Sum of Mulliken charges =  -0.00000

 Dipole moment (field-independent basis, Debye):
    X=              1.9054    Y=              0.1086    Z=             -0.1254  Tot=              1.9126

 Test job not archived.
 1\1\GINC-SE135\SP\RHF\Aug-CC-pVDZ\C5H9N1O1\OHZDE\09-Apr-2025\0\\#t hf
 aug-cc-pvdz iop(5/13=1,5/36=2,99/5=2) pseudo=read geom=check guess=(re
 ad,tcheck) scf=(maxcycle=1)\\title\\0,1\C,0,2.15717104,-0.01480435,0.0
 0413875\C,0,0.69829831,0.30161598,0.30213958\C,0,-0.25318303,-0.193636
 92,-0.7814577\O,0,-0.18837227,-1.607129,-0.94436903\C,0,-1.69237588,0.
 14198686,-0.51152787\C,0,-2.11715102,0.72566485,0.57632396\N,0,-2.4986
 0059,1.37781829,1.53399326\H,0,2.46656545,0.39873423,-0.95989674\H,0,2
 .81272075,0.40733376,0.76670448\H,0,2.33925863,-1.09191082,-0.01222882

 Normal termination of Gaussian 16 at Wed Apr  9 18:05:51 2025.
