 Gaussian 16, Revision C.01,

 ----------------------------------------------------------------------
 #t hf aug-cc-pvdz symm=none int=(grid=ultrafine) guess=(read,tcheck) s
 table=(opt,rrhf)
 ----------------------------------------------------------------------
 -----
 title
 -----
 Symbolic Z-matrix:
 Charge =  0 Multiplicity = 1

 SCF Done:  E(RHF) =  -307.751583156     A.U. after   13 cycles

 1\1\GINC-SE184\Stability\RHF\Aug-CC-pVDZ\C6H10O1\OHZDE\09-Apr-2025\0\\
 #t hf aug-cc-pvdz symm=none int=(grid=ultrafine) guess=(read,tcheck) s
 table=(opt,rrhf)\\title\\0,1\C,0,1.48966642,0.44141363,-0.69032829\C,0
 ,0.48599106,0.39324376,0.43106062\C,0,-0.22863651,-0.92311497,0.651497
 7\C,0,-1.02958163,-1.46782116,-0.58097962\C,0,-2.03571237,-0.41659878,
 -0.74090517\C,0,-0.1278466,1.6288296,0.91654632\O,0,0.91632666,0.99643
 547,1.6441171\H,0,2.2297933,-0.35342359,-0.57269231\H,0,1.00589571,0.3
 1790646,-1.66155611\H,0,2.01130129,1.39773804,-0.68613354\H,0,0.512852

 Normal termination of Gaussian 16 at Wed Apr  9 03:34:31 2025.
 Gaussian 16:  ES64L-G16RevC.01  3-Jul-2019

 ----------------------------------------------------------------------
 #t hf aug-cc-pvdz iop(5/13=1,5/36=2,99/5=2) pseudo=read geom=check gue
 ss=(read,tcheck) scf=(maxcycle=1)
 ----------------------------------------------------------------------
 -----
 title
 -----
 Structure from the checkpoint file:  "Grambow2020_wb97xd3_007043_reverse_mol2.chk"
 Charge =  0 Multiplicity = 1

                         Standard orientation:
 ---------------------------------------------------------------------
 Center     Atomic      Atomic             Coordinates (Angstroms)
 Number     Number       Type             X           Y           Z
 ---------------------------------------------------------------------
      1          6           0       -0.803290    1.529769   -0.456403
      2          6           0       -0.601228    0.139740    0.085989
      3          6           0        0.630889   -0.089143    0.935451
      4          6           0        1.997300    0.234763    0.238870
      5          6           0        1.993260   -0.749628   -0.844597
      6          6           0       -1.236776   -1.001453   -0.571980
      7          8           0       -1.766727   -0.463633    0.631964
      8          1           0       -0.785997    2.260899    0.355103
      9          1           0       -0.021970    1.793998   -1.172149
     10          1           0       -1.767057    1.599838   -0.959315
     11          1           0        0.578328    0.560849    1.812210
     12          1           0        0.631470   -1.119072    1.291904
     13          1           0        2.771237    0.040534    0.983821
     14          1           0        2.001766    1.295041   -0.039500
     15          1           0        1.480751   -0.280976   -1.708538
     16          1           0       -0.792711   -1.989544   -0.484467
     17          1           0       -1.842935   -0.836793   -1.458758
 ---------------------------------------------------------------------

 SCF Done:  E(RHF) =  -308.073207745     A.U. after    2 cycles

 The electronic state is 1-A.
 Alpha  occ. eigenvalues --  -20.55877 -11.30396 -11.29139 -11.27975 -11.26031
 Alpha  occ. eigenvalues --  -11.24958 -11.24134  -1.50354  -1.10800  -1.02005
 Alpha  occ. eigenvalues --   -0.93638  -0.92298  -0.81205  -0.76447  -0.68872
 Alpha  occ. eigenvalues --   -0.68123  -0.62851  -0.61906  -0.57870  -0.57081
 Alpha  occ. eigenvalues --   -0.55368  -0.52842  -0.51299  -0.50539  -0.44038
 Alpha  occ. eigenvalues --   -0.43440  -0.36755
 Alpha virt. eigenvalues --    0.03210   0.03289   0.03866   0.04343   0.05777
 Alpha virt. eigenvalues --    0.06011   0.06299   0.06594   0.07611   0.09107
 Alpha virt. eigenvalues --    0.09536   0.11674   0.12488   0.13020   0.13756

 Mulliken charges:
               1
     1  C   -0.563495
     2  C    1.041414
     3  C   -0.358137
     4  C   -0.202400
     5  C   -0.184165
     6  C    0.360080
     7  O   -1.474097
     8  H    0.259129
     9  H    0.223753
    10  H    0.139292
    11  H    0.177807
    12  H    0.139341
    13  H    0.179206
    14  H    0.174921
    15  H    0.202227
    16  H   -0.077507
    17  H   -0.037369
 Sum of Mulliken charges =  -0.00000

 Dipole moment (field-independent basis, Debye):
    X=              0.4400    Y=              2.2586    Z=             -0.7032  Tot=              2.4061

 Test job not archived.
 1\1\GINC-SE184\SP\RHF\Aug-CC-pVDZ\C6H10O1\OHZDE\09-Apr-2025\0\\#t hf a
 ug-cc-pvdz iop(5/13=1,5/36=2,99/5=2) pseudo=read geom=check guess=(rea
 d,tcheck) scf=(maxcycle=1)\\title\\0,1\C,0,1.48966642,0.44141363,-0.69
 032829\C,0,0.48599106,0.39324376,0.43106062\C,0,-0.22863651,-0.9231149
 7,0.6514977\C,0,-1.02958163,-1.46782116,-0.58097962\C,0,-2.03571237,-0
 .41659878,-0.74090517\C,0,-0.1278466,1.6288296,0.91654632\O,0,0.916326
 66,0.99643547,1.6441171\H,0,2.2297933,-0.35342359,-0.57269231\H,0,1.00
 589571,0.31790646,-1.66155611\H,0,2.01130129,1.39773804,-0.68613354\H,

 Normal termination of Gaussian 16 at Wed Apr  9 03:34:38 2025.
