 Gaussian 16, Revision C.01,

 ----------------------------------------------------------------------
 #t hf aug-cc-pvdz symm=none int=(grid=ultrafine) guess=(read,tcheck) s
 table=(opt,rrhf)
 ----------------------------------------------------------------------
 -----
 title
 -----
 Symbolic Z-matrix:
 Charge =  0 Multiplicity = 1

 SCF Done:  E(RHF) =  -322.574338467     A.U. after   15 cycles
 Normal termination of Gaussian 16 at Wed Apr  9 18:08:41 2025.
 Gaussian 16:  ES64L-G16RevC.01  3-Jul-2019

 ----------------------------------------------------------------------
 #t hf aug-cc-pvdz iop(5/13=1,5/36=2,99/5=2) pseudo=read geom=check gue
 ss=(read,tcheck) scf=(maxcycle=1)
 ----------------------------------------------------------------------
 -----
 title
 -----
 Structure from the checkpoint file:  "Grambow2020_wb97xd3_007130_forward_mol1.chk"
 Charge =  0 Multiplicity = 1

                         Standard orientation:
 ---------------------------------------------------------------------
 Center     Atomic      Atomic             Coordinates (Angstroms)
 Number     Number       Type             X           Y           Z
 ---------------------------------------------------------------------
      1          7           0       -2.407605    0.186508    0.006660
      2          6           0       -1.317495   -0.313515   -0.139606
      3          8           0        0.136625    1.465300    0.441044
      4          6           0        1.141936    1.113876   -0.274529
      5          6           0        1.470465   -0.290634   -0.340043
      6          6           0        0.859974   -1.203206    0.625653
      7          6           0       -0.338018   -1.217245   -0.297757
      8          1           0       -2.504088    1.170280   -0.215993
      9          1           0        2.216892    1.064396    0.285295
     10          1           0        1.397622    1.673705   -1.192261
     11          1           0        2.174737   -0.650568   -1.085459
     12          1           0        0.631072   -0.741587    1.581607
     13          1           0        1.340202   -2.170499    0.734271
     14          1           0       -0.397377   -1.909341   -1.124745
 ---------------------------------------------------------------------

 SCF Done:  E(RHF) =  -322.906684438     A.U. after    2 cycles

 The electronic state is 1-A.
 Alpha  occ. eigenvalues --  -20.45017 -15.52141 -11.35045 -11.33797 -11.29938
 Alpha  occ. eigenvalues --  -11.27910 -11.26136  -1.37720  -1.25977  -1.15533
 Alpha  occ. eigenvalues --   -1.02232  -0.94025  -0.79960  -0.78493  -0.73403
 Alpha  occ. eigenvalues --   -0.68554  -0.64959  -0.60516  -0.60011  -0.57169
 Alpha  occ. eigenvalues --   -0.56802  -0.53473  -0.50507  -0.38261  -0.35769
 Alpha  occ. eigenvalues --   -0.33908
 Alpha virt. eigenvalues --    0.02254   0.03438   0.03634   0.04564   0.06059
 Alpha virt. eigenvalues --    0.06457   0.06987   0.07226   0.09702   0.10344
 Alpha virt. eigenvalues --    0.12104   0.12443   0.13195   0.13936   0.14472

 Mulliken charges:
               1
     1  N    0.968594
     2  C   -1.986436
     3  O   -1.307449
     4  C    0.611980
     5  C    0.129627
     6  C    0.155648
     7  C    0.981004
     8  H    0.176892
     9  H    0.340444
    10  H    0.132357
    11  H   -0.115147
    12  H    0.086392
    13  H   -0.006413
    14  H   -0.167492
 Sum of Mulliken charges =  -0.00000

 Dipole moment (field-independent basis, Debye):
    X=              3.6007    Y=             -3.0776    Z=             -2.2978  Tot=              5.2647

 Test job not archived.
 1\1\GINC-SE029\SP\RHF\Aug-CC-pVDZ\C5H7N1O1\OHZDE\09-Apr-2025\0\\#t hf
 aug-cc-pvdz iop(5/13=1,5/36=2,99/5=2) pseudo=read geom=check guess=(re
 ad,tcheck) scf=(maxcycle=1)\\title\\0,1\N,0,1.9059928,-1.92229042,-0.1
 2336445\C,0,0.85754304,-1.32292808,-0.08766346\O,0,1.32139231,0.586419
 42,-1.41244128\C,0,0.48768005,1.39148672,-0.86200074\C,0,-0.81338123,0
 .87934651,-0.50168931\C,0,-1.23614077,-0.4128136,-1.03988325\C,0,-0.44
 002313,-1.02925413,0.08895082\H,0,2.75723755,-1.37340979,-0.15167984\H
 ,0,-0.25385492,1.99841263,-1.60574055\H,0,0.84594081,2.20072785,-0.200

 Normal termination of Gaussian 16 at Wed Apr  9 18:08:46 2025.
