 Gaussian 16, Revision C.01,

 ----------------------------------------------------------------------
 #t hf aug-cc-pvdz symm=none int=(grid=ultrafine) guess=(read,tcheck) s
 table=(opt,rrhf)
 ----------------------------------------------------------------------
 -----
 title
 -----
 Symbolic Z-matrix:
 Charge =  0 Multiplicity = 1

 SCF Done:  E(RHF) =  -343.590172947     A.U. after   14 cycles
 Normal termination of Gaussian 16 at Wed Apr  9 17:55:39 2025.
 Gaussian 16:  ES64L-G16RevC.01  3-Jul-2019

 ----------------------------------------------------------------------
 #t hf aug-cc-pvdz iop(5/13=1,5/36=2,99/5=2) pseudo=read geom=check gue
 ss=(read,tcheck) scf=(maxcycle=1)
 ----------------------------------------------------------------------
 -----
 title
 -----
 Structure from the checkpoint file:  "Grambow2020_wb97xd3_006879_forward_mol1.chk"
 Charge =  0 Multiplicity = 1

                         Standard orientation:
 ---------------------------------------------------------------------
 Center     Atomic      Atomic             Coordinates (Angstroms)
 Number     Number       Type             X           Y           Z
 ---------------------------------------------------------------------
      1          6           0        0.612632    1.644014    0.041070
      2          6           0        0.579640    0.152948   -0.129330
      3          6           0        1.031015   -0.784772    0.936130
      4          6           0        1.828323   -0.631354   -0.333974
      5          8           0       -0.498765   -0.303112   -0.972012
      6          6           0       -1.710388   -0.346443   -0.489032
      7          8           0       -1.942820    0.013352    0.724856
      8          1           0       -0.251094    1.995969    0.604154
      9          1           0        0.625783    2.136161   -0.933005
     10          1           0        1.516259    1.931941    0.579783
     11          1           0        1.410985   -0.351748    1.852183
     12          1           0        0.473154   -1.701446    1.066069
     13          1           0        2.767501   -0.094935   -0.300175
     14          1           0        1.787131   -1.443232   -1.047366
     15          1           0       -2.844369   -0.360982    0.006425
 ---------------------------------------------------------------------

 SCF Done:  E(RHF) =  -343.942008350     A.U. after    2 cycles

 The electronic state is 1-A.
 Alpha  occ. eigenvalues --  -20.60408 -20.57454 -11.37170 -11.31009 -11.24376
 Alpha  occ. eigenvalues --  -11.24247 -11.23682  -1.56503  -1.48219  -1.16852
 Alpha  occ. eigenvalues --   -0.99041  -0.87974  -0.84469  -0.76669  -0.74221
 Alpha  occ. eigenvalues --   -0.70181  -0.68159  -0.62207  -0.59234  -0.58772
 Alpha  occ. eigenvalues --   -0.56294  -0.54337  -0.52711  -0.49584  -0.44311
 Alpha  occ. eigenvalues --   -0.42719  -0.37230
 Alpha virt. eigenvalues --    0.03702   0.04066   0.04246   0.04330   0.05827
 Alpha virt. eigenvalues --    0.06723   0.07036   0.07728   0.10157   0.10978
 Alpha virt. eigenvalues --    0.12058   0.13453   0.13836   0.14687   0.14852

 Mulliken charges:
               1
     1  C   -0.709698
     2  C    1.138475
     3  C    0.200510
     4  C    0.362955
     5  O   -1.292103
     6  C    0.453303
     7  O   -1.024616
     8  H    0.219152
     9  H    0.223494
    10  H    0.138979
    11  H   -0.097314
    12  H   -0.103352
    13  H   -0.123680
    14  H   -0.083481
    15  H    0.697378
 Sum of Mulliken charges =  -0.00000

 Dipole moment (field-independent basis, Debye):
    X=              1.3387    Y=              0.3528    Z=              0.5057  Tot=              1.4739

 Test job not archived.
 1\1\GINC-SE229\SP\RHF\Aug-CC-pVDZ\C5H8O2\OHZDE\09-Apr-2025\0\\#t hf au
 g-cc-pvdz iop(5/13=1,5/36=2,99/5=2) pseudo=read geom=check guess=(read
 ,tcheck) scf=(maxcycle=1)\\title\\0,1\C,0,-0.27590144,1.50371285,-0.20
 760518\C,0,-0.16018332,0.08457779,0.26785893\C,0,-0.82034161,-1.051193
 75,-0.43390857\C,0,-1.30283361,-0.60840731,0.9238633\O,0,1.09824691,-0
 .20238849,0.91211509\C,0,2.16414439,-0.37662104,0.17952869\O,0,2.09571
 551,-0.29358442,-1.1032123\H,0,0.42154992,1.70578772,-1.01981615\H,0,-
 0.0754595,2.19529584,0.61260199\H,0,-1.28847934,1.68846358,-0.56844981

 Normal termination of Gaussian 16 at Wed Apr  9 17:55:45 2025.
