 Gaussian 16, Revision C.01,

 ----------------------------------------------------------------------
 #t hf aug-cc-pvdz symm=none int=(grid=ultrafine) guess=(read,tcheck) s
 table=(opt,rrhf)
 ----------------------------------------------------------------------
 -----
 title
 -----
 Symbolic Z-matrix:
 Charge =  0 Multiplicity = 1

 SCF Done:  E(RHF) =  -359.580482159     A.U. after   17 cycles
 Normal termination of Gaussian 16 at Wed Apr  9 19:21:07 2025.
 Gaussian 16:  ES64L-G16RevC.01  3-Jul-2019

 ----------------------------------------------------------------------
 #t hf aug-cc-pvdz iop(5/13=1,5/36=2,99/5=2) pseudo=read geom=check gue
 ss=(read,tcheck) scf=(maxcycle=1)
 ----------------------------------------------------------------------
 -----
 title
 -----
 Structure from the checkpoint file:  "Grambow2020_wb97xd3_009406_forward_mol1.chk"
 Charge =  0 Multiplicity = 1

                         Standard orientation:
 ---------------------------------------------------------------------
 Center     Atomic      Atomic             Coordinates (Angstroms)
 Number     Number       Type             X           Y           Z
 ---------------------------------------------------------------------
      1          8           0       -1.792126    0.106030   -0.576966
      2          6           0       -0.907730    0.332998    0.486025
      3          6           0       -0.099671   -0.975297    0.708884
      4          8           0        0.187916   -1.599266   -0.420857
      5          6           0        1.609426   -0.167033   -0.109181
      6          7           0        1.291227    0.954447   -0.395639
      7          6           0        0.050123    1.498746    0.153440
      8          1           0       -1.374762   -0.606453   -1.090727
      9          1           0       -1.490622    0.587976    1.374805
     10          1           0        0.963228   -0.562172    1.200755
     11          1           0       -0.461586   -1.585404    1.555080
     12          1           0        2.343431   -0.948054   -0.189679
     13          1           0        0.320156    2.081945    1.038766
     14          1           0       -0.417641    2.160440   -0.571963
 ---------------------------------------------------------------------

 SCF Done:  E(RHF) =  -359.949012198     A.U. after    2 cycles

 The electronic state is 1-A.
 Alpha  occ. eigenvalues --  -20.53561 -20.47795 -15.54962 -11.41681 -11.32724
 Alpha  occ. eigenvalues --  -11.30079 -11.29954  -1.45737  -1.39590  -1.31550
 Alpha  occ. eigenvalues --   -1.05508  -0.97186  -0.85977  -0.83195  -0.73646
 Alpha  occ. eigenvalues --   -0.70851  -0.68698  -0.67682  -0.61543  -0.58640
 Alpha  occ. eigenvalues --   -0.55524  -0.54145  -0.52215  -0.50294  -0.44495
 Alpha  occ. eigenvalues --   -0.38687  -0.36708
 Alpha virt. eigenvalues --    0.02681   0.03623   0.04209   0.05039   0.05482
 Alpha virt. eigenvalues --    0.06589   0.07312   0.07474   0.08830   0.10600
 Alpha virt. eigenvalues --    0.11463   0.12269   0.13945   0.14354   0.14653

 Mulliken charges:
               1
     1  O   -1.373591
     2  C    1.092113
     3  C    0.483603
     4  O   -1.345830
     5  C   -0.800128
     6  N    0.978434
     7  C   -0.463923
     8  H    0.326973
     9  H    0.133725
    10  H    0.764554
    11  H   -0.004564
    12  H   -0.005462
    13  H    0.110272
    14  H    0.103823
 Sum of Mulliken charges =  -0.00000

 Dipole moment (field-independent basis, Debye):
    X=              2.6374    Y=              1.2144    Z=              3.1360  Tot=              4.2738

 Test job not archived.
 1\1\GINC-SE105\SP\RHF\Aug-CC-pVDZ\C4H7N1O2\OHZDE\09-Apr-2025\0\\#t hf
 aug-cc-pvdz iop(5/13=1,5/36=2,99/5=2) pseudo=read geom=check guess=(re
 ad,tcheck) scf=(maxcycle=1)\\title\\0,1\O,0,-1.27014103,-0.78257725,1.
 29140499\C,0,-0.97338262,-0.06842715,0.12283996\C,0,0.02231619,1.06122
 624,0.50589336\O,0,0.8916519,0.68731757,1.42936843\C,0,1.60569684,0.09
 422396,-0.38928665\N,0,1.1172403,-0.90518458,-0.84052729\C,0,-0.338913
 94,-0.99982219,-0.93405117\H,0,-0.50106631,-0.63351267,1.86766946\H,0,
 -1.90215184,0.3482741,-0.27522265\H,0,0.64398015,1.25100817,-0.5523502

 Normal termination of Gaussian 16 at Wed Apr  9 19:21:12 2025.
