 Gaussian 16, Revision C.01,

 ----------------------------------------------------------------------
 #t hf aug-cc-pvdz symm=none int=(grid=ultrafine) guess=(read,tcheck) s
 table=(opt,rrhf)
 ----------------------------------------------------------------------
 -----
 title
 -----
 Symbolic Z-matrix:
 Charge =  0 Multiplicity = 1

 SCF Done:  E(RHF) =  -305.462108009     A.U. after   14 cycles
 Normal termination of Gaussian 16 at Wed Apr  9 03:53:37 2025.
 Gaussian 16:  ES64L-G16RevC.01  3-Jul-2019

 ----------------------------------------------------------------------
 #t hf aug-cc-pvdz iop(5/13=1,5/36=2,99/5=2) pseudo=read geom=check gue
 ss=(read,tcheck) scf=(maxcycle=1)
 ----------------------------------------------------------------------
 -----
 title
 -----
 Structure from the checkpoint file:  "Grambow2020_wb97xd3_008341_forward_mol2.chk"
 Charge =  0 Multiplicity = 1

                         Standard orientation:
 ---------------------------------------------------------------------
 Center     Atomic      Atomic             Coordinates (Angstroms)
 Number     Number       Type             X           Y           Z
 ---------------------------------------------------------------------
      1          8           0       -0.405067   -1.464250   -0.939573
      2          6           0       -0.634107   -0.790112    0.273947
      3          6           0        0.683826   -0.485720    1.011374
      4          6           0        1.578733    0.343806    0.211204
      5          6           0        2.292971    1.007675   -0.483639
      6          6           0       -1.437101    0.428506    0.090806
      7          6           0       -2.078541    1.426973   -0.063075
      8          1           0        0.089372   -0.875166   -1.518583
      9          1           0       -1.205881   -1.487223    0.890558
     10          1           0        1.172391   -1.437284    1.231300
     11          1           0        0.465442    0.008519    1.960552
     12          1           0        2.935235    1.604942   -1.086817
     13          1           0       -2.650713    2.313440   -0.204131
 ---------------------------------------------------------------------

 SCF Done:  E(RHF) =  -305.776315714     A.U. after    2 cycles

 The electronic state is 1-A.
 Alpha  occ. eigenvalues --  -20.56149 -11.33122 -11.27570 -11.25229 -11.24756
 Alpha  occ. eigenvalues --  -11.24364 -11.24274  -1.47091  -1.10489  -1.04724
 Alpha  occ. eigenvalues --   -1.00227  -0.90859  -0.76467  -0.73503  -0.71192
 Alpha  occ. eigenvalues --   -0.67916  -0.66296  -0.60687  -0.59611  -0.53376
 Alpha  occ. eigenvalues --   -0.47973  -0.41727  -0.41400  -0.40409  -0.40209
 Alpha virt. eigenvalues --    0.03294   0.03578   0.03784   0.05175   0.05590
 Alpha virt. eigenvalues --    0.06309   0.09522   0.09780   0.10375   0.11562
 Alpha virt. eigenvalues --    0.12010   0.12964   0.13348   0.13909   0.14447

 Mulliken charges:
               1
     1  O   -1.309344
     2  C    0.756076
     3  C   -0.867657
     4  C    0.457583
     5  C    0.284466
     6  C    0.275825
     7  C    0.368556
     8  H    0.298349
     9  H    0.126278
    10  H    0.235796
    11  H    0.226830
    12  H   -0.425045
    13  H   -0.427713
 Sum of Mulliken charges =  -0.00000

 Dipole moment (field-independent basis, Debye):
    X=              0.4721    Y=              1.0613    Z=              0.6943  Tot=              1.3532

 Test job not archived.
 1\1\GINC-SE059\SP\RHF\Aug-CC-pVDZ\C6H6O1\OHZDE\09-Apr-2025\0\\#t hf au
 g-cc-pvdz iop(5/13=1,5/36=2,99/5=2) pseudo=read geom=check guess=(read
 ,tcheck) scf=(maxcycle=1)\\title\\0,1\O,0,-0.25699206,-0.57850714,1.78
 605546\C,0,0.34396174,-0.88792163,0.55209099\C,0,-0.67023896,-0.820557
 25,-0.6056053\C,0,-1.27028772,0.50371389,-0.73006154\C,0,-1.75482624,1
 .59717025,-0.78700109\C,0,1.52095448,-0.04879729,0.28019535\C,0,2.4697
 2704,0.64490653,0.05510305\H,0,-0.55461516,0.33633716,1.75107773\H,0,0
 .67620001,-1.92455345,0.64214988\H,0,-1.45335918,-1.55565778,-0.408408

 Normal termination of Gaussian 16 at Wed Apr  9 03:53:42 2025.
