 Gaussian 16, Revision C.01,

 ----------------------------------------------------------------------
 #t hf aug-cc-pvdz symm=none int=(grid=ultrafine) guess=(read,tcheck) s
 table=(opt,rrhf)
 ----------------------------------------------------------------------
 -----
 title
 -----
 Symbolic Z-matrix:
 Charge =  0 Multiplicity = 1

 SCF Done:  E(RHF) =  -306.525635544     A.U. after   16 cycles
 Normal termination of Gaussian 16 at Wed Apr  9 03:27:54 2025.
 Gaussian 16:  ES64L-G16RevC.01  3-Jul-2019

 ----------------------------------------------------------------------
 #t hf aug-cc-pvdz iop(5/13=1,5/36=2,99/5=2) pseudo=read geom=check gue
 ss=(read,tcheck) scf=(maxcycle=1)
 ----------------------------------------------------------------------
 -----
 title
 -----
 Structure from the checkpoint file:  "Grambow2020_wb97xd3_006669_forward_mol1.chk"
 Charge =  0 Multiplicity = 1

                         Standard orientation:
 ---------------------------------------------------------------------
 Center     Atomic      Atomic             Coordinates (Angstroms)
 Number     Number       Type             X           Y           Z
 ---------------------------------------------------------------------
      1          6           0        2.185680   -0.285782   -0.145048
      2          6           0        0.712916   -0.509095   -0.398206
      3          6           0       -0.187646   -0.764336    0.805363
      4          8           0       -0.049804    1.279738    0.790032
      5          6           0       -0.170308    0.771208   -0.546127
      6          6           0       -1.545621    0.133328   -0.678001
      7          6           0       -1.531841   -0.859734    0.220212
      8          1           0        2.657420   -1.209240    0.195508
      9          1           0        2.337791    0.480895    0.613146
     10          1           0        2.687868    0.025919   -1.063004
     11          1           0        0.533026   -1.229990   -1.194807
     12          1           0        0.039336    0.203989    1.530366
     13          1           0        0.094179    1.532444   -1.286338
     14          1           0       -2.385016    0.516744   -1.243851
     15          1           0       -2.345256   -1.472202    0.579553
 ---------------------------------------------------------------------

 SCF Done:  E(RHF) =  -306.844094676     A.U. after    2 cycles

 The electronic state is 1-A.
 Alpha  occ. eigenvalues --  -20.50845 -11.31034 -11.30246 -11.26512 -11.25735
 Alpha  occ. eigenvalues --  -11.25612 -11.22664  -1.40076  -1.16117  -1.03804
 Alpha  occ. eigenvalues --   -0.94192  -0.91144  -0.76423  -0.75720  -0.69657
 Alpha  occ. eigenvalues --   -0.66520  -0.61233  -0.58338  -0.57332  -0.56494
 Alpha  occ. eigenvalues --   -0.53906  -0.49402  -0.49017  -0.41842  -0.37405
 Alpha  occ. eigenvalues --   -0.34771
 Alpha virt. eigenvalues --    0.02927   0.03199   0.03575   0.04855   0.05175
 Alpha virt. eigenvalues --    0.05560   0.06594   0.07342   0.08010   0.09610
 Alpha virt. eigenvalues --    0.11328   0.12394   0.12637   0.13150   0.14099

 Mulliken charges:
               1
     1  C   -0.370324
     2  C   -0.280583
     3  C   -0.797267
     4  O   -1.547976
     5  C    0.883831
     6  C    0.446361
     7  C    0.640515
     8  H    0.198001
     9  H    0.231994
    10  H    0.201665
    11  H   -0.086433
    12  H    0.756288
    13  H   -0.068391
    14  H   -0.122144
    15  H   -0.085538
 Sum of Mulliken charges =   0.00000

 Dipole moment (field-independent basis, Debye):
    X=             -0.5654    Y=             -2.0211    Z=             -2.0445  Tot=              2.9300

 Test job not archived.
 1\1\GINC-SE054\SP\RHF\Aug-CC-pVDZ\C6H8O1\OHZDE\09-Apr-2025\0\\#t hf au
 g-cc-pvdz iop(5/13=1,5/36=2,99/5=2) pseudo=read geom=check guess=(read
 ,tcheck) scf=(maxcycle=1)\\title\\0,1\C,0,1.94174432,0.39548514,-0.174
 84352\C,0,0.57943054,-0.23774589,-0.33643251\C,0,-0.10377746,-0.789350
 91,0.91004095\O,0,-0.56138405,1.2052149,1.0089239\C,0,-0.64390058,0.73
 413366,-0.34374672\C,0,-1.78370668,-0.27150349,-0.41658573\C,0,-1.4084
 9815,-1.2503881,0.41657219\H,0,2.68632355,-0.36246864,0.07495448\H,0,1
 .93095754,1.14420611,0.6157835\H,0,2.25300436,0.87422891,-1.10538913\H

 Normal termination of Gaussian 16 at Wed Apr  9 03:27:59 2025.
