 Gaussian 16, Revision C.01,

 ----------------------------------------------------------------------
 #t hf aug-cc-pvdz symm=none int=(grid=ultrafine) guess=(read,tcheck) s
 table=(opt,rrhf)
 ----------------------------------------------------------------------
 -----
 title
 -----
 Symbolic Z-matrix:
 Charge =  0 Multiplicity = 1

 SCF Done:  E(RHF) =  -346.114228974     A.U. after   13 cycles

 1\1\GINC-SE112\Stability\RHF\Aug-CC-pVDZ\C5H12O2\OHZDE\09-Apr-2025\0\\
 #t hf aug-cc-pvdz symm=none int=(grid=ultrafine) guess=(read,tcheck) s
 table=(opt,rrhf)\\title\\0,1\C,0,2.34957216,0.10227259,1.49524978\C,0,
 1.40576032,0.85251201,0.57472466\C,0,0.06243783,0.19118163,0.38879194\
 O,0,-0.23824645,-0.80892409,1.00521606\C,0,-0.87673784,0.80202164,-0.6
 2491961\C,0,-0.80820379,0.02852617,-1.94502004\O,0,-2.77492394,-1.7705
 4602,0.16807463\H,0,1.91890821,-0.00458688,2.49083549\H,0,2.54672273,-
 0.90140845,1.11768532\H,0,3.30001357,0.62965368,1.58408509\H,0,1.20920

 Normal termination of Gaussian 16 at Wed Apr  9 18:48:57 2025.
 Gaussian 16:  ES64L-G16RevC.01  3-Jul-2019

 ----------------------------------------------------------------------
 #t hf aug-cc-pvdz iop(5/13=1,5/36=2,99/5=2) pseudo=read geom=check gue
 ss=(read,tcheck) scf=(maxcycle=1)
 ----------------------------------------------------------------------
 -----
 title
 -----
 Structure from the checkpoint file:  "Grambow2020_wb97xd3_008077_reverse_mol2.chk"
 Charge =  0 Multiplicity = 1

                         Standard orientation:
 ---------------------------------------------------------------------
 Center     Atomic      Atomic             Coordinates (Angstroms)
 Number     Number       Type             X           Y           Z
 ---------------------------------------------------------------------
      1          6           0       -2.774020   -0.717445    0.313872
      2          6           0       -1.871639    0.380307   -0.216841
      3          6           0       -0.408093    0.015969   -0.258519
      4          8           0       -0.027578   -1.098160    0.032216
      5          6           0        0.567150    1.105653   -0.638356
      6          6           0        1.206731    1.706227    0.616994
      7          8           0        2.808136   -1.227023   -0.016537
      8          1           0       -2.697777   -1.614673   -0.300335
      9          1           0       -2.493713   -0.995341    1.330238
     10          1           0       -3.814308   -0.390161    0.320825
     11          1           0       -2.152453    0.672202   -1.235579
     12          1           0       -1.960965    1.299413    0.373726
     13          1           0        0.054989    1.881580   -1.211937
     14          1           0        1.845989   -1.347261    0.018517
     15          1           0        1.344648    0.663898   -1.264151
     16          1           0        0.455515    2.133865    1.285287
     17          1           0        1.766445    0.943060    1.157543
     18          1           0        1.901039    2.500109    0.341837
     19          1           0        3.185356   -2.089491    0.155695
 ---------------------------------------------------------------------

 SCF Done:  E(RHF) =  -346.481566983     A.U. after    2 cycles

 The electronic state is 1-A.
 Alpha  occ. eigenvalues --  -20.54310 -20.52289 -11.34318 -11.25205 -11.24353
 Alpha  occ. eigenvalues --  -11.23452 -11.23147  -1.48267  -1.40650  -1.08693
 Alpha  occ. eigenvalues --   -1.04415  -0.92119  -0.86037  -0.75057  -0.69544
 Alpha  occ. eigenvalues --   -0.66748  -0.65853  -0.63882  -0.60627  -0.57735
 Alpha  occ. eigenvalues --   -0.55431  -0.54703  -0.53391  -0.52340  -0.51318
 Alpha  occ. eigenvalues --   -0.50809  -0.48808  -0.46603  -0.41383
 Alpha virt. eigenvalues --    0.03123   0.03594   0.03858   0.04480   0.05721
 Alpha virt. eigenvalues --    0.05941   0.06369   0.07082   0.07426   0.09023
 Alpha virt. eigenvalues --    0.09732   0.10362   0.11929   0.12726   0.13955

 Mulliken charges:
               1
     1  C   -0.307518
     2  C   -0.446321
     3  C    1.461886
     4  O   -1.597663
     5  C   -0.536922
     6  C   -0.370950
     7  O   -0.935327
     8  H    0.177222
     9  H    0.165564
    10  H    0.131743
    11  H    0.273016
    12  H    0.221654
    13  H    0.091254
    14  H    0.649211
    15  H    0.206986
    16  H    0.142598
    17  H    0.202344
    18  H    0.113337
    19  H    0.357887
 Sum of Mulliken charges =  -0.00000

 Dipole moment (field-independent basis, Debye):
    X=             -2.2701    Y=              1.5120    Z=             -0.3108  Tot=              2.7452

 Test job not archived.
 1\1\GINC-SE112\SP\RHF\Aug-CC-pVDZ\C5H12O2\OHZDE\09-Apr-2025\0\\#t hf a
 ug-cc-pvdz iop(5/13=1,5/36=2,99/5=2) pseudo=read geom=check guess=(rea
 d,tcheck) scf=(maxcycle=1)\\title\\0,1\C,0,2.34957216,0.10227259,1.495
 24978\C,0,1.40576032,0.85251201,0.57472466\C,0,0.06243783,0.19118163,0
 .38879194\O,0,-0.23824645,-0.80892409,1.00521606\C,0,-0.87673784,0.802
 02164,-0.62491961\C,0,-0.80820379,0.02852617,-1.94502004\O,0,-2.774923
 94,-1.77054602,0.16807463\H,0,1.91890821,-0.00458688,2.49083549\H,0,2.
 54672273,-0.90140845,1.11768532\H,0,3.30001357,0.62965368,1.58408509\H

 Normal termination of Gaussian 16 at Wed Apr  9 18:49:04 2025.
