 Gaussian 16, Revision C.01,

 ----------------------------------------------------------------------
 #t hf aug-cc-pvdz symm=none int=(grid=ultrafine) guess=(read,tcheck) s
 table=(opt,rrhf)
 ----------------------------------------------------------------------
 -----
 title
 -----
 Symbolic Z-matrix:
 Charge =  0 Multiplicity = 1

 SCF Done:  E(RHF) =  -306.484215903     A.U. after   17 cycles
 Normal termination of Gaussian 16 at Wed Apr  9 03:51:49 2025.
 Gaussian 16:  ES64L-G16RevC.01  3-Jul-2019

 ----------------------------------------------------------------------
 #t hf aug-cc-pvdz iop(5/13=1,5/36=2,99/5=2) pseudo=read geom=check gue
 ss=(read,tcheck) scf=(maxcycle=1)
 ----------------------------------------------------------------------
 -----
 title
 -----
 Structure from the checkpoint file:  "Grambow2020_wb97xd3_008174_forward_mol1.chk"
 Charge =  0 Multiplicity = 1

                         Standard orientation:
 ---------------------------------------------------------------------
 Center     Atomic      Atomic             Coordinates (Angstroms)
 Number     Number       Type             X           Y           Z
 ---------------------------------------------------------------------
      1          6           0        1.564871    0.272629    0.206991
      2          6           0        0.885575   -0.737183   -0.670976
      3          8           0        0.006590   -1.490346    0.001134
      4          6           0       -0.879452   -0.743661    0.669154
      5          6           0       -1.567578    0.259725   -0.208155
      6          6           0       -0.507630    1.235647   -0.504153
      7          6           0        0.496759    1.238862    0.503896
      8          1           0        2.074925   -0.193407    1.066442
      9          1           0        2.326241    0.769526   -0.403711
     10          1           0        1.442840   -1.333670   -1.384617
     11          1           0       -1.427792   -1.338687    1.390720
     12          1           0       -2.072796   -0.210880   -1.067515
     13          1           0       -2.331644    0.749506    0.404702
     14          1           0       -0.802685    2.160338   -1.005675
     15          1           0        0.782927    2.163922    1.010036
 ---------------------------------------------------------------------

 SCF Done:  E(RHF) =  -306.801535885     A.U. after    2 cycles

 The electronic state is 1-A.
 Alpha  occ. eigenvalues --  -20.62550 -11.30803 -11.30649 -11.25620 -11.25534
 Alpha  occ. eigenvalues --  -11.24300 -11.24253  -1.56108  -1.12014  -1.05957
 Alpha  occ. eigenvalues --   -0.93483  -0.90819  -0.76163  -0.75590  -0.73319
 Alpha  occ. eigenvalues --   -0.67908  -0.63290  -0.62361  -0.60499  -0.57311
 Alpha  occ. eigenvalues --   -0.54606  -0.53453  -0.49204  -0.48740  -0.30283
 Alpha  occ. eigenvalues --   -0.25400
 Alpha virt. eigenvalues --    0.03649   0.03843   0.03867   0.04048   0.05621
 Alpha virt. eigenvalues --    0.06084   0.06109   0.06359   0.06367   0.09185
 Alpha virt. eigenvalues --    0.10860   0.12525   0.13737   0.14086   0.14231

 Mulliken charges:
               1
     1  C   -0.534488
     2  C    0.876439
     3  O   -1.309098
     4  C    0.892293
     5  C   -0.538376
     6  C    0.182578
     7  C    0.176558
     8  H    0.115763
     9  H    0.235852
    10  H   -0.109964
    11  H   -0.108359
    12  H    0.115732
    13  H    0.237099
    14  H   -0.115947
    15  H   -0.116083
 Sum of Mulliken charges =  -0.00000

 Dipole moment (field-independent basis, Debye):
    X=             -0.0263    Y=              0.3474    Z=              0.0245  Tot=              0.3492

 Test job not archived.
 1\1\GINC-SE102\SP\RHF\Aug-CC-pVDZ\C6H8O1\OHZDE\09-Apr-2025\0\\#t hf au
 g-cc-pvdz iop(5/13=1,5/36=2,99/5=2) pseudo=read geom=check guess=(read
 ,tcheck) scf=(maxcycle=1)\\title\\0,1\C,0,-1.56088831,-0.12333061,-0.2
 2309533\C,0,-0.80615282,-0.8386051,0.85891422\O,0,0.15951413,-1.627868
 38,0.37295896\C,0,0.98293376,-0.96099048,-0.44319852\C,0,1.54624823,0.
 2768372,0.18959711\C,0,0.38759141,1.18029186,0.25896661\C,0,-0.5872441
 6,0.85729859,-0.72609193\H,0,-2.00094411,-0.81786299,-0.9579261\H,0,-2
 .38257407,0.41585349,0.26028985\H,0,-1.3185759,-1.3160563,1.68661485\H

 Normal termination of Gaussian 16 at Wed Apr  9 03:51:54 2025.
