 Gaussian 16, Revision C.01,

 ----------------------------------------------------------------------
 #t hf aug-cc-pvdz symm=none int=(grid=ultrafine) guess=(read,tcheck) s
 table=(opt,rrhf)
 ----------------------------------------------------------------------
 -----
 title
 -----
 Symbolic Z-matrix:
 Charge =  0 Multiplicity = 1

 SCF Done:  E(RHF) =  -323.778481569     A.U. after   16 cycles
 Normal termination of Gaussian 16 at Wed Apr  9 18:28:35 2025.
 Gaussian 16:  ES64L-G16RevC.01  3-Jul-2019

 ----------------------------------------------------------------------
 #t hf aug-cc-pvdz iop(5/13=1,5/36=2,99/5=2) pseudo=read geom=check gue
 ss=(read,tcheck) scf=(maxcycle=1)
 ----------------------------------------------------------------------
 -----
 title
 -----
 Structure from the checkpoint file:  "Grambow2020_wb97xd3_007601_forward_mol1.chk"
 Charge =  0 Multiplicity = 1

                         Standard orientation:
 ---------------------------------------------------------------------
 Center     Atomic      Atomic             Coordinates (Angstroms)
 Number     Number       Type             X           Y           Z
 ---------------------------------------------------------------------
      1          6           0       -2.319607   -1.172293    0.232585
      2          6           0       -1.526593   -0.170268   -0.538422
      3          7           0       -1.347496    1.094099   -0.092302
      4          6           0        0.006942    1.170238   -0.159238
      5          6           0        0.925239    0.379880    0.728921
      6          6           0        1.767247   -0.586538   -0.071182
      7          8           0        2.949696   -0.489083   -0.249111
      8          1           0       -1.754606   -1.609906    1.062148
      9          1           0       -3.198522   -0.689235    0.676655
     10          1           0       -2.654903   -1.990089   -0.405554
     11          1           0       -1.225224   -0.376002   -1.554709
     12          1           0       -2.029176    1.765053    0.237612
     13          1           0        0.461131    1.992074   -0.712750
     14          1           0        0.330620   -0.197688    1.442529
     15          1           0        1.602578    1.041481    1.278838
     16          1           0        1.183625   -1.407832   -0.541746
 ---------------------------------------------------------------------

 SCF Done:  E(RHF) =  -324.117968312     A.U. after    2 cycles

 The electronic state is 1-A.
 Alpha  occ. eigenvalues --  -20.53543 -15.54449 -11.32775 -11.28896 -11.27654
 Alpha  occ. eigenvalues --  -11.24670 -11.24447  -1.46995  -1.28489  -1.04826
 Alpha  occ. eigenvalues --   -1.01850  -0.88017  -0.86451  -0.79125  -0.72692
 Alpha  occ. eigenvalues --   -0.67900  -0.67813  -0.63654  -0.61279  -0.58813
 Alpha  occ. eigenvalues --   -0.57979  -0.55508  -0.54348  -0.50337  -0.43736
 Alpha  occ. eigenvalues --   -0.40156  -0.28583
 Alpha virt. eigenvalues --    0.02982   0.03551   0.03981   0.04714   0.05188
 Alpha virt. eigenvalues --    0.05617   0.05896   0.07066   0.08065   0.09633
 Alpha virt. eigenvalues --    0.10188   0.11932   0.12960   0.13727   0.13864

 Mulliken charges:
               1
     1  C   -0.486341
     2  C   -0.270087
     3  N    0.888490
     4  C   -0.490483
     5  C   -0.477628
     6  C    1.225646
     7  O   -1.172945
     8  H    0.170994
     9  H    0.180262
    10  H    0.189219
    11  H   -0.194646
    12  H    0.110409
    13  H   -0.152334
    14  H    0.207016
    15  H    0.121966
    16  H    0.150461
 Sum of Mulliken charges =  -0.00000

 Dipole moment (field-independent basis, Debye):
    X=             -4.4290    Y=              0.3024    Z=              0.9374  Tot=              4.5372

 Test job not archived.
 1\1\GINC-SE135\SP\RHF\Aug-CC-pVDZ\C5H9N1O1\OHZDE\09-Apr-2025\0\\#t hf
 aug-cc-pvdz iop(5/13=1,5/36=2,99/5=2) pseudo=read geom=check guess=(re
 ad,tcheck) scf=(maxcycle=1)\\title\\0,1\C,0,-1.54915952,0.09881985,1.5
 5938314\C,0,-1.25596678,-0.16484814,0.11997525\N,0,-0.99180713,0.83702
 28,-0.74962059\C,0,0.18322282,0.38967097,-1.26339241\C,0,1.45545251,0.
 30601865,-0.46891447\C,0,1.92497542,-1.12354863,-0.33110913\O,0,2.8955
 9884,-1.58621436,-0.8632482\H,0,-0.64463413,0.28818244,2.14664995\H,0,
 -2.17359731,0.99559757,1.65373085\H,0,-2.07091282,-0.74074127,2.019106

 Normal termination of Gaussian 16 at Wed Apr  9 18:28:40 2025.
