 Gaussian 16, Revision C.01,

 ----------------------------------------------------------------------
 #t hf aug-cc-pvdz symm=none int=(grid=ultrafine) guess=(read,tcheck) s
 table=(opt,rrhf)
 ----------------------------------------------------------------------
 -----
 title
 -----
 Symbolic Z-matrix:
 Charge =  0 Multiplicity = 1

 SCF Done:  E(RHF) =  -335.594446517     A.U. after   14 cycles
 Normal termination of Gaussian 16 at Wed Apr  9 15:44:36 2025.
 Gaussian 16:  ES64L-G16RevC.01  3-Jul-2019

 ----------------------------------------------------------------------
 #t hf aug-cc-pvdz iop(5/13=1,5/36=2,99/5=2) pseudo=read geom=check gue
 ss=(read,tcheck) scf=(maxcycle=1)
 ----------------------------------------------------------------------
 -----
 title
 -----
 Structure from the checkpoint file:  "Grambow2020_b97d3_006735_reverse_mol2.chk"
 Charge =  0 Multiplicity = 1

                         Standard orientation:
 ---------------------------------------------------------------------
 Center     Atomic      Atomic             Coordinates (Angstroms)
 Number     Number       Type             X           Y           Z
 ---------------------------------------------------------------------
      1          8           0       -0.976330   -1.235834    0.040866
      2          6           0       -1.639838   -0.260282    0.007088
      3          7           0        2.095527   -0.767338   -0.114912
      4          6           0        1.581300    0.474390   -0.001548
      5          7           0        1.119383    1.555793    0.030006
      6          8           0       -2.324374    0.691046   -0.025773
      7          1           0        2.875472   -0.955533    0.512857
      8          1           0        1.377016   -1.489993   -0.072497
 ---------------------------------------------------------------------

 SCF Done:  E(RHF) =  -335.913950049     A.U. after    2 cycles

 The electronic state is 1-A.
 Alpha  occ. eigenvalues --  -20.64857 -20.64696 -15.57608 -15.51545 -11.48868
 Alpha  occ. eigenvalues --  -11.32582  -1.60342  -1.56624  -1.28201  -1.20398
 Alpha  occ. eigenvalues --   -0.83287  -0.81852  -0.77807  -0.74565  -0.71170
 Alpha  occ. eigenvalues --   -0.71126  -0.61749  -0.60587  -0.53894  -0.53805
 Alpha  occ. eigenvalues --   -0.50121  -0.46343
 Alpha virt. eigenvalues --    0.02160   0.05328   0.07118   0.08692   0.09144
 Alpha virt. eigenvalues --    0.10453   0.11293   0.11936   0.13319   0.14207
 Alpha virt. eigenvalues --    0.15263   0.16462   0.17577   0.18472   0.19030

 Mulliken charges:
               1
     1  O   -0.590475
     2  C    1.177812
     3  N    0.403283
     4  C   -1.332555
     5  N    0.547203
     6  O   -0.593451
     7  H    0.202862
     8  H    0.185321
 Sum of Mulliken charges =   0.00000

 Dipole moment (field-independent basis, Debye):
    X=              1.3581    Y=             -4.5751    Z=              0.9760  Tot=              4.8712

 Test job not archived.
 1\1\GINC-SE100\SP\RHF\Aug-CC-pVDZ\C2H2N2O2\OHZDE\09-Apr-2025\0\\#t hf
 aug-cc-pvdz iop(5/13=1,5/36=2,99/5=2) pseudo=read geom=check guess=(re
 ad,tcheck) scf=(maxcycle=1)\\title\\0,1\O,0,1.72890926,0.29143911,0.61
 587698\C,0,1.85827299,-0.83625779,0.9393741\N,0,-1.0570988,1.03389592,
 -0.55330121\C,0,-1.2145268,-0.23119922,-0.11293653\N,0,-1.3220135,-1.3
 5630339,0.21322786\O,0,2.01631277,-1.95054539,1.26813022\H,0,-1.799822
 64,1.6706863,-0.26925092\H,0,-0.12796528,1.40238947,-0.3502955\\Versio
 n=ES64L-G16RevC.01\State=1-A\HF=-335.91395\RMSD=1.313e-02\Dipole=0.263

 Normal termination of Gaussian 16 at Wed Apr  9 15:44:39 2025.
