 Gaussian 16, Revision C.01,

 ----------------------------------------------------------------------
 #t hf aug-cc-pvdz symm=none int=(grid=ultrafine) guess=(read,tcheck) s
 table=(opt,rrhf)
 ----------------------------------------------------------------------
 -----
 title
 -----
 Symbolic Z-matrix:
 Charge =  0 Multiplicity = 1

 SCF Done:  E(RHF) =  -302.643641301     A.U. after   20 cycles
 Normal termination of Gaussian 16 at Wed Apr  9 19:19:06 2025.
 Gaussian 16:  ES64L-G16RevC.01  3-Jul-2019

 ----------------------------------------------------------------------
 #t hf aug-cc-pvdz iop(5/13=1,5/36=2,99/5=2) pseudo=read geom=check gue
 ss=(read,tcheck) scf=(maxcycle=1)
 ----------------------------------------------------------------------
 -----
 title
 -----
 Structure from the checkpoint file:  "Grambow2020_wb97xd3_009335_reverse_mol1.chk"
 Charge =  0 Multiplicity = 1

                         Standard orientation:
 ---------------------------------------------------------------------
 Center     Atomic      Atomic             Coordinates (Angstroms)
 Number     Number       Type             X           Y           Z
 ---------------------------------------------------------------------
      1          6           0        2.241361   -0.899304   -0.175734
      2          7           0        1.158273    0.074978    0.061065
      3          6           0       -0.017195   -0.408156    0.621656
      4          6           0       -1.301295    0.071466    0.036898
      5          6           0       -2.497620   -0.736159   -0.316244
      6          6           0       -0.884320    1.272975    0.170042
      7          7           0        1.225179    1.241763   -0.334042
      8          1           0        3.177479   -0.357271   -0.266033
      9          1           0        2.030762   -1.452781   -1.090385
     10          1           0        2.291628   -1.595016    0.662021
     11          1           0        0.028423   -1.076397    1.473017
     12          1           0       -2.810562   -1.340260    0.537725
     13          1           0       -2.256668   -1.421650   -1.132282
     14          1           0       -3.330163   -0.099954   -0.614413
     15          1           0       -1.060646    2.321213    0.321483
 ---------------------------------------------------------------------

 SCF Done:  E(RHF) =  -302.957897479     A.U. after    2 cycles

 The electronic state is 1-A.
 Alpha  occ. eigenvalues --  -15.59652 -15.48647 -11.28726 -11.27297 -11.26027
 Alpha  occ. eigenvalues --  -11.25962 -11.24708  -1.36668  -1.13090  -1.05807
 Alpha  occ. eigenvalues --   -0.98929  -0.94191  -0.78811  -0.75208  -0.70810
 Alpha  occ. eigenvalues --   -0.66520  -0.62862  -0.62081  -0.60236  -0.58766
 Alpha  occ. eigenvalues --   -0.57091  -0.54134  -0.50624  -0.42245  -0.37393
 Alpha  occ. eigenvalues --   -0.28036
 Alpha virt. eigenvalues --    0.03397   0.03647   0.03970   0.04356   0.05494
 Alpha virt. eigenvalues --    0.06035   0.06905   0.07734   0.07980   0.10613
 Alpha virt. eigenvalues --    0.11193   0.11558   0.12115   0.13745   0.14189

 Mulliken charges:
               1
     1  C   -0.246942
     2  N   -0.154660
     3  C   -0.734916
     4  C    0.829263
     5  C   -0.631325
     6  C    0.005545
     7  N    0.439455
     8  H    0.060487
     9  H    0.222279
    10  H    0.163644
    11  H   -0.237052
    12  H    0.216699
    13  H    0.229272
    14  H    0.163337
    15  H   -0.325086
 Sum of Mulliken charges =  -0.00000

 Dipole moment (field-independent basis, Debye):
    X=             -1.8016    Y=             -2.5911    Z=              0.9625  Tot=              3.2993

 Test job not archived.
 1\1\GINC-SE340\SP\RHF\Aug-CC-pVDZ\C5H8N2\OHZDE\09-Apr-2025\0\\#t hf au
 g-cc-pvdz iop(5/13=1,5/36=2,99/5=2) pseudo=read geom=check guess=(read
 ,tcheck) scf=(maxcycle=1)\\title\\0,1\C,0,-2.39371094,-0.51978959,-0.1
 875646\N,0,-1.26840223,0.4314648,-0.10286978\C,0,-0.05450742,0.0266674
 8,-0.64324374\C,0,1.17521002,0.30906344,0.14981361\C,0,2.3092154,-0.61
 014428,0.42775285\C,0,0.80376538,1.52899963,0.24469058\N,0,-1.3460793,
 1.48748658,0.5301847\H,0,-3.32044563,0.03274833,-0.06866849\H,0,-2.290
 65896,-1.26652659,0.5992248\H,0,-2.37604219,-1.01550241,-1.15830306\H,

 Normal termination of Gaussian 16 at Wed Apr  9 19:19:10 2025.
