 Gaussian 16, Revision C.01,

 ----------------------------------------------------------------------
 #t hf aug-cc-pvdz symm=none int=(grid=ultrafine) guess=(read,tcheck) s
 table=(opt,rrhf)
 ----------------------------------------------------------------------
 -----
 title
 -----
 Symbolic Z-matrix:
 Charge =  0 Multiplicity = 1

 SCF Done:  E(RHF) =  -321.458799731     A.U. after   16 cycles
 Normal termination of Gaussian 16 at Wed Apr  9 18:22:27 2025.
 Gaussian 16:  ES64L-G16RevC.01  3-Jul-2019

 ----------------------------------------------------------------------
 #t hf aug-cc-pvdz iop(5/13=1,5/36=2,99/5=2) pseudo=read geom=check gue
 ss=(read,tcheck) scf=(maxcycle=1)
 ----------------------------------------------------------------------
 -----
 title
 -----
 Structure from the checkpoint file:  "Grambow2020_wb97xd3_007501_reverse_mol2.chk"
 Charge =  0 Multiplicity = 1

                         Standard orientation:
 ---------------------------------------------------------------------
 Center     Atomic      Atomic             Coordinates (Angstroms)
 Number     Number       Type             X           Y           Z
 ---------------------------------------------------------------------
      1          8           0       -0.932197    1.763501   -0.113449
      2          6           0       -0.722443    0.589098    0.115566
      3          6           0       -1.771213   -0.426539    0.036013
      4          6           0       -2.602184   -1.282135   -0.077717
      5          6           0        0.560703    0.091650    0.593289
      6          6           0        2.825198   -0.542126    0.019574
      7          7           0        1.471201   -0.110148   -0.294233
      8          1           0       -3.356076   -2.028350   -0.174238
      9          1           0        2.899273   -0.645526    1.098762
     10          1           0        3.034606   -1.498877   -0.460931
     11          1           0        3.542720    0.200454   -0.332416
     12          1           0        1.298281    0.055637   -1.284307
 ---------------------------------------------------------------------

 SCF Done:  E(RHF) =  -321.781771560     A.U. after    2 cycles

 The electronic state is 1-A.
 Alpha  occ. eigenvalues --  -20.54386 -15.58349 -11.36438 -11.29051 -11.28019
 Alpha  occ. eigenvalues --  -11.27271 -11.26197  -1.47808  -1.29989  -1.07466
 Alpha  occ. eigenvalues --   -1.02912  -0.93499  -0.86042  -0.78314  -0.73340
 Alpha  occ. eigenvalues --   -0.68686  -0.66366  -0.64878  -0.58934  -0.56108
 Alpha  occ. eigenvalues --   -0.50830  -0.45816  -0.43107  -0.42696  -0.37019
 Alpha virt. eigenvalues --    0.02788   0.03525   0.04491   0.04754   0.05865
 Alpha virt. eigenvalues --    0.07023   0.08535   0.08988   0.09772   0.10587
 Alpha virt. eigenvalues --    0.10696   0.11580   0.13081   0.13821   0.14077

 Mulliken charges:
               1
     1  O   -1.370344
     2  C    1.279011
     3  C    0.335963
     4  C    0.188097
     5  C   -0.932711
     6  C   -0.306977
     7  N    0.660257
     8  H   -0.312508
     9  H    0.085989
    10  H    0.151075
    11  H    0.148926
    12  H    0.073223
 Sum of Mulliken charges =  -0.00000

 Dipole moment (field-independent basis, Debye):
    X=              2.2466    Y=             -3.4445    Z=             -2.0655  Tot=              4.6020

 Test job not archived.
 1\1\GINC-SE112\SP\RHF\Aug-CC-pVDZ\C5H5N1O1\OHZDE\09-Apr-2025\0\\#t hf
 aug-cc-pvdz iop(5/13=1,5/36=2,99/5=2) pseudo=read geom=check guess=(re
 ad,tcheck) scf=(maxcycle=1)\\title\\0,1\O,0,0.95754749,1.57195042,1.69
 832562\C,0,1.02558865,0.63844509,0.92398443\C,0,1.99430642,-0.44514518
 ,1.0826823\C,0,2.74177712,-1.37060879,1.22514631\C,0,0.22753414,0.5576
 3208,-0.29203954\C,0,-1.92754326,0.04381732,-1.26692079\N,0,-0.9784296
 ,0.12484399,-0.16646419\H,0,3.41994943,-2.18045182,1.36205789\H,0,-1.4
 3127731,0.41048007,-2.16140643\H,0,-2.24376755,-0.98981554,-1.41428072

 Normal termination of Gaussian 16 at Wed Apr  9 18:22:31 2025.
