 Gaussian 16, Revision C.01,

 ----------------------------------------------------------------------
 #t hf aug-cc-pvdz symm=none int=(grid=ultrafine) guess=(read,tcheck) s
 table=(opt,rrhf)
 ----------------------------------------------------------------------
 -----
 title
 -----
 Symbolic Z-matrix:
 Charge =  0 Multiplicity = 1

 SCF Done:  E(RHF) =  -306.874662180     A.U. after   13 cycles

 1\1\GINC-SE040\Stability\RHF\Aug-CC-pVDZ\C4H10O2\OHZDE\09-Apr-2025\0\\
 #t hf aug-cc-pvdz symm=none int=(grid=ultrafine) guess=(read,tcheck) s
 table=(opt,rrhf)\\title\\0,1\C,0,2.52194801,-0.56323113,-0.61763649\O,
 0,1.38656947,-0.45995853,0.22502963\C,0,0.25036613,-0.00614696,-0.4651
 9493\C,0,-0.97331478,-0.07777781,0.45021304\C,0,-2.20227091,0.61524713
 ,-0.12014649\O,0,-1.1548403,-1.17907441,1.175428\H,0,2.3472899,-1.2677
 3998,-1.45150259\H,0,2.81009924,0.41590516,-1.04375414\H,0,3.34275006,
 -0.94025151,0.00348414\H,0,0.00259361,-0.67118635,-1.32022717\H,0,0.38

 Normal termination of Gaussian 16 at Wed Apr  9 03:07:58 2025.
 Gaussian 16:  ES64L-G16RevC.01  3-Jul-2019

 ----------------------------------------------------------------------
 #t hf aug-cc-pvdz iop(5/13=1,5/36=2,99/5=2) pseudo=read geom=check gue
 ss=(read,tcheck) scf=(maxcycle=1)
 ----------------------------------------------------------------------
 -----
 title
 -----
 Structure from the checkpoint file:  "Grambow2020_b97d3_006570_forward_mol1.chk"
 Charge =  0 Multiplicity = 1

                         Standard orientation:
 ---------------------------------------------------------------------
 Center     Atomic      Atomic             Coordinates (Angstroms)
 Number     Number       Type             X           Y           Z
 ---------------------------------------------------------------------
      1          6           0       -2.640930   -0.168795   -0.087080
      2          8           0       -1.358093    0.333379    0.247565
      3          6           0       -0.328416   -0.549588   -0.117739
      4          6           0        1.029464    0.116788    0.111616
      5          6           0        2.207060   -0.837707   -0.023043
      6          8           0        1.191871    1.373768   -0.295037
      7          1           0       -2.737723   -0.346522   -1.173917
      8          1           0       -2.864861   -1.114177    0.441526
      9          1           0       -3.367510    0.593608    0.217018
     10          1           0       -0.352869   -0.773324   -1.205899
     11          1           0       -0.392344   -1.508845    0.430673
     12          1           0        0.932940    0.226522    1.624359
     13          1           0        3.124737   -0.344737    0.312591
     14          1           0        2.313331   -1.042017   -1.100197
     15          1           0        2.060432   -1.784297    0.512205
     16          1           0        1.010576    1.072422    1.018888
 ---------------------------------------------------------------------

 SCF Done:  E(RHF) =  -307.197750102     A.U. after    2 cycles

 The electronic state is 1-A.
 Alpha  occ. eigenvalues --  -20.55860 -20.49615 -11.37467 -11.30766 -11.29349
 Alpha  occ. eigenvalues --  -11.25387  -1.47834  -1.42320  -1.06005  -0.97960
 Alpha  occ. eigenvalues --   -0.90314  -0.81154  -0.71531  -0.67951  -0.66794
 Alpha  occ. eigenvalues --   -0.64840  -0.60045  -0.59288  -0.56936  -0.54882
 Alpha  occ. eigenvalues --   -0.53770  -0.49793  -0.43278  -0.40186  -0.37944
 Alpha virt. eigenvalues --    0.03141   0.03531   0.03704   0.04719   0.06045
 Alpha virt. eigenvalues --    0.06345   0.06665   0.08099   0.09027   0.09485
 Alpha virt. eigenvalues --    0.11266   0.12131   0.13344   0.14917   0.15245

 Mulliken charges:
               1
     1  C    0.034840
     2  O   -1.327650
     3  C    1.036296
     4  C    0.073915
     5  C   -0.206206
     6  O   -1.501639
     7  H    0.194418
     8  H    0.197388
     9  H   -0.003792
    10  H    0.256617
    11  H    0.149608
    12  H    0.313595
    13  H    0.153691
    14  H    0.275079
    15  H    0.213233
    16  H    0.140608
 Sum of Mulliken charges =  -0.00000

 Dipole moment (field-independent basis, Debye):
    X=             -0.8395    Y=             -3.9622    Z=              0.6789  Tot=              4.1067

 Test job not archived.
 1\1\GINC-SE040\SP\RHF\Aug-CC-pVDZ\C4H10O2\OHZDE\09-Apr-2025\0\\#t hf a
 ug-cc-pvdz iop(5/13=1,5/36=2,99/5=2) pseudo=read geom=check guess=(rea
 d,tcheck) scf=(maxcycle=1)\\title\\0,1\C,0,2.52194801,-0.56323113,-0.6
 1763649\O,0,1.38656947,-0.45995853,0.22502963\C,0,0.25036613,-0.006146
 96,-0.46519493\C,0,-0.97331478,-0.07777781,0.45021304\C,0,-2.20227091,
 0.61524713,-0.12014649\O,0,-1.1548403,-1.17907441,1.175428\H,0,2.34728
 99,-1.26773998,-1.45150259\H,0,2.81009924,0.41590516,-1.04375414\H,0,3
 .34275006,-0.94025151,0.00348414\H,0,0.00259361,-0.67118635,-1.3202271

 Normal termination of Gaussian 16 at Wed Apr  9 03:08:03 2025.
