 Gaussian 16, Revision C.01,

 ----------------------------------------------------------------------
 #t hf aug-cc-pvdz symm=none int=(grid=ultrafine) guess=(read,tcheck) s
 table=(opt,rrhf)
 ----------------------------------------------------------------------
 -----
 title
 -----
 Symbolic Z-matrix:
 Charge =  0 Multiplicity = 1

 SCF Done:  E(RHF) =  -268.615927102     A.U. after   17 cycles
 Normal termination of Gaussian 16 at Wed Apr  9 17:08:21 2025.
 Gaussian 16:  ES64L-G16RevC.01  3-Jul-2019

 ----------------------------------------------------------------------
 #t hf aug-cc-pvdz iop(5/13=1,5/36=2,99/5=2) pseudo=read geom=check gue
 ss=(read,tcheck) scf=(maxcycle=1)
 ----------------------------------------------------------------------
 -----
 title
 -----
 Structure from the checkpoint file:  "Grambow2020_wb97xd3_006258_forward_mol1.chk"
 Charge =  0 Multiplicity = 1

                         Standard orientation:
 ---------------------------------------------------------------------
 Center     Atomic      Atomic             Coordinates (Angstroms)
 Number     Number       Type             X           Y           Z
 ---------------------------------------------------------------------
      1          6           0       -1.938184   -0.916233    0.118556
      2          6           0       -1.256699    0.373804   -0.241205
      3          6           0       -0.311051    1.063648    0.663545
      4          6           0        0.225711    0.506323   -0.681428
      5          6           0        1.374220   -0.102949   -0.194050
      6          8           0        2.062075   -0.980809    0.100979
      7          1           0       -1.296164   -1.545735    0.736019
      8          1           0       -2.850651   -0.706174    0.679861
      9          1           0       -2.215058   -1.475799   -0.776532
     10          1           0       -1.810800    0.991031   -0.944939
     11          1           0       -0.071656    0.375807    1.485980
     12          1           0        0.913635    1.823921    0.796075
     13          1           0        0.434521    1.316215   -1.371327
     14          1           0        1.835589    1.519650    0.594516
 ---------------------------------------------------------------------

 SCF Done:  E(RHF) =  -268.894318644     A.U. after    2 cycles

 The electronic state is 1-A.
 Alpha  occ. eigenvalues --  -20.64037 -11.44237 -11.29973 -11.28049 -11.25232
 Alpha  occ. eigenvalues --  -11.24544  -1.58602  -1.20402  -1.03083  -0.93417
 Alpha  occ. eigenvalues --   -0.82945  -0.77725  -0.71846  -0.68584  -0.64690
 Alpha  occ. eigenvalues --   -0.62638  -0.60100  -0.58810  -0.55247  -0.52862
 Alpha  occ. eigenvalues --   -0.48134  -0.38447  -0.32074
 Alpha virt. eigenvalues --    0.02930   0.03538   0.04183   0.05056   0.06330
 Alpha virt. eigenvalues --    0.06641   0.07275   0.07611   0.08535   0.09860
 Alpha virt. eigenvalues --    0.11266   0.11821   0.12866   0.13509   0.14252

 Mulliken charges:
               1
     1  C   -0.594834
     2  C   -0.057798
     3  C   -0.487510
     4  C    0.623047
     5  C    0.725796
     6  O   -1.043782
     7  H    0.154164
     8  H    0.231261
     9  H    0.212473
    10  H   -0.058673
    11  H    0.101300
    12  H    0.401685
    13  H   -0.042202
    14  H   -0.164930
 Sum of Mulliken charges =  -0.00000

 Dipole moment (field-independent basis, Debye):
    X=             -2.4124    Y=             -1.3671    Z=             -1.6964  Tot=              3.2506

 Test job not archived.
 1\1\GINC-SE112\SP\RHF\Aug-CC-pVDZ\C5H8O1\OHZDE\09-Apr-2025\0\\#t hf au
 g-cc-pvdz iop(5/13=1,5/36=2,99/5=2) pseudo=read geom=check guess=(read
 ,tcheck) scf=(maxcycle=1)\\title\\0,1\C,0,-1.46179679,-1.05930852,-0.6
 0330205\C,0,-0.72165647,0.24835292,-0.61944358\C,0,-0.18558624,0.88449
 203,0.60393732\C,0,0.81619897,0.40405355,-0.47924376\C,0,1.71919532,-0
 .23327668,0.36113058\O,0,2.26901277,-1.12728601,0.83995491\H,0,-1.0773
 0572,-1.72367192,0.17162357\H,0,-2.52019053,-0.88052452,-0.40424905\H,
 0,-1.3815327,-1.56668522,-1.56615347\H,0,-0.99257104,0.90527449,-1.443

 Normal termination of Gaussian 16 at Wed Apr  9 17:08:25 2025.
