 Gaussian 16, Revision C.01,

 ----------------------------------------------------------------------
 #t hf aug-cc-pvdz symm=none int=(grid=ultrafine) guess=(read,tcheck) s
 table=(opt,rrhf)
 ----------------------------------------------------------------------
 -----
 title
 -----
 Symbolic Z-matrix:
 Charge =  0 Multiplicity = 1

 SCF Done:  E(RHF) =  -322.569064741     A.U. after   16 cycles
 Normal termination of Gaussian 16 at Wed Apr  9 17:53:00 2025.
 Gaussian 16:  ES64L-G16RevC.01  3-Jul-2019

 ----------------------------------------------------------------------
 #t hf aug-cc-pvdz iop(5/13=1,5/36=2,99/5=2) pseudo=read geom=check gue
 ss=(read,tcheck) scf=(maxcycle=1)
 ----------------------------------------------------------------------
 -----
 title
 -----
 Structure from the checkpoint file:  "Grambow2020_wb97xd3_006861_reverse_mol1.chk"
 Charge =  0 Multiplicity = 1

                         Standard orientation:
 ---------------------------------------------------------------------
 Center     Atomic      Atomic             Coordinates (Angstroms)
 Number     Number       Type             X           Y           Z
 ---------------------------------------------------------------------
      1          6           0       -2.494591   -0.477156    0.047014
      2          6           0       -1.145530   -0.121952   -0.123389
      3          6           0        0.011418   -0.966738   -0.063049
      4          6           0        1.140590   -0.073707    0.003802
      5          7           0        2.458916   -0.500573    0.120919
      6          6           0        0.653950    1.179982    0.001952
      7          8           0       -0.744123    1.157668   -0.057774
      8          1           0       -1.136312   -0.765291    0.957677
      9          1           0       -2.801060   -1.488778   -0.168255
     10          1           0       -3.222553    0.295223    0.232596
     11          1           0        0.009859   -2.035699   -0.201914
     12          1           0        2.650841   -1.361718   -0.364525
     13          1           0        3.142361    0.201975   -0.109096
     14          1           0        1.102422    2.154381    0.071291
 ---------------------------------------------------------------------

 SCF Done:  E(RHF) =  -322.904193605     A.U. after    2 cycles

 The electronic state is 1-A.
 Alpha  occ. eigenvalues --  -20.59559 -15.51771 -11.35124 -11.28615 -11.26918
 Alpha  occ. eigenvalues --  -11.24635 -11.22172  -1.53998  -1.22706  -1.11873
 Alpha  occ. eigenvalues --   -1.05146  -0.91882  -0.82661  -0.79835  -0.73668
 Alpha  occ. eigenvalues --   -0.70644  -0.67702  -0.65135  -0.60587  -0.58007
 Alpha  occ. eigenvalues --   -0.56738  -0.54637  -0.53072  -0.48370  -0.36757
 Alpha  occ. eigenvalues --   -0.24146
 Alpha virt. eigenvalues --    0.02683   0.03854   0.04527   0.05283   0.05883
 Alpha virt. eigenvalues --    0.06109   0.08421   0.08799   0.10158   0.11102
 Alpha virt. eigenvalues --    0.12412   0.12912   0.14402   0.14717   0.14994

 Mulliken charges:
               1
     1  C   -0.204454
     2  C    0.997361
     3  C   -0.515361
     4  C   -0.629479
     5  N    0.609591
     6  C    1.102055
     7  O   -1.637621
     8  H    0.732919
     9  H   -0.052137
    10  H   -0.144836
    11  H   -0.219308
    12  H    0.095061
    13  H    0.054103
    14  H   -0.187895
 Sum of Mulliken charges =   0.00000

 Dipole moment (field-independent basis, Debye):
    X=              2.0539    Y=             -1.1173    Z=             -0.5985  Tot=              2.4135

 Test job not archived.
 1\1\GINC-SE220\SP\RHF\Aug-CC-pVDZ\C5H7N1O1\OHZDE\09-Apr-2025\0\\#t hf
 aug-cc-pvdz iop(5/13=1,5/36=2,99/5=2) pseudo=read geom=check guess=(re
 ad,tcheck) scf=(maxcycle=1)\\title\\0,1\C,0,2.46146056,0.00350206,0.28
 722845\C,0,1.06609348,0.16934979,0.31205389\C,0,0.05118081,-0.77529536
 ,-0.05323062\C,0,-1.1710891,-0.01677068,-0.14096137\N,0,-2.39407202,-0
 .56080423,-0.51812699\C,0,-0.86295724,1.26299721,0.13437295\O,0,0.5064
 8806,1.3870646,0.39494953\H,0,1.28035304,-0.26797696,-0.84790766\H,0,2
 .87260594,-0.98951275,0.37955217\H,0,3.09557238,0.87315495,0.33768502\

 Normal termination of Gaussian 16 at Wed Apr  9 17:53:05 2025.
