 Gaussian 16, Revision C.01,

 ----------------------------------------------------------------------
 #t hf aug-cc-pvdz symm=none int=(grid=ultrafine) guess=(read,tcheck) s
 table=(opt,rrhf)
 ----------------------------------------------------------------------
 -----
 title
 -----
 Symbolic Z-matrix:
 Charge =  0 Multiplicity = 1

 SCF Done:  E(RHF) =  -268.700793061     A.U. after   16 cycles
 Normal termination of Gaussian 16 at Wed Apr  9 15:59:55 2025.
 Gaussian 16:  ES64L-G16RevC.01  3-Jul-2019

 ----------------------------------------------------------------------
 #t hf aug-cc-pvdz iop(5/13=1,5/36=2,99/5=2) pseudo=read geom=check gue
 ss=(read,tcheck) scf=(maxcycle=1)
 ----------------------------------------------------------------------
 -----
 title
 -----
 Structure from the checkpoint file:  "Grambow2020_b97d3_007070_forward_mol1.chk"
 Charge =  0 Multiplicity = 1

                         Standard orientation:
 ---------------------------------------------------------------------
 Center     Atomic      Atomic             Coordinates (Angstroms)
 Number     Number       Type             X           Y           Z
 ---------------------------------------------------------------------
      1          6           0        2.203408   -0.134118   -0.049234
      2          6           0        0.704750   -0.131677   -0.042645
      3          6           0       -0.154564   -1.174117    0.080435
      4          6           0       -1.552638   -0.650882    0.080021
      5          8           0       -1.391709    0.784422   -0.139035
      6          6           0       -0.085778    1.092400   -0.228676
      7          1           0        2.587968    0.310354   -0.978181
      8          1           0        2.606186   -1.149675    0.046484
      9          1           0        2.582365    0.475927    0.783851
     10          1           0        0.097263   -2.227245    0.177503
     11          1           0       -2.094309   -0.816701    1.026510
     12          1           0       -2.177629   -1.014150   -0.748701
     13          1           0        0.546662    2.053163    1.404603
     14          1           0        0.294099    2.083316    0.360799
 ---------------------------------------------------------------------

 SCF Done:  E(RHF) =  -268.982628829     A.U. after    2 cycles

 The electronic state is 1-A.
 Alpha  occ. eigenvalues --  -20.60039 -11.32688 -11.31965 -11.27220 -11.26647
 Alpha  occ. eigenvalues --  -11.24756  -1.52155  -1.11950  -1.02688  -0.95270
 Alpha  occ. eigenvalues --   -0.83813  -0.77492  -0.71110  -0.68035  -0.63106
 Alpha  occ. eigenvalues --   -0.60622  -0.58433  -0.56934  -0.54651  -0.52531
 Alpha  occ. eigenvalues --   -0.50132  -0.40012  -0.29728
 Alpha virt. eigenvalues --    0.02804   0.03378   0.03788   0.04316   0.05366
 Alpha virt. eigenvalues --    0.06325   0.07244   0.07941   0.09385   0.10217
 Alpha virt. eigenvalues --    0.11732   0.12698   0.13195   0.13628   0.13996

 Mulliken charges:
               1
     1  C   -0.647009
     2  C    0.440466
     3  C   -0.358312
     4  C    0.357877
     5  O   -1.297442
     6  C    0.683032
     7  H    0.252188
     8  H    0.134930
     9  H    0.254920
    10  H   -0.091472
    11  H    0.182600
    12  H    0.162559
    13  H   -0.140918
    14  H    0.066581
 Sum of Mulliken charges =  -0.00000

 Dipole moment (field-independent basis, Debye):
    X=             -0.0462    Y=             -3.8165    Z=             -0.7291  Tot=              3.8858

 Test job not archived.
 1\1\GINC-SE092\SP\RHF\Aug-CC-pVDZ\C5H8O1\OHZDE\09-Apr-2025\0\\#t hf au
 g-cc-pvdz iop(5/13=1,5/36=2,99/5=2) pseudo=read geom=check guess=(read
 ,tcheck) scf=(maxcycle=1)\\title\\0,1\C,0,-1.80536709,0.25678368,-0.59
 669424\C,0,-0.35528861,0.06584257,-0.26983329\C,0,0.66688752,0.9539864
 8,-0.35111902\C,0,1.91659878,0.29875908,0.13599937\O,0,1.50665241,-1.0
 7404881,0.42117538\C,0,0.19358555,-1.22305597,0.17219003\H,0,-2.128737
 37,-0.46354579,-1.36150929\H,0,-2.00691418,1.27080747,-0.96259315\H,0,
 -2.41783866,0.07642073,0.29892989\H,0,0.61884774,1.98349412,-0.6971310

 Normal termination of Gaussian 16 at Wed Apr  9 15:59:59 2025.
