 Gaussian 16, Revision C.01,

 ----------------------------------------------------------------------
 #t hf aug-cc-pvdz symm=none int=(grid=ultrafine) guess=(read,tcheck) s
 table=(opt,rrhf)
 ----------------------------------------------------------------------
 -----
 title
 -----
 Symbolic Z-matrix:
 Charge =  0 Multiplicity = 1

 SCF Done:  E(RHF) =  -308.845517534     A.U. after   16 cycles

 1\1\GINC-SE045\Stability\RHF\Aug-CC-pVDZ\C6H12O1\OHZDE\09-Apr-2025\0\\
 #t hf aug-cc-pvdz symm=none int=(grid=ultrafine) guess=(read,tcheck) s
 table=(opt,rrhf)\\title\\0,1\C,0,-1.63203084,-1.77204322,0.22615639\C,
 0,-0.76136993,-0.62875466,-0.27127039\C,0,-1.32662826,0.76505944,0.081
 35421\C,0,-0.32689397,0.98339137,1.18580755\O,0,0.95411846,1.23913652,
 0.74705976\C,0,1.24915706,0.75045083,-0.43191646\C,0,2.69005953,0.4951
 6578,-0.69489581\H,0,-2.55264202,-1.84620106,-0.36437052\H,0,-1.109006
 78,-2.72688231,0.14598887\H,0,-1.91441431,-1.6384726,1.27446974\H,0,-0

 Normal termination of Gaussian 16 at Wed Apr  9 17:35:09 2025.
 Gaussian 16:  ES64L-G16RevC.01  3-Jul-2019

 ----------------------------------------------------------------------
 #t hf aug-cc-pvdz iop(5/13=1,5/36=2,99/5=2) pseudo=read geom=check gue
 ss=(read,tcheck) scf=(maxcycle=1)
 ----------------------------------------------------------------------
 -----
 title
 -----
 Structure from the checkpoint file:  "Grambow2020_wb97xd3_006727_forward_mol1.chk"
 Charge =  0 Multiplicity = 1

                         Standard orientation:
 ---------------------------------------------------------------------
 Center     Atomic      Atomic             Coordinates (Angstroms)
 Number     Number       Type             X           Y           Z
 ---------------------------------------------------------------------
      1          6           0        2.418842   -1.008650   -0.389525
      2          6           0        1.089975   -0.612194    0.234596
      3          6           0        1.060584    0.852341    0.725363
      4          6           0        0.222447    1.313048   -0.437491
      5          8           0       -1.094312    0.910823   -0.380404
      6          6           0       -1.314879   -0.185182    0.302217
      7          6           0       -2.536751   -0.950298   -0.061311
      8          1           0        3.195586   -1.107596    0.377693
      9          1           0        2.339130   -1.967072   -0.906024
     10          1           0        2.759216   -0.268637   -1.119642
     11          1           0        0.782944   -1.386949    0.935727
     12          1           0        2.047641    1.318949    0.703938
     13          1           0        0.636219    1.027341    1.719928
     14          1           0        0.570175    0.035636   -0.899184
     15          1           0        0.294863    2.302299   -0.883619
     16          1           0       -0.952679   -0.233134    1.321053
     17          1           0       -2.655299   -0.999719   -1.143623
     18          1           0       -2.464270   -1.965168    0.331581
     19          1           0       -3.440341   -0.496927    0.362314
 ---------------------------------------------------------------------

 SCF Done:  E(RHF) =  -309.176721017     A.U. after    2 cycles

 The electronic state is 1-A.
 Alpha  occ. eigenvalues --  -20.60867 -11.32498 -11.27498 -11.24500 -11.23196
 Alpha  occ. eigenvalues --  -11.22667 -11.21636  -1.54708  -1.08576  -1.04260
 Alpha  occ. eigenvalues --   -0.95981  -0.89749  -0.79078  -0.77989  -0.72298
 Alpha  occ. eigenvalues --   -0.68561  -0.63867  -0.62125  -0.57638  -0.56495
 Alpha  occ. eigenvalues --   -0.56192  -0.55031  -0.53899  -0.51827  -0.48421
 Alpha  occ. eigenvalues --   -0.45598  -0.38005  -0.26186
 Alpha virt. eigenvalues --    0.03347   0.03537   0.03840   0.04221   0.05728
 Alpha virt. eigenvalues --    0.05975   0.06275   0.06808   0.07616   0.07905
 Alpha virt. eigenvalues --    0.09079   0.10191   0.10787   0.11599   0.13266

 Mulliken charges:
               1
     1  C   -0.665895
     2  C   -0.324291
     3  C    0.022423
     4  C    0.563326
     5  O   -1.361307
     6  C    0.725171
     7  C   -0.590005
     8  H    0.203529
     9  H    0.123554
    10  H    0.084413
    11  H   -0.273312
    12  H    0.046595
    13  H   -0.015111
    14  H    0.987688
    15  H   -0.152292
    16  H   -0.019645
    17  H    0.194172
    18  H    0.223445
    19  H    0.227543
 Sum of Mulliken charges =  -0.00000

 Dipole moment (field-independent basis, Debye):
    X=             -1.0201    Y=             -0.2963    Z=              1.0704  Tot=              1.5080

 Test job not archived.
 1\1\GINC-SE045\SP\RHF\Aug-CC-pVDZ\C6H12O1\OHZDE\09-Apr-2025\0\\#t hf a
 ug-cc-pvdz iop(5/13=1,5/36=2,99/5=2) pseudo=read geom=check guess=(rea
 d,tcheck) scf=(maxcycle=1)\\title\\0,1\C,0,-1.63203084,-1.77204322,0.2
 2615639\C,0,-0.76136993,-0.62875466,-0.27127039\C,0,-1.32662826,0.7650
 5944,0.08135421\C,0,-0.32689397,0.98339137,1.18580755\O,0,0.95411846,1
 .23913652,0.74705976\C,0,1.24915706,0.75045083,-0.43191646\C,0,2.69005
 953,0.49516578,-0.69489581\H,0,-2.55264202,-1.84620106,-0.36437052\H,0
 ,-1.10900678,-2.72688231,0.14598887\H,0,-1.91441431,-1.6384726,1.27446

 Normal termination of Gaussian 16 at Wed Apr  9 17:35:20 2025.
