 Gaussian 16, Revision C.01,

 ----------------------------------------------------------------------
 #t hf aug-cc-pvdz symm=none int=(grid=ultrafine) guess=(read,tcheck) s
 table=(opt,rrhf)
 ----------------------------------------------------------------------
 -----
 title
 -----
 Symbolic Z-matrix:
 Charge =  0 Multiplicity = 1

 SCF Done:  E(RHF) =  -269.488154230     A.U. after   15 cycles
 Normal termination of Gaussian 16 at Wed Apr  9 18:52:48 2025.
 Gaussian 16:  ES64L-G16RevC.01  3-Jul-2019

 ----------------------------------------------------------------------
 #t hf aug-cc-pvdz iop(5/13=1,5/36=2,99/5=2) pseudo=read geom=check gue
 ss=(read,tcheck) scf=(maxcycle=1)
 ----------------------------------------------------------------------
 -----
 title
 -----
 Structure from the checkpoint file:  "Grambow2020_wb97xd3_008151_forward_mol1.chk"
 Charge =  0 Multiplicity = 1

                         Standard orientation:
 ---------------------------------------------------------------------
 Center     Atomic      Atomic             Coordinates (Angstroms)
 Number     Number       Type             X           Y           Z
 ---------------------------------------------------------------------
      1          6           0        2.169131    0.217047   -0.008665
      2          6           0        0.687014    0.080530    0.022445
      3          6           0       -0.407465    1.157977   -0.052111
      4          6           0       -1.355070    0.202359    0.633403
      5          6           0       -1.461582   -0.104284   -0.848725
      6          6           0       -0.166569   -0.951817   -0.665268
      7          6           0       -0.207248   -0.817294    0.839341
      8          1           0        2.641098   -0.763791    0.075238
      9          1           0        2.503162    0.672992   -0.943929
     10          1           0        2.527879    0.833606    0.818828
     11          1           0       -0.390573    2.229591    0.125605
     12          1           0       -2.170064    0.502555    1.279330
     13          1           0       -0.892079    1.095781   -1.217217
     14          1           0        0.193753   -1.761614   -1.283578
     15          1           0        0.037554   -1.516231    1.623208
 ---------------------------------------------------------------------

 SCF Done:  E(RHF) =  -269.772775923     A.U. after    2 cycles

 The electronic state is 1-A.
 Alpha  occ. eigenvalues --  -11.28103 -11.25807 -11.25236 -11.24819 -11.24505
 Alpha  occ. eigenvalues --  -11.24125 -11.23813  -1.28681  -1.03948  -0.98418
 Alpha  occ. eigenvalues --   -0.88681  -0.87940  -0.74743  -0.72092  -0.66725
 Alpha  occ. eigenvalues --   -0.63159  -0.59488  -0.59125  -0.56167  -0.54749
 Alpha  occ. eigenvalues --   -0.47576  -0.46764  -0.43901  -0.38577  -0.30675
 Alpha virt. eigenvalues --    0.03073   0.03271   0.03470   0.04325   0.05443
 Alpha virt. eigenvalues --    0.06031   0.06611   0.07523   0.09189   0.11914
 Alpha virt. eigenvalues --    0.12093   0.12599   0.12987   0.13315   0.13529

 Mulliken charges:
               1
     1  C   -0.796101
     2  C    0.476015
     3  C   -0.402490
     4  C    0.297668
     5  C   -0.515200
     6  C    0.268778
     7  C    0.327709
     8  H    0.192841
     9  H    0.241073
    10  H    0.230496
    11  H   -0.137766
    12  H   -0.204441
    13  H    0.590937
    14  H   -0.255617
    15  H   -0.313901
 Sum of Mulliken charges =  -0.00000

 Dipole moment (field-independent basis, Debye):
    X=              2.4761    Y=              0.8713    Z=              1.7260  Tot=              3.1415

 Test job not archived.
 1\1\GINC-SE104\SP\RHF\Aug-CC-pVDZ\C7H8\OHZDE\09-Apr-2025\0\\#t hf aug-
 cc-pvdz iop(5/13=1,5/36=2,99/5=2) pseudo=read geom=check guess=(read,t
 check) scf=(maxcycle=1)\\title\\0,1\C,0,1.95311239,-0.03454037,0.13871
 342\C,0,0.4690549,0.01066146,0.03006408\C,0,-0.53972943,-1.12310649,-0
 .21743957\C,0,-1.51886388,-0.09918712,-0.74086478\C,0,-1.73367139,-0.1
 4466764,0.76042355\C,0,-0.50099351,0.80320475,0.86563234\C,0,-0.444936
 28,1.01166521,-0.63002867\H,0,2.35046905,0.96776611,0.3099555\H,0,2.26
 799982,-0.66875965,0.97105564\H,0,2.40594395,-0.42284295,-0.77657543\H

 Normal termination of Gaussian 16 at Wed Apr  9 18:52:54 2025.
