 Gaussian 16, Revision C.01,

 ----------------------------------------------------------------------
 #t hf aug-cc-pvdz symm=none int=(grid=ultrafine) guess=(read,tcheck) s
 table=(opt,rrhf)
 ----------------------------------------------------------------------
 -----
 title
 -----
 Symbolic Z-matrix:
 Charge =  0 Multiplicity = 1

 SCF Done:  E(RHF) =  -359.533459969     A.U. after   20 cycles
 Normal termination of Gaussian 16 at Wed Apr  9 18:18:23 2025.
 Gaussian 16:  ES64L-G16RevC.01  3-Jul-2019

 ----------------------------------------------------------------------
 #t hf aug-cc-pvdz iop(5/13=1,5/36=2,99/5=2) pseudo=read geom=check gue
 ss=(read,tcheck) scf=(maxcycle=1)
 ----------------------------------------------------------------------
 -----
 title
 -----
 Structure from the checkpoint file:  "Grambow2020_wb97xd3_007290_forward_mol1.chk"
 Charge =  0 Multiplicity = 1

                         Standard orientation:
 ---------------------------------------------------------------------
 Center     Atomic      Atomic             Coordinates (Angstroms)
 Number     Number       Type             X           Y           Z
 ---------------------------------------------------------------------
      1          8           0        2.006982   -0.610256    0.709700
      2          6           0       -0.072273   -0.886923   -0.601366
      3          6           0       -1.424579   -1.054161   -0.039735
      4          7           0       -1.883640    0.314730    0.197224
      5          6           0       -0.721175    1.196175    0.310989
      6          6           0        0.348609    0.432849   -0.442225
      7          8           0        1.528313    0.790834   -0.618149
      8          1           0        2.808961   -0.752386    1.239803
      9          1           0        0.528166   -1.663183   -1.049689
     10          1           0       -2.084175   -1.594317   -0.729416
     11          1           0       -1.350829   -1.669930    0.871361
     12          1           0       -2.503114    0.381015    0.988452
     13          1           0       -0.365884    1.351339    1.338996
     14          1           0       -0.913491    2.172086   -0.138469
 ---------------------------------------------------------------------

 SCF Done:  E(RHF) =  -359.898221338     A.U. after    2 cycles

 The electronic state is 1-A.
 Alpha  occ. eigenvalues --  -20.61105 -20.51990 -15.50946 -11.32851 -11.31194
 Alpha  occ. eigenvalues --  -11.29918 -11.27434  -1.49049  -1.30843  -1.25642
 Alpha  occ. eigenvalues --   -1.06718  -1.00508  -0.87066  -0.78567  -0.74281
 Alpha  occ. eigenvalues --   -0.69067  -0.64520  -0.63336  -0.62944  -0.60173
 Alpha  occ. eigenvalues --   -0.59233  -0.57342  -0.48583  -0.44909  -0.43020
 Alpha  occ. eigenvalues --   -0.42628  -0.33137
 Alpha virt. eigenvalues --   -0.01550   0.02963   0.03882   0.04846   0.04991
 Alpha virt. eigenvalues --    0.05926   0.06190   0.06938   0.08616   0.10041
 Alpha virt. eigenvalues --    0.12498   0.13644   0.14034   0.14341   0.15057

 Mulliken charges:
               1
     1  O   -0.797484
     2  C   -0.030298
     3  C   -0.444337
     4  N    0.364565
     5  C   -0.496941
     6  C    1.336317
     7  O   -1.260722
     8  H    0.398820
     9  H   -0.059888
    10  H    0.181771
    11  H    0.222539
    12  H    0.211617
    13  H    0.186526
    14  H    0.187516
 Sum of Mulliken charges =   0.00000

 Dipole moment (field-independent basis, Debye):
    X=             -3.0067    Y=             -1.5150    Z=              0.7487  Tot=              3.4491

 Test job not archived.
 1\1\GINC-SE224\SP\RHF\Aug-CC-pVDZ\C4H7N1O2\OHZDE\09-Apr-2025\0\\#t hf
 aug-cc-pvdz iop(5/13=1,5/36=2,99/5=2) pseudo=read geom=check guess=(re
 ad,tcheck) scf=(maxcycle=1)\\title\\0,1\O,0,2.0484512,-1.28167622,-0.3
 1538924\C,0,0.51736059,0.40690739,0.64543689\C,0,-0.17326286,1.4671775
 5,-0.11020458\N,0,-1.38203817,0.81528466,-0.61483285\C,0,-1.16541795,-
 0.63140757,-0.65183773\C,0,-0.06910059,-0.82879978,0.37459277\O,0,0.45
 660123,-1.91055468,0.69747023\H,0,2.81627962,-1.75702898,-0.67436016\H
 ,0,1.36723805,0.54326677,1.29598605\H,0,-0.40730159,2.32921314,0.52589

 Normal termination of Gaussian 16 at Wed Apr  9 18:18:27 2025.
