 Gaussian 16, Revision C.01,

 ----------------------------------------------------------------------
 #t hf aug-cc-pvdz symm=none int=(grid=ultrafine) guess=(read,tcheck) s
 table=(opt,rrhf)
 ----------------------------------------------------------------------
 -----
 title
 -----
 Symbolic Z-matrix:
 Charge =  0 Multiplicity = 1

 SCF Done:  E(RHF) =  -305.706908037     A.U. after   17 cycles
 Normal termination of Gaussian 16 at Wed Apr  9 15:47:51 2025.
 Gaussian 16:  ES64L-G16RevC.01  3-Jul-2019

 ----------------------------------------------------------------------
 #t hf aug-cc-pvdz iop(5/13=1,5/36=2,99/5=2) pseudo=read geom=check gue
 ss=(read,tcheck) scf=(maxcycle=1)
 ----------------------------------------------------------------------
 -----
 title
 -----
 Structure from the checkpoint file:  "Grambow2020_b97d3_006752_forward_mol1.chk"
 Charge =  0 Multiplicity = 1

                         Standard orientation:
 ---------------------------------------------------------------------
 Center     Atomic      Atomic             Coordinates (Angstroms)
 Number     Number       Type             X           Y           Z
 ---------------------------------------------------------------------
      1          6           0       -2.427916   -0.611151    0.212455
      2          6           0       -0.877271    1.381608    0.029741
      3          6           0        0.024872    0.317902   -0.097423
      4          8           0       -0.355069   -0.875944   -0.332632
      5          6           0        1.535972    0.526773   -0.047236
      6          8           0        2.255977   -0.655095    0.236939
      7          1           0       -2.493770   -1.471265   -0.445364
      8          1           0       -3.158588    0.173338    0.035524
      9          1           0       -2.167821   -0.794256    1.249546
     10          1           0       -0.583516    2.325296    0.494062
     11          1           0       -1.622875    1.462030   -0.761191
     12          1           0        1.833082    0.966157   -1.020839
     13          1           0        1.762425    1.276829    0.725384
     14          1           0        1.689849   -1.380613   -0.096795
 ---------------------------------------------------------------------

 SCF Done:  E(RHF) =  -306.021088461     A.U. after    2 cycles

 The electronic state is 1-A.
 Alpha  occ. eigenvalues --  -20.53338 -20.52870 -11.37725 -11.31972 -11.28503
 Alpha  occ. eigenvalues --  -11.20565  -1.45220  -1.41953  -1.01718  -0.99008
 Alpha  occ. eigenvalues --   -0.91012  -0.74452  -0.68323  -0.67292  -0.65665
 Alpha  occ. eigenvalues --   -0.63846  -0.61424  -0.56340  -0.55837  -0.53799
 Alpha  occ. eigenvalues --   -0.48397  -0.43917  -0.41053  -0.30035
 Alpha virt. eigenvalues --    0.00448   0.03788   0.04351   0.04541   0.05420
 Alpha virt. eigenvalues --    0.06251   0.06567   0.07295   0.07716   0.11318
 Alpha virt. eigenvalues --    0.12369   0.13565   0.13971   0.14561   0.15452

 Mulliken charges:
               1
     1  C   -0.214358
     2  C   -0.159242
     3  C    1.072342
     4  O   -1.468264
     5  C    0.569538
     6  O   -1.201134
     7  H    0.228188
     8  H    0.170803
     9  H    0.251279
    10  H   -0.108491
    11  H    0.057725
    12  H    0.275309
    13  H    0.181466
    14  H    0.344840
 Sum of Mulliken charges =  -0.00000

 Dipole moment (field-independent basis, Debye):
    X=             -4.6289    Y=             -0.0136    Z=             -0.0679  Tot=              4.6294

 Test job not archived.
 1\1\GINC-SE454\SP\RHF\Aug-CC-pVDZ\C4H8O2\OHZDE\09-Apr-2025\0\\#t hf au
 g-cc-pvdz iop(5/13=1,5/36=2,99/5=2) pseudo=read geom=check guess=(read
 ,tcheck) scf=(maxcycle=1)\\title\\0,1\C,0,-2.04506917,0.90634082,-0.31
 424567\C,0,-0.61702971,-1.15573036,0.02859527\C,0,0.34518897,-0.140180
 58,0.09415461\O,0,0.03426036,1.08738039,0.24031796\C,0,1.84169892,-0.4
 3989228,0.07997617\O,0,2.63321965,0.67503489,-0.27556168\H,0,-2.066464
 32,1.8129482,0.28112429\H,0,-2.82263814,0.18021331,-0.09348689\H,0,-1.
 76422686,1.00058884,-1.35778692\H,0,-0.37502932,-2.14525738,-0.3647298

 Normal termination of Gaussian 16 at Wed Apr  9 15:47:56 2025.
