 Gaussian 16, Revision C.01,

 ----------------------------------------------------------------------
 #t hf aug-cc-pvdz symm=none int=(grid=ultrafine) guess=(read,tcheck) s
 table=(opt,rrhf)
 ----------------------------------------------------------------------
 -----
 title
 -----
 Symbolic Z-matrix:
 Charge =  0 Multiplicity = 1

 SCF Done:  E(RHF) =  -325.103527692     A.U. after   14 cycles
 Normal termination of Gaussian 16 at Wed Apr  9 18:51:05 2025.
 Gaussian 16:  ES64L-G16RevC.01  3-Jul-2019

 ----------------------------------------------------------------------
 #t hf aug-cc-pvdz iop(5/13=1,5/36=2,99/5=2) pseudo=read geom=check gue
 ss=(read,tcheck) scf=(maxcycle=1)
 ----------------------------------------------------------------------
 -----
 title
 -----
 Structure from the checkpoint file:  "Grambow2020_wb97xd3_008125_reverse_mol2.chk"
 Charge =  0 Multiplicity = 1

                         Standard orientation:
 ---------------------------------------------------------------------
 Center     Atomic      Atomic             Coordinates (Angstroms)
 Number     Number       Type             X           Y           Z
 ---------------------------------------------------------------------
      1          6           0       -3.351489   -0.846082   -0.263517
      2          7           0        0.413486   -0.453622   -0.409110
      3          6           0        1.277920   -1.197217   -0.048027
      4          8           0        2.070723   -2.006702    0.235351
      5          6           0        0.010531    0.923954   -0.196589
      6          6           0       -0.345455    1.158785    1.265061
      7          6           0        1.086845    1.879864   -0.692981
      8          1           0       -3.867730   -0.907330   -1.220305
      9          1           0       -3.399671    0.177740    0.106755
     10          1           0       -3.832472   -1.511152    0.452074
     11          1           0       -2.311016   -1.143072   -0.391533
     12          1           0       -0.888226    1.063956   -0.801109
     13          1           0        0.537032    1.043541    1.898905
     14          1           0       -1.104915    0.450992    1.598048
     15          1           0       -0.733202    2.170221    1.399480
     16          1           0        0.741478    2.911871   -0.609312
     17          1           0        1.997662    1.774549   -0.098785
     18          1           0        1.330762    1.681839   -1.736948
 ---------------------------------------------------------------------

 SCF Done:  E(RHF) =  -325.447741745     A.U. after    2 cycles

 The electronic state is 1-A.
 Alpha  occ. eigenvalues --  -20.58541 -15.51796 -11.39911 -11.30355 -11.24211
 Alpha  occ. eigenvalues --  -11.24137 -11.22050  -1.53396  -1.27989  -1.09033
 Alpha  occ. eigenvalues --   -0.95847  -0.94794  -0.89378  -0.73273  -0.71106
 Alpha  occ. eigenvalues --   -0.67703  -0.66609  -0.62291  -0.59296  -0.57546
 Alpha  occ. eigenvalues --   -0.56397  -0.55281  -0.55223  -0.55116  -0.52324
 Alpha  occ. eigenvalues --   -0.52288  -0.45354  -0.43853
 Alpha virt. eigenvalues --    0.03185   0.03784   0.03925   0.04220   0.05480
 Alpha virt. eigenvalues --    0.05588   0.06555   0.07341   0.07690   0.09134
 Alpha virt. eigenvalues --    0.10020   0.10700   0.12036   0.12286   0.13482

 Mulliken charges:
               1
     1  C   -0.270289
     2  N    1.177671
     3  C    0.397956
     4  O   -0.937376
     5  C   -1.989895
     6  C    0.125269
     7  C   -0.011738
     8  H    0.096748
     9  H    0.059080
    10  H    0.091393
    11  H    0.049805
    12  H    0.063948
    13  H    0.219209
    14  H    0.145902
    15  H    0.191978
    16  H    0.182223
    17  H    0.208958
    18  H    0.199159
 Sum of Mulliken charges =   0.00000

 Dipole moment (field-independent basis, Debye):
    X=             -0.9907    Y=              2.7710    Z=              0.2770  Tot=              2.9558

 Test job not archived.
 1\1\GINC-SE117\SP\RHF\Aug-CC-pVDZ\C5H11N1O1\OHZDE\09-Apr-2025\0\\#t hf
  aug-cc-pvdz iop(5/13=1,5/36=2,99/5=2) pseudo=read geom=check guess=(r
 ead,tcheck) scf=(maxcycle=1)\\title\\0,1\C,0,2.84475497,0.12028327,-1.
 13209412\N,0,-0.04738529,0.49875269,1.28504083\C,0,-0.12945604,0.19358
 368,2.43859975\O,0,-0.11119787,-0.03834772,3.58314307\C,0,-0.76510144,
 0.25882134,0.04707043\C,0,-0.74739304,-1.22259596,-0.30418765\C,0,-2.1
 7852167,0.81920296,0.12974018\H,0,3.28749613,1.04326613,-1.50328635\H,
 0,2.12782579,-0.25433347,-1.86237384\H,0,3.6265045,-0.62246733,-0.9806

 Normal termination of Gaussian 16 at Wed Apr  9 18:51:12 2025.
