 Gaussian 16, Revision C.01,

 ----------------------------------------------------------------------
 #t hf aug-cc-pvdz symm=none int=(grid=ultrafine) guess=(read,tcheck) s
 table=(opt,rrhf)
 ----------------------------------------------------------------------
 -----
 title
 -----
 Symbolic Z-matrix:
 Charge =  0 Multiplicity = 1

 SCF Done:  E(RHF) =  -283.538112576     A.U. after   19 cycles
 Normal termination of Gaussian 16 at Wed Apr  9 03:16:21 2025.
 Gaussian 16:  ES64L-G16RevC.01  3-Jul-2019

 ----------------------------------------------------------------------
 #t hf aug-cc-pvdz iop(5/13=1,5/36=2,99/5=2) pseudo=read geom=check gue
 ss=(read,tcheck) scf=(maxcycle=1)
 ----------------------------------------------------------------------
 -----
 title
 -----
 Structure from the checkpoint file:  "Grambow2020_b97d3_006998_forward_mol1.chk"
 Charge =  0 Multiplicity = 1

                         Standard orientation:
 ---------------------------------------------------------------------
 Center     Atomic      Atomic             Coordinates (Angstroms)
 Number     Number       Type             X           Y           Z
 ---------------------------------------------------------------------
      1          6           0        1.216096    1.194578    0.239707
      2          6           0        0.457143   -0.111201   -0.096465
      3          8           0        0.986504   -0.852621   -1.031549
      4          6           0        0.041953   -0.944965    1.049430
      5          6           0       -1.084680    0.268375   -0.179900
      6          7           0       -2.261112    0.365570   -0.237100
      7          1           0        2.245230    0.923981    0.506845
      8          1           0        0.736144    1.726358    1.072191
      9          1           0        1.233122    1.834513   -0.647553
     10          1           0        0.303822   -0.736829    2.094052
     11          1           0       -0.365642   -1.926770    0.809928
 ---------------------------------------------------------------------

 SCF Done:  E(RHF) =  -283.818525734     A.U. after    2 cycles

 The electronic state is 1-A.
 Alpha  occ. eigenvalues --  -20.46444 -15.55900 -11.42840 -11.36852 -11.31200
 Alpha  occ. eigenvalues --  -11.26187  -1.38954  -1.25021  -1.11676  -0.99883
 Alpha  occ. eigenvalues --   -0.87476  -0.73816  -0.71042  -0.65655  -0.63620
 Alpha  occ. eigenvalues --   -0.58822  -0.56734  -0.55993  -0.52206  -0.51418
 Alpha  occ. eigenvalues --   -0.38740  -0.37678
 Alpha virt. eigenvalues --   -0.05093   0.01577   0.03650   0.04312   0.04933
 Alpha virt. eigenvalues --    0.06494   0.08208   0.09302   0.11295   0.11836
 Alpha virt. eigenvalues --    0.12720   0.12951   0.13894   0.14729   0.15303

 Mulliken charges:
               1
     1  C   -0.086529
     2  C    1.206606
     3  O   -1.602436
     4  C    0.126390
     5  C   -1.388913
     6  N    0.881207
     7  H    0.222806
     8  H    0.195386
     9  H    0.221717
    10  H    0.100480
    11  H    0.123287
 Sum of Mulliken charges =  -0.00000

 Dipole moment (field-independent basis, Debye):
    X=              1.7651    Y=             -0.2374    Z=              6.2043  Tot=              6.4548

 Test job not archived.
 1\1\GINC-SE123\SP\RHF\Aug-CC-pVDZ\C4H5N1O1\OHZDE\09-Apr-2025\0\\#t hf
 aug-cc-pvdz iop(5/13=1,5/36=2,99/5=2) pseudo=read geom=check guess=(re
 ad,tcheck) scf=(maxcycle=1)\\title\\0,1\C,0,-1.26575677,0.27205122,-0.
 45279848\C,0,-0.09224587,-0.12257876,0.47522034\O,0,-0.42617241,-0.599
 94048,1.64352153\C,0,0.97857624,-0.94040628,-0.12903117\C,0,0.97163743
 ,1.05590549,0.38811529\N,0,1.87956007,1.81221345,0.40769936\H,0,-1.908
 54557,-0.60899665,-0.5722973\H,0,-0.8983918,0.60832954,-1.43164133\H,0
 ,-1.84069814,1.0728191,0.02180764\H,0,0.95111917,-1.34060278,-1.149923

 Normal termination of Gaussian 16 at Wed Apr  9 03:16:25 2025.
