 Gaussian 16, Revision C.01,

 ----------------------------------------------------------------------
 #t hf aug-cc-pvdz symm=none int=(grid=ultrafine) guess=(read,tcheck) s
 table=(opt,rrhf)
 ----------------------------------------------------------------------
 -----
 title
 -----
 Symbolic Z-matrix:
 Charge =  0 Multiplicity = 1

 SCF Done:  E(RHF) =  -307.812747189     A.U. after   14 cycles

 1\1\GINC-SE220\Stability\RHF\Aug-CC-pVDZ\C6H10O1\OHZDE\09-Apr-2025\0\\
 #t hf aug-cc-pvdz symm=none int=(grid=ultrafine) guess=(read,tcheck) s
 table=(opt,rrhf)\\title\\0,1\O,0,1.7104804,-0.52019995,1.28635831\C,0,
 1.29056357,-0.3625669,-0.06137677\C,0,0.07470289,-1.22551181,-0.381123
 6\C,0,-1.16858486,-0.69264978,0.31818294\C,0,-1.41580086,0.77562531,-0
 .03937891\C,0,-0.29928372,1.73262461,-0.1329135\C,0,1.01784646,1.11116
 978,-0.38442642\H,0,1.07121439,-0.10574029,1.86937239\H,0,2.14553901,-
 0.70633962,-0.64813589\H,0,0.28071732,-2.25638238,-0.08717353\H,0,-0.0

 Normal termination of Gaussian 16 at Wed Apr  9 18:59:01 2025.
 Gaussian 16:  ES64L-G16RevC.01  3-Jul-2019

 ----------------------------------------------------------------------
 #t hf aug-cc-pvdz iop(5/13=1,5/36=2,99/5=2) pseudo=read geom=check gue
 ss=(read,tcheck) scf=(maxcycle=1)
 ----------------------------------------------------------------------
 -----
 title
 -----
 Structure from the checkpoint file:  "Grambow2020_wb97xd3_008411_reverse_mol2.chk"
 Charge =  0 Multiplicity = 1

                         Standard orientation:
 ---------------------------------------------------------------------
 Center     Atomic      Atomic             Coordinates (Angstroms)
 Number     Number       Type             X           Y           Z
 ---------------------------------------------------------------------
      1          8           0       -1.840237   -0.163454   -0.810330
      2          6           0       -1.122547    0.040518    0.398340
      3          6           0       -0.211199   -1.138283    0.722533
      4          6           0        0.964221   -1.197883   -0.243682
      5          6           0        1.739651    0.122516   -0.250868
      6          6           0        1.035930    1.416474   -0.210168
      7          6           0       -0.328945    1.351540    0.353036
      8          1           0       -1.236866   -0.099153   -1.553400
      9          1           0       -1.901635    0.118743    1.160149
     10          1           0       -0.794480   -2.060408    0.690703
     11          1           0        0.159817   -1.025531    1.747841
     12          1           0        0.603116   -1.412880   -1.255418
     13          1           0        1.631320   -2.024827    0.009310
     14          1           0        2.290207    0.248551    0.705938
     15          1           0        2.542073    0.140576   -0.993049
     16          1           0       -0.087540    1.682578    1.382028
     17          1           0       -0.946774    2.170698   -0.026612
 ---------------------------------------------------------------------

 SCF Done:  E(RHF) =  -308.137399518     A.U. after    2 cycles

 The electronic state is 1-A.
 Alpha  occ. eigenvalues --  -20.55007 -11.29003 -11.26437 -11.24350 -11.24110
 Alpha  occ. eigenvalues --  -11.23949 -11.23525  -1.45474  -1.12941  -1.02300
 Alpha  occ. eigenvalues --   -1.01177  -0.86929  -0.82957  -0.72035  -0.70140
 Alpha  occ. eigenvalues --   -0.64971  -0.63246  -0.61053  -0.58900  -0.57261
 Alpha  occ. eigenvalues --   -0.54369  -0.51860  -0.50653  -0.49243  -0.48041
 Alpha  occ. eigenvalues --   -0.43690  -0.33648
 Alpha virt. eigenvalues --    0.03137   0.03288   0.04054   0.04084   0.05634
 Alpha virt. eigenvalues --    0.05985   0.06343   0.06835   0.07440   0.08399
 Alpha virt. eigenvalues --    0.09628   0.11151   0.13420   0.13927   0.14354

 Mulliken charges:
               1
     1  O   -1.456621
     2  C    1.099974
     3  C   -0.308738
     4  C   -0.125646
     5  C   -0.257454
     6  C   -0.582805
     7  C   -0.298715
     8  H    0.321563
     9  H    0.113281
    10  H    0.133276
    11  H    0.138272
    12  H    0.129950
    13  H    0.119387
    14  H    0.349305
    15  H    0.116922
    16  H    0.354184
    17  H    0.153864
 Sum of Mulliken charges =  -0.00000

 Dipole moment (field-independent basis, Debye):
    X=              0.8250    Y=             -1.7356    Z=              1.0793  Tot=              2.2040

 Test job not archived.
 1\1\GINC-SE220\SP\RHF\Aug-CC-pVDZ\C6H10O1\OHZDE\09-Apr-2025\0\\#t hf a
 ug-cc-pvdz iop(5/13=1,5/36=2,99/5=2) pseudo=read geom=check guess=(rea
 d,tcheck) scf=(maxcycle=1)\\title\\0,1\O,0,1.7104804,-0.52019995,1.286
 35831\C,0,1.29056357,-0.3625669,-0.06137677\C,0,0.07470289,-1.22551181
 ,-0.3811236\C,0,-1.16858486,-0.69264978,0.31818294\C,0,-1.41580086,0.7
 7562531,-0.03937891\C,0,-0.29928372,1.73262461,-0.1329135\C,0,1.017846
 46,1.11116978,-0.38442642\H,0,1.07121439,-0.10574029,1.86937239\H,0,2.
 14553901,-0.70633962,-0.64813589\H,0,0.28071732,-2.25638238,-0.0871735

 Normal termination of Gaussian 16 at Wed Apr  9 18:59:07 2025.
