 Gaussian 16, Revision C.01,

 ----------------------------------------------------------------------
 #t hf aug-cc-pvdz symm=none int=(grid=ultrafine) guess=(read,tcheck) s
 table=(opt,rrhf)
 ----------------------------------------------------------------------
 -----
 title
 -----
 Symbolic Z-matrix:
 Charge =  0 Multiplicity = 1

 SCF Done:  E(RHF) =  -286.680498667     A.U. after   17 cycles
 Normal termination of Gaussian 16 at Wed Apr  9 18:42:44 2025.
 Gaussian 16:  ES64L-G16RevC.01  3-Jul-2019

 ----------------------------------------------------------------------
 #t hf aug-cc-pvdz iop(5/13=1,5/36=2,99/5=2) pseudo=read geom=check gue
 ss=(read,tcheck) scf=(maxcycle=1)
 ----------------------------------------------------------------------
 -----
 title
 -----
 Structure from the checkpoint file:  "Grambow2020_wb97xd3_007993_forward_mol1.chk"
 Charge =  0 Multiplicity = 1

                         Standard orientation:
 ---------------------------------------------------------------------
 Center     Atomic      Atomic             Coordinates (Angstroms)
 Number     Number       Type             X           Y           Z
 ---------------------------------------------------------------------
      1          6           0        3.388874    0.470759    0.017128
      2          6           0        2.192471   -0.236447   -0.485955
      3          6           0        1.091394   -0.560107    0.099398
      4          6           0       -0.273861   -0.684012    0.300753
      5          6           0       -1.263727    0.297831   -0.168352
      6          6           0       -2.610482   -0.162421   -0.609963
      7          7           0       -2.450448    0.510367    0.664307
      8          1           0        3.534740    1.363892   -0.597489
      9          1           0        4.284141   -0.134964   -0.137517
     10          1           0        3.345762    0.784474    1.067994
     11          1           0        1.008894   -0.605879    1.269472
     12          1           0       -0.647876   -1.512604    0.893665
     13          1           0       -0.848355    1.153309   -0.688849
     14          1           0       -2.856651   -1.215858   -0.545636
     15          1           0       -3.064891    0.365970   -1.440804
     16          1           0       -2.750638    1.475471    0.610970
 ---------------------------------------------------------------------

 SCF Done:  E(RHF) =  -286.987864663     A.U. after    2 cycles

 The electronic state is 1-A.
 Alpha  occ. eigenvalues --  -15.52337 -11.30856 -11.28999 -11.28620 -11.24014
 Alpha  occ. eigenvalues --  -11.23077 -11.21877  -1.29472  -1.11022  -1.01518
 Alpha  occ. eigenvalues --   -0.93859  -0.89883  -0.84621  -0.76385  -0.71970
 Alpha  occ. eigenvalues --   -0.66164  -0.60438  -0.59733  -0.57043  -0.55953
 Alpha  occ. eigenvalues --   -0.55415  -0.52820  -0.50503  -0.45856  -0.37159
 Alpha  occ. eigenvalues --   -0.28178
 Alpha virt. eigenvalues --    0.02884   0.03696   0.03908   0.04419   0.05283
 Alpha virt. eigenvalues --    0.05460   0.05986   0.06519   0.07836   0.08727
 Alpha virt. eigenvalues --    0.09792   0.11470   0.12160   0.12706   0.13426

 Mulliken charges:
               1
     1  C   -0.610054
     2  C   -0.889489
     3  C    0.819252
     4  C    0.091702
     5  C   -0.763212
     6  C    0.342335
     7  N    0.473776
     8  H    0.217426
     9  H    0.217934
    10  H    0.074350
    11  H    0.312704
    12  H   -0.161011
    13  H   -0.199120
    14  H   -0.041160
    15  H   -0.070815
    16  H    0.185383
 Sum of Mulliken charges =   0.00000

 Dipole moment (field-independent basis, Debye):
    X=             -2.2945    Y=              1.4420    Z=              0.4061  Tot=              2.7403

 Test job not archived.
 1\1\GINC-SE114\SP\RHF\Aug-CC-pVDZ\C6H9N1\OHZDE\09-Apr-2025\0\\#t hf au
 g-cc-pvdz iop(5/13=1,5/36=2,99/5=2) pseudo=read geom=check guess=(read
 ,tcheck) scf=(maxcycle=1)\\title\\0,1\C,0,2.37300918,0.42874035,2.4060
 0325\C,0,1.71600364,0.84305683,1.14850599\C,0,1.15165014,0.15097075,0.
 21991295\C,0,0.18116893,-0.23807948,-0.68927589\C,0,-1.26393649,-0.084
 83621,-0.46102828\C,0,-2.16737377,0.20818245,-1.60930578\N,0,-2.147543
 27,-1.11404799,-1.01488944\H,0,1.84891781,0.91368066,3.23478531\H,0,3.
 39476116,0.81163934,2.44757386\H,0,2.38727379,-0.65171181,2.59839643\H

 Normal termination of Gaussian 16 at Wed Apr  9 18:42:49 2025.
