 Gaussian 16, Revision C.01,

 ----------------------------------------------------------------------
 #t hf aug-cc-pvdz symm=none int=(grid=ultrafine) guess=(read,tcheck) s
 table=(opt,rrhf)
 ----------------------------------------------------------------------
 -----
 title
 -----
 Symbolic Z-matrix:
 Charge =  0 Multiplicity = 1

 SCF Done:  E(RHF) =  -206.630195569     A.U. after   14 cycles
 Normal termination of Gaussian 16 at Wed Apr  9 03:09:36 2025.
 Gaussian 16:  ES64L-G16RevC.01  3-Jul-2019

 ----------------------------------------------------------------------
 #t hf aug-cc-pvdz iop(5/13=1,5/36=2,99/5=2) pseudo=read geom=check gue
 ss=(read,tcheck) scf=(maxcycle=1)
 ----------------------------------------------------------------------
 -----
 title
 -----
 Structure from the checkpoint file:  "Grambow2020_b97d3_006673_forward_mol1.chk"
 Charge =  0 Multiplicity = 1

                         Standard orientation:
 ---------------------------------------------------------------------
 Center     Atomic      Atomic             Coordinates (Angstroms)
 Number     Number       Type             X           Y           Z
 ---------------------------------------------------------------------
      1          8           0       -1.382286   -0.089557   -0.304692
      2          6           0       -0.258585   -0.011411    0.461967
      3          6           0        0.946259   -0.762977   -0.044123
      4          7           0        1.260037    0.472326   -0.244390
      5          1           0       -1.968582    0.664039   -0.095600
      6          1           0       -0.336608    0.153797    1.537954
      7          1           0        0.417175    1.238666    0.198851
 ---------------------------------------------------------------------

 SCF Done:  E(RHF) =  -206.835714711     A.U. after    2 cycles

 The electronic state is 1-A.
 Alpha  occ. eigenvalues --  -20.62010 -15.57826 -11.39183 -11.28233  -1.53028
 Alpha  occ. eigenvalues --   -1.30444  -0.92997  -0.83441  -0.76621  -0.68573
 Alpha  occ. eigenvalues --   -0.64398  -0.54497  -0.52042  -0.50797  -0.38605
 Alpha virt. eigenvalues --    0.02064   0.04109   0.05086   0.07942   0.09773
 Alpha virt. eigenvalues --    0.10244   0.11683   0.12069   0.13153   0.14019
 Alpha virt. eigenvalues --    0.16197   0.16920   0.19943   0.20510   0.22160

 Mulliken charges:
               1
     1  O   -1.149366
     2  C    0.716021
     3  C   -0.574494
     4  N    0.336816
     5  H    0.348993
     6  H    0.108612
     7  H    0.213418
 Sum of Mulliken charges =  -0.00000

 Dipole moment (field-independent basis, Debye):
    X=             -3.6179    Y=              2.8279    Z=              2.5088  Tot=              5.2326

 Test job not archived.
 1\1\GINC-SE113\SP\RHF\Aug-CC-pVDZ\C2H3N1O1\OHZDE\09-Apr-2025\0\\#t hf
 aug-cc-pvdz iop(5/13=1,5/36=2,99/5=2) pseudo=read geom=check guess=(re
 ad,tcheck) scf=(maxcycle=1)\\title\\0,1\O,0,-0.90767219,0.9050286,-0.3
 6428392\C,0,-0.05427512,-0.15530959,-0.30124724\C,0,1.36582768,0.10636
 664,-0.7342149\N,0,1.46297892,-0.01808975,0.54625657\H,0,-1.66791779,0
 .7429957,0.22828784\H,0,-0.43361882,-1.17392323,-0.3994959\H,0,0.39822
 532,-0.32820636,1.06034154\\Version=ES64L-G16RevC.01\State=1-A\HF=-206
 .8357147\RMSD=1.337e-02\Dipole=-1.8216176,-0.7153352,0.6388593\Quadrup

 Normal termination of Gaussian 16 at Wed Apr  9 03:09:37 2025.
