 Gaussian 16, Revision C.01,

 ----------------------------------------------------------------------
 #t hf aug-cc-pvdz symm=none int=(grid=ultrafine) guess=(read,tcheck) s
 table=(opt,rrhf)
 ----------------------------------------------------------------------
 -----
 title
 -----
 Symbolic Z-matrix:
 Charge =  0 Multiplicity = 1

 SCF Done:  E(RHF) =  -338.688769759     A.U. after   14 cycles
 Normal termination of Gaussian 16 at Wed Apr  9 18:40:28 2025.
 Gaussian 16:  ES64L-G16RevC.01  3-Jul-2019

 ----------------------------------------------------------------------
 #t hf aug-cc-pvdz iop(5/13=1,5/36=2,99/5=2) pseudo=read geom=check gue
 ss=(read,tcheck) scf=(maxcycle=1)
 ----------------------------------------------------------------------
 -----
 title
 -----
 Structure from the checkpoint file:  "Grambow2020_wb97xd3_007965_forward_mol2.chk"
 Charge =  0 Multiplicity = 1

                         Standard orientation:
 ---------------------------------------------------------------------
 Center     Atomic      Atomic             Coordinates (Angstroms)
 Number     Number       Type             X           Y           Z
 ---------------------------------------------------------------------
      1          7           0        1.321061   -1.576174   -0.014683
      2          6           0        0.866225   -0.414383   -0.032149
      3          8           0        1.483307    0.810289   -0.049707
      4          6           0        0.208749    1.518870    0.031631
      5          6           0       -0.500370    0.178479   -0.003217
      6          6           0       -1.711921   -0.321848   -0.669027
      7          7           0       -1.622213   -0.255286    0.786282
      8          1           0        2.337277   -1.595730   -0.018585
      9          1           0        0.124358    2.066703    0.969455
     10          1           0        0.072606    2.172634   -0.829023
     11          1           0       -1.638915   -1.288274   -1.155276
     12          1           0       -2.400971    0.384927   -1.115885
     13          1           0       -1.428850   -1.169063    1.182353
 ---------------------------------------------------------------------

 SCF Done:  E(RHF) =  -339.037078058     A.U. after    2 cycles

 The electronic state is 1-A.
 Alpha  occ. eigenvalues --  -20.58740 -15.52463 -15.48803 -11.35141 -11.31382
 Alpha  occ. eigenvalues --  -11.29378 -11.28641  -1.52862  -1.29929  -1.21654
 Alpha  occ. eigenvalues --   -1.01407  -0.92112  -0.90901  -0.78337  -0.74919
 Alpha  occ. eigenvalues --   -0.71620  -0.69094  -0.65817  -0.60842  -0.55413
 Alpha  occ. eigenvalues --   -0.54418  -0.52443  -0.51920  -0.47233  -0.45846
 Alpha  occ. eigenvalues --   -0.42219
 Alpha virt. eigenvalues --    0.03522   0.04223   0.04609   0.05048   0.05903
 Alpha virt. eigenvalues --    0.06240   0.08982   0.09376   0.11264   0.12425
 Alpha virt. eigenvalues --    0.12956   0.13646   0.13718   0.14761   0.15094

 Mulliken charges:
               1
     1  N    0.791104
     2  C   -0.192994
     3  O   -1.407804
     4  C    0.358101
     5  C   -1.334784
     6  C    0.688506
     7  N    0.554692
     8  H    0.141515
     9  H    0.127460
    10  H    0.068939
    11  H   -0.020383
    12  H   -0.061420
    13  H    0.287068
 Sum of Mulliken charges =  -0.00000

 Dipole moment (field-independent basis, Debye):
    X=             -0.8374    Y=              1.5748    Z=             -1.1282  Tot=              2.1105

 Test job not archived.
 1\1\GINC-SE454\SP\RHF\Aug-CC-pVDZ\C4H6N2O1\OHZDE\09-Apr-2025\0\\#t hf
 aug-cc-pvdz iop(5/13=1,5/36=2,99/5=2) pseudo=read geom=check guess=(re
 ad,tcheck) scf=(maxcycle=1)\\title\\0,1\N,0,1.54567014,-1.16776039,-1.
 26500179\C,0,1.07412699,-0.24114657,-0.57509384\O,0,1.6391915,0.899813
 15,-0.0653573\C,0,0.40875664,1.26860775,0.6297858\C,0,-0.25578549,0.04
 218945,0.03397045\C,0,-1.58284361,-0.2267316,-0.53881558\N,0,-1.136261
 85,-0.89471734,0.67969298\H,0,2.52928598,-1.02981235,-1.48078515\H,0,0
 .54721109,1.24535336,1.71008475\H,0,0.04823788,2.23944865,0.29190835\H

 Normal termination of Gaussian 16 at Wed Apr  9 18:40:33 2025.
