 Gaussian 16, Revision C.01,

 ----------------------------------------------------------------------
 #t hf aug-cc-pvdz symm=none int=(grid=ultrafine) guess=(read,tcheck) s
 table=(opt,rrhf)
 ----------------------------------------------------------------------
 -----
 title
 -----
 Symbolic Z-matrix:
 Charge =  0 Multiplicity = 1

 SCF Done:  E(RHF) =  -324.864472535     A.U. after   15 cycles
 Normal termination of Gaussian 16 at Wed Apr  9 19:14:20 2025.
 Gaussian 16:  ES64L-G16RevC.01  3-Jul-2019

 ----------------------------------------------------------------------
 #t hf aug-cc-pvdz iop(5/13=1,5/36=2,99/5=2) pseudo=read geom=check gue
 ss=(read,tcheck) scf=(maxcycle=1)
 ----------------------------------------------------------------------
 -----
 title
 -----
 Structure from the checkpoint file:  "Grambow2020_wb97xd3_008958_forward_mol1.chk"
 Charge =  0 Multiplicity = 1

                         Standard orientation:
 ---------------------------------------------------------------------
 Center     Atomic      Atomic             Coordinates (Angstroms)
 Number     Number       Type             X           Y           Z
 ---------------------------------------------------------------------
      1          6           0        2.247197   -1.143995    0.090355
      2          6           0        1.709566    0.149456   -0.424094
      3          7           0        0.425690    0.439662   -0.322871
      4          6           0       -0.276944    1.567371   -0.057786
      5          6           0       -0.540589    0.353368    0.750802
      6          6           0       -1.679767   -0.625036    0.561676
      7          8           0       -2.230131   -0.606680   -0.730692
      8          1           0        3.279266   -1.011837    0.416080
      9          1           0        2.245499   -1.921111   -0.680764
     10          1           0        1.662501   -1.501820    0.938324
     11          1           0        1.894028    1.760050    0.729749
     12          1           0        2.240883    0.656508   -1.223329
     13          1           0        1.124858    2.141984    0.655297
     14          1           0       -0.891366    2.139277   -0.735400
     15          1           0       -0.120344    0.357861    1.762131
     16          1           0       -1.337333   -1.635152    0.830632
     17          1           0       -2.483723   -0.360619    1.251507
     18          1           0       -1.509824   -0.656318   -1.364306
 ---------------------------------------------------------------------

 SCF Done:  E(RHF) =  -325.213601597     A.U. after    2 cycles

 The electronic state is 1-A.
 Alpha  occ. eigenvalues --  -20.54928 -15.56314 -11.31473 -11.29047 -11.28411
 Alpha  occ. eigenvalues --  -11.25695 -11.24737  -1.45659  -1.34268  -1.10287
 Alpha  occ. eigenvalues --   -0.99761  -0.95119  -0.82994  -0.77936  -0.72916
 Alpha  occ. eigenvalues --   -0.70727  -0.67851  -0.64815  -0.61105  -0.60237
 Alpha  occ. eigenvalues --   -0.57938  -0.56607  -0.52319  -0.51928  -0.47866
 Alpha  occ. eigenvalues --   -0.46156  -0.43128  -0.28820
 Alpha virt. eigenvalues --    0.03214   0.03694   0.04244   0.04404   0.05513
 Alpha virt. eigenvalues --    0.05837   0.06146   0.06336   0.07599   0.08521
 Alpha virt. eigenvalues --    0.09634   0.10488   0.11908   0.12713   0.13495

 Mulliken charges:
               1
     1  C   -0.399187
     2  C   -0.560932
     3  N    1.371772
     4  C   -0.115415
     5  C   -0.582880
     6  C    0.757686
     7  O   -1.171128
     8  H    0.180718
     9  H    0.227065
    10  H    0.107425
    11  H   -0.161554
    12  H   -0.137815
    13  H    0.380274
    14  H   -0.269817
    15  H   -0.257777
    16  H    0.159306
    17  H    0.133928
    18  H    0.338332
 Sum of Mulliken charges =  -0.00000

 Dipole moment (field-independent basis, Debye):
    X=              1.8605    Y=             -2.0839    Z=             -0.1680  Tot=              2.7986

 Test job not archived.
 1\1\GINC-SE114\SP\RHF\Aug-CC-pVDZ\C5H11N1O1\OHZDE\09-Apr-2025\0\\#t hf
  aug-cc-pvdz iop(5/13=1,5/36=2,99/5=2) pseudo=read geom=check guess=(r
 ead,tcheck) scf=(maxcycle=1)\\title\\0,1\C,0,-1.9750301,-0.60172723,-0
 .89406322\C,0,-1.36008885,-0.47074182,0.45923304\N,0,-0.0722494,-0.215
 93285,0.59831741\C,0,0.66126334,0.54308995,1.44774961\C,0,0.83428607,0
 .73244853,-0.01215913\C,0,1.94093817,0.15796137,-0.87009473\O,0,2.5561
 4879,-0.97519663,-0.31249181\H,0,-3.01601914,-0.27940229,-0.85975784\H
 ,0,-1.96591757,-1.63806912,-1.24683592\H,0,-1.44889317,0.01329828,-1.6

 Normal termination of Gaussian 16 at Wed Apr  9 19:14:27 2025.
