 Gaussian 16, Revision C.01,

 ----------------------------------------------------------------------
 #t hf aug-cc-pvdz symm=none int=(grid=ultrafine) guess=(read,tcheck) s
 table=(opt,rrhf)
 ----------------------------------------------------------------------
 -----
 title
 -----
 Symbolic Z-matrix:
 Charge =  0 Multiplicity = 1

 SCF Done:  E(RHF) =  -322.507083876     A.U. after   16 cycles
 Normal termination of Gaussian 16 at Wed Apr  9 18:21:21 2025.
 Gaussian 16:  ES64L-G16RevC.01  3-Jul-2019

 ----------------------------------------------------------------------
 #t hf aug-cc-pvdz iop(5/13=1,5/36=2,99/5=2) pseudo=read geom=check gue
 ss=(read,tcheck) scf=(maxcycle=1)
 ----------------------------------------------------------------------
 -----
 title
 -----
 Structure from the checkpoint file:  "Grambow2020_wb97xd3_007347_reverse_mol1.chk"
 Charge =  0 Multiplicity = 1

                         Standard orientation:
 ---------------------------------------------------------------------
 Center     Atomic      Atomic             Coordinates (Angstroms)
 Number     Number       Type             X           Y           Z
 ---------------------------------------------------------------------
      1          8           0       -2.223938   -0.569107    0.097708
      2          6           0       -1.081255   -0.030633    0.245102
      3          6           0       -0.515936    1.360477    0.145613
      4          7           0        0.581182    0.730700   -0.641414
      5          6           0        1.750105    0.329452    0.201073
      6          6           0        1.328710   -1.148584    0.171741
      7          6           0       -0.002818   -0.692819   -0.404409
      8          1           0       -1.134291    2.055974   -0.422175
      9          1           0       -0.179860    1.819753    1.073885
     10          1           0        1.720244    0.765012    1.204416
     11          1           0        2.701802    0.584765   -0.265868
     12          1           0        1.291947   -1.689933    1.115617
     13          1           0        1.892666   -1.735131   -0.552107
     14          1           0       -1.442106   -1.269836   -0.600266
 ---------------------------------------------------------------------

 SCF Done:  E(RHF) =  -322.839060874     A.U. after    2 cycles

 The electronic state is 1-A.
 Alpha  occ. eigenvalues --  -20.57828 -15.51132 -11.36788 -11.29382 -11.27134
 Alpha  occ. eigenvalues --  -11.25188 -11.24399  -1.51324  -1.28576  -1.06354
 Alpha  occ. eigenvalues --   -0.98305  -0.91478  -0.83664  -0.73997  -0.71183
 Alpha  occ. eigenvalues --   -0.69172  -0.67841  -0.62068  -0.58508  -0.55857
 Alpha  occ. eigenvalues --   -0.55172  -0.52193  -0.49853  -0.46377  -0.42263
 Alpha  occ. eigenvalues --   -0.32975
 Alpha virt. eigenvalues --    0.03199   0.03934   0.04348   0.04548   0.05825
 Alpha virt. eigenvalues --    0.06057   0.06996   0.07544   0.08471   0.09425
 Alpha virt. eigenvalues --    0.12189   0.12719   0.13362   0.14215   0.14836

 Mulliken charges:
               1
     1  O   -1.404156
     2  C    1.799821
     3  C   -0.338736
     4  N    0.263242
     5  C   -0.053722
     6  C    0.037681
     7  C   -1.041009
     8  H    0.025891
     9  H    0.150498
    10  H    0.065244
    11  H   -0.030571
    12  H    0.030640
    13  H    0.111406
    14  H    0.383771
 Sum of Mulliken charges =   0.00000

 Dipole moment (field-independent basis, Debye):
    X=              1.4356    Y=              0.7196    Z=              2.3936  Tot=              2.8823

 Test job not archived.
 1\1\GINC-SE224\SP\RHF\Aug-CC-pVDZ\C5H7N1O1\OHZDE\09-Apr-2025\0\\#t hf
 aug-cc-pvdz iop(5/13=1,5/36=2,99/5=2) pseudo=read geom=check guess=(re
 ad,tcheck) scf=(maxcycle=1)\\title\\0,1\O,0,1.77705074,1.04936212,-1.6
 3053123\C,0,1.15865123,0.51204538,-0.65776425\C,0,1.41833081,-0.616977
 04,0.30272899\N,0,0.02023591,-1.03586668,0.00345776\C,0,-0.97867357,-0
 .46778896,0.96086638\C,0,-1.42933484,0.59098363,-0.0584122\C,0,-0.2131
 0693,0.21671788,-0.89108992\H,0,2.17986788,-1.32243191,-0.0302215\H,0,
 1.57969257,-0.34570094,1.34481344\H,0,-0.51457312,-0.03570904,1.852617

 Normal termination of Gaussian 16 at Wed Apr  9 18:21:26 2025.
