 Gaussian 16, Revision C.01,

 ----------------------------------------------------------------------
 #t hf aug-cc-pvdz symm=none int=(grid=ultrafine) guess=(read,tcheck) s
 table=(opt,rrhf)
 ----------------------------------------------------------------------
 -----
 title
 -----
 Symbolic Z-matrix:
 Charge =  0 Multiplicity = 1

 SCF Done:  E(RHF) =  -342.480036298     A.U. after   13 cycles
 Normal termination of Gaussian 16 at Wed Apr  9 03:59:35 2025.
 Gaussian 16:  ES64L-G16RevC.01  3-Jul-2019

 ----------------------------------------------------------------------
 #t hf aug-cc-pvdz iop(5/13=1,5/36=2,99/5=2) pseudo=read geom=check gue
 ss=(read,tcheck) scf=(maxcycle=1)
 ----------------------------------------------------------------------
 -----
 title
 -----
 Structure from the checkpoint file:  "Grambow2020_wb97xd3_008758_reverse_mol2.chk"
 Charge =  0 Multiplicity = 1

                         Standard orientation:
 ---------------------------------------------------------------------
 Center     Atomic      Atomic             Coordinates (Angstroms)
 Number     Number       Type             X           Y           Z
 ---------------------------------------------------------------------
      1          8           0       -2.560700   -0.516618   -0.005450
      2          6           0       -1.621586    0.465655    0.139254
      3          6           0       -0.322861    0.302266   -0.034653
      4          8           0        0.673549    1.275200    0.088206
      5          6           0        1.641636    0.320527   -0.362337
      6          6           0        1.743998   -0.817280    0.581458
      7          6           0        0.617119   -0.780357   -0.435109
      8          1           0       -2.044419    1.425971    0.399774
      9          1           0       -2.122845   -1.360424   -0.139533
     10          1           0        2.396197    0.655924   -1.059209
     11          1           0        2.525869   -1.533856    0.360227
     12          1           0        1.529330   -0.660810    1.631771
     13          1           0        0.463237   -1.540333   -1.186751
 ---------------------------------------------------------------------

 SCF Done:  E(RHF) =  -342.828543358     A.U. after    2 cycles

 The electronic state is 1-A.
 Alpha  occ. eigenvalues --  -20.57387 -20.56646 -11.31231 -11.29424 -11.28662
 Alpha  occ. eigenvalues --  -11.26384 -11.25862  -1.50843  -1.48317  -1.15558
 Alpha  occ. eigenvalues --   -1.02724  -0.88922  -0.83844  -0.77502  -0.74800
 Alpha  occ. eigenvalues --   -0.69268  -0.66356  -0.62629  -0.59333  -0.57328
 Alpha  occ. eigenvalues --   -0.55267  -0.54160  -0.51451  -0.47732  -0.41024
 Alpha  occ. eigenvalues --   -0.31855
 Alpha virt. eigenvalues --    0.02928   0.03729   0.04182   0.04732   0.05801
 Alpha virt. eigenvalues --    0.06706   0.09366   0.10167   0.10588   0.11851
 Alpha virt. eigenvalues --    0.12817   0.13637   0.13893   0.14468   0.15195

 Mulliken charges:
               1
     1  O   -1.447952
     2  C    1.345940
     3  C    0.937020
     4  O   -1.603474
     5  C    1.208159
     6  C    0.064417
     7  C   -0.249335
     8  H   -0.042668
     9  H    0.356767
    10  H   -0.127658
    11  H   -0.073637
    12  H   -0.108285
    13  H   -0.259293
 Sum of Mulliken charges =  -0.00000

 Dipole moment (field-independent basis, Debye):
    X=              2.0479    Y=             -2.2731    Z=             -0.7179  Tot=              3.1426

 Test job not archived.
 1\1\GINC-SE423\SP\RHF\Aug-CC-pVDZ\C5H6O2\OHZDE\09-Apr-2025\0\\#t hf au
 g-cc-pvdz iop(5/13=1,5/36=2,99/5=2) pseudo=read geom=check guess=(read
 ,tcheck) scf=(maxcycle=1)\\title\\0,1\O,0,2.14068169,0.92509837,-1.567
 74682\C,0,1.91084811,0.37940255,-0.33602933\C,0,0.74426053,-0.07391207
 ,0.08492763\O,0,0.46186898,-0.65100616,1.32659806\C,0,-0.8714146,-0.92
 463268,0.88043184\C,0,-1.59951831,0.33111751,0.58245662\C,0,-0.6376676
 4,-0.24358374,-0.44184296\H,0,2.7967193,0.33086715,0.28182229\H,0,1.30
 664654,1.03098847,-2.03129478\H,0,-1.30422207,-1.8808559,1.13694249\H,

 Normal termination of Gaussian 16 at Wed Apr  9 03:59:38 2025.
