 Gaussian 16, Revision C.01,

 ----------------------------------------------------------------------
 #t hf aug-cc-pvdz symm=none int=(grid=ultrafine) guess=(read,tcheck) s
 table=(opt,rrhf)
 ----------------------------------------------------------------------
 -----
 title
 -----
 Symbolic Z-matrix:
 Charge =  0 Multiplicity = 1

 SCF Done:  E(RHF) =  -271.919800677     A.U. after   15 cycles
 Normal termination of Gaussian 16 at Wed Apr  9 03:40:57 2025.
 Gaussian 16:  ES64L-G16RevC.01  3-Jul-2019

 ----------------------------------------------------------------------
 #t hf aug-cc-pvdz iop(5/13=1,5/36=2,99/5=2) pseudo=read geom=check gue
 ss=(read,tcheck) scf=(maxcycle=1)
 ----------------------------------------------------------------------
 -----
 title
 -----
 Structure from the checkpoint file:  "Grambow2020_wb97xd3_007441_reverse_mol1.chk"
 Charge =  0 Multiplicity = 1

                         Standard orientation:
 ---------------------------------------------------------------------
 Center     Atomic      Atomic             Coordinates (Angstroms)
 Number     Number       Type             X           Y           Z
 ---------------------------------------------------------------------
      1          6           0        2.680219    0.049974   -0.179388
      2          6           0        1.382700   -0.724955    0.017563
      3          6           0        0.265116    0.155565    0.546792
      4          6           0       -0.370911    1.252891   -0.342990
      5          6           0       -1.793759    0.859805    0.141418
      6          6           0       -1.754699   -0.926589   -0.573535
      7          6           0       -1.159073   -0.377982    0.724069
      8          1           0        3.470375   -0.585806   -0.582053
      9          1           0        3.036603    0.467802    0.765187
     10          1           0        2.538041    0.882102   -0.873470
     11          1           0        1.087316   -1.177103   -0.934358
     12          1           0        1.545889   -1.555112    0.712952
     13          1           0        0.589828    0.604877    1.489458
     14          1           0       -0.190230    1.166842   -1.416257
     15          1           0       -0.155976    2.283732   -0.057149
     16          1           0       -2.329397   -0.042993   -1.044448
     17          1           0       -2.551234   -1.635965   -0.375480
     18          1           0       -1.030988   -1.261063   -1.310661
     19          1           0       -1.507790   -0.879568    1.622704
 ---------------------------------------------------------------------

 SCF Done:  E(RHF) =  -272.216659988     A.U. after    2 cycles

 The electronic state is 1-A.
 Alpha  occ. eigenvalues --  -11.26221 -11.25420 -11.24067 -11.23480 -11.23065
 Alpha  occ. eigenvalues --  -11.23002 -11.22609  -1.18559  -1.05358  -0.98275
 Alpha  occ. eigenvalues --   -0.90184  -0.85731  -0.79205  -0.72298  -0.68276
 Alpha  occ. eigenvalues --   -0.63315  -0.61160  -0.57561  -0.56982  -0.54727
 Alpha  occ. eigenvalues --   -0.53698  -0.50812  -0.49880  -0.47691  -0.45958
 Alpha  occ. eigenvalues --   -0.42921  -0.33430
 Alpha virt. eigenvalues --    0.03148   0.03276   0.03523   0.04190   0.05571
 Alpha virt. eigenvalues --    0.05718   0.06490   0.06550   0.06874   0.08897
 Alpha virt. eigenvalues --    0.09482   0.09709   0.11417   0.13428   0.13650

 Mulliken charges:
               1
     1  C   -0.314678
     2  C   -0.450208
     3  C   -0.035858
     4  C   -0.009527
     5  C   -0.462212
     6  C   -0.322952
     7  C    0.356742
     8  H    0.102273
     9  H    0.169510
    10  H    0.179394
    11  H    0.124196
    12  H    0.169572
    13  H    0.045436
    14  H    0.018335
    15  H    0.014566
    16  H    0.376179
    17  H    0.047979
    18  H    0.137775
    19  H   -0.146521
 Sum of Mulliken charges =  -0.00000

 Dipole moment (field-independent basis, Debye):
    X=              1.7622    Y=             -1.8432    Z=             -0.5805  Tot=              2.6153

 Test job not archived.
 1\1\GINC-SE041\SP\RHF\Aug-CC-pVDZ\C7H12\OHZDE\09-Apr-2025\0\\#t hf aug
 -cc-pvdz iop(5/13=1,5/36=2,99/5=2) pseudo=read geom=check guess=(read,
 tcheck) scf=(maxcycle=1)\\title\\0,1\C,0,2.33637624,0.36815177,-0.7697
 4787\C,0,1.04980433,-0.44862952,-0.74827984\C,0,0.27323832,-0.25906265
 ,0.54222601\C,0,-0.42133681,1.08866592,0.86091089\C,0,-1.68790883,0.34
 707513,1.3703231\C,0,-2.11940737,-0.47792431,-0.31403768\C,0,-1.103221
 47,-0.89683439,0.74963382\H,0,2.87531908,0.24361404,-1.71034994\H,0,3.
 00574196,0.06988014,0.04068095\H,0,2.12615337,1.43352264,-0.64649234\H

 Normal termination of Gaussian 16 at Wed Apr  9 03:41:05 2025.
