 Gaussian 16, Revision C.01,

 ----------------------------------------------------------------------
 #t hf aug-cc-pvdz symm=none int=(grid=ultrafine) guess=(read,tcheck) s
 table=(opt,rrhf)
 ----------------------------------------------------------------------
 -----
 title
 -----
 Symbolic Z-matrix:
 Charge =  0 Multiplicity = 1

 SCF Done:  E(RHF) =  -344.727705040     A.U. after   15 cycles

 1\1\GINC-SE459\Stability\RHF\Aug-CC-pVDZ\C5H10O2\OHZDE\09-Apr-2025\0\\
 #t hf aug-cc-pvdz symm=none int=(grid=ultrafine) guess=(read,tcheck) s
 table=(opt,rrhf)\\title\\0,1\C,0,2.12968067,1.06682197,-0.66459525\O,0
 ,0.75134633,0.86540851,-0.41581326\C,0,0.35908555,-0.43260697,-0.43532
 699\C,0,0.03330419,-1.52904926,1.33660557\O,0,-1.11062146,-1.78958643,
 0.57591475\C,0,-1.15714004,-0.67688461,-0.30234576\C,0,-1.95566678,0.4
 9407802,0.23320674\H,0,2.73754386,0.58435256,0.10717267\H,0,2.41188034
 ,0.67147701,-1.64612279\H,0,2.30352534,2.13997243,-0.64148625\H,0,0.80

 Normal termination of Gaussian 16 at Wed Apr  9 03:27:30 2025.
 Gaussian 16:  ES64L-G16RevC.01  3-Jul-2019

 ----------------------------------------------------------------------
 #t hf aug-cc-pvdz iop(5/13=1,5/36=2,99/5=2) pseudo=read geom=check gue
 ss=(read,tcheck) scf=(maxcycle=1)
 ----------------------------------------------------------------------
 -----
 title
 -----
 Structure from the checkpoint file:  "Grambow2020_wb97xd3_006666_forward_mol1.chk"
 Charge =  0 Multiplicity = 1

                         Standard orientation:
 ---------------------------------------------------------------------
 Center     Atomic      Atomic             Coordinates (Angstroms)
 Number     Number       Type             X           Y           Z
 ---------------------------------------------------------------------
      1          6           0       -2.654495   -0.077676   -0.073900
      2          8           0       -1.352381    0.474549   -0.116451
      3          6           0       -0.397101   -0.289086    0.469548
      4          6           0        0.925956   -1.484269   -0.657005
      5          8           0        1.771024   -0.801537    0.223241
      6          6           0        1.005504    0.344050    0.559722
      7          6           0        1.239706    1.528572   -0.355523
      8          1           0       -2.690759   -1.027523   -0.616465
      9          1           0       -2.977024   -0.239856    0.960027
     10          1           0       -3.318847    0.636930   -0.553881
     11          1           0       -0.725448   -0.727915    1.423966
     12          1           0        0.707139   -0.818318   -1.516426
     13          1           0       -0.219373   -1.461306   -0.065583
     14          1           0        1.245726    0.633905    1.588273
     15          1           0        0.584128    2.355759   -0.081409
     16          1           0        2.275123    1.852524   -0.249810
     17          1           0        1.052772    1.282150   -1.400070
 ---------------------------------------------------------------------

 SCF Done:  E(RHF) =  -345.085116951     A.U. after    2 cycles

 The electronic state is 1-A.
 Alpha  occ. eigenvalues --  -20.59003 -20.55060 -11.34648 -11.31047 -11.30772
 Alpha  occ. eigenvalues --  -11.28865 -11.23156  -1.52411  -1.48353  -1.06321
 Alpha  occ. eigenvalues --   -0.99642  -0.94046  -0.89627  -0.78850  -0.71824
 Alpha  occ. eigenvalues --   -0.69798  -0.68197  -0.66158  -0.61426  -0.60584
 Alpha  occ. eigenvalues --   -0.57249  -0.55730  -0.53961  -0.52629  -0.49544
 Alpha  occ. eigenvalues --   -0.48272  -0.41694  -0.32364
 Alpha virt. eigenvalues --    0.02782   0.03368   0.03867   0.04909   0.05874
 Alpha virt. eigenvalues --    0.06100   0.06861   0.07416   0.07964   0.09459
 Alpha virt. eigenvalues --    0.10485   0.12245   0.12529   0.13014   0.14093

 Mulliken charges:
               1
     1  C    0.102955
     2  O   -1.479506
     3  C    0.632995
     4  C   -0.145541
     5  O   -1.368845
     6  C    0.865440
     7  C   -0.347555
     8  H    0.190814
     9  H    0.195702
    10  H   -0.021409
    11  H    0.078867
    12  H    0.238750
    13  H    0.423695
    14  H    0.053351
    15  H    0.221202
    16  H    0.160954
    17  H    0.198131
 Sum of Mulliken charges =  -0.00000

 Dipole moment (field-independent basis, Debye):
    X=             -3.6131    Y=              2.5380    Z=              1.2200  Tot=              4.5809

 Test job not archived.
 1\1\GINC-SE459\SP\RHF\Aug-CC-pVDZ\C5H10O2\OHZDE\09-Apr-2025\0\\#t hf a
 ug-cc-pvdz iop(5/13=1,5/36=2,99/5=2) pseudo=read geom=check guess=(rea
 d,tcheck) scf=(maxcycle=1)\\title\\0,1\C,0,2.12968067,1.06682197,-0.66
 459525\O,0,0.75134633,0.86540851,-0.41581326\C,0,0.35908555,-0.4326069
 7,-0.43532699\C,0,0.03330419,-1.52904926,1.33660557\O,0,-1.11062146,-1
 .78958643,0.57591475\C,0,-1.15714004,-0.67688461,-0.30234576\C,0,-1.95
 566678,0.49407802,0.23320674\H,0,2.73754386,0.58435256,0.10717267\H,0,
 2.41188034,0.67147701,-1.64612279\H,0,2.30352534,2.13997243,-0.6414862

 Normal termination of Gaussian 16 at Wed Apr  9 03:27:36 2025.
