 Gaussian 16, Revision C.01,

 ----------------------------------------------------------------------
 #t hf aug-cc-pvdz symm=none int=(grid=ultrafine) guess=(read,tcheck) s
 table=(opt,rrhf)
 ----------------------------------------------------------------------
 -----
 title
 -----
 Symbolic Z-matrix:
 Charge =  0 Multiplicity = 1

 SCF Done:  E(RHF) =  -270.602921187     A.U. after   16 cycles
 Normal termination of Gaussian 16 at Wed Apr  9 18:56:53 2025.
 Gaussian 16:  ES64L-G16RevC.01  3-Jul-2019

 ----------------------------------------------------------------------
 #t hf aug-cc-pvdz iop(5/13=1,5/36=2,99/5=2) pseudo=read geom=check gue
 ss=(read,tcheck) scf=(maxcycle=1)
 ----------------------------------------------------------------------
 -----
 title
 -----
 Structure from the checkpoint file:  "Grambow2020_wb97xd3_008382_reverse_mol1.chk"
 Charge =  0 Multiplicity = 1

                         Standard orientation:
 ---------------------------------------------------------------------
 Center     Atomic      Atomic             Coordinates (Angstroms)
 Number     Number       Type             X           Y           Z
 ---------------------------------------------------------------------
      1          6           0       -1.986671   -0.419595   -0.013154
      2          6           0       -0.229251   -1.031019    0.287433
      3          6           0        0.654086   -0.843531   -0.962456
      4          6           0        1.374063    0.294062   -0.224713
      5          6           0        0.951780   -0.440811    1.083821
      6          6           0        0.388437    1.417182   -0.208772
      7          6           0       -0.850621    1.071932    0.081703
      8          1           0       -2.428200   -0.627091    0.956058
      9          1           0       -2.614138    0.346838   -0.503769
     10          1           0       -2.104568   -1.277320   -0.668470
     11          1           0        0.195248   -0.637138   -1.929123
     12          1           0        1.276435   -1.739806   -1.036757
     13          1           0        2.411761    0.560943   -0.438559
     14          1           0        0.792031    0.143101    1.986810
     15          1           0        1.594344   -1.299927    1.306714
     16          1           0        0.688458    2.457712   -0.266256
     17          1           0       -1.622313    1.783373    0.330175
 ---------------------------------------------------------------------

 SCF Done:  E(RHF) =  -270.891635566     A.U. after    2 cycles

 The electronic state is 1-A.
 Alpha  occ. eigenvalues --  -11.27351 -11.26598 -11.24373 -11.24343 -11.23937
 Alpha  occ. eigenvalues --  -11.23184 -11.22606  -1.17948  -1.02545  -0.97429
 Alpha  occ. eigenvalues --   -0.90010  -0.85947  -0.75280  -0.71891  -0.66826
 Alpha  occ. eigenvalues --   -0.62648  -0.60586  -0.58644  -0.56000  -0.53615
 Alpha  occ. eigenvalues --   -0.49955  -0.48585  -0.46426  -0.44710  -0.36031
 Alpha  occ. eigenvalues --   -0.28387
 Alpha virt. eigenvalues --    0.03238   0.03499   0.03910   0.04100   0.05483
 Alpha virt. eigenvalues --    0.05709   0.06264   0.06397   0.07448   0.09187
 Alpha virt. eigenvalues --    0.10951   0.11710   0.12679   0.13291   0.13559

 Mulliken charges:
               1
     1  C   -0.383711
     2  C   -0.393154
     3  C    0.082514
     4  C   -0.008201
     5  C    0.034609
     6  C    0.489128
     7  C    0.441075
     8  H    0.231905
     9  H    0.088112
    10  H    0.057245
    11  H   -0.029705
    12  H    0.035835
    13  H   -0.142198
    14  H   -0.046740
    15  H    0.046366
    16  H   -0.166816
    17  H   -0.336263
 Sum of Mulliken charges =  -0.00000

 Dipole moment (field-independent basis, Debye):
    X=              0.3813    Y=              1.4171    Z=             -0.3518  Tot=              1.5091

 Test job not archived.
 1\1\GINC-SE340\SP\RHF\Aug-CC-pVDZ\C7H10\OHZDE\09-Apr-2025\0\\#t hf aug
 -cc-pvdz iop(5/13=1,5/36=2,99/5=2) pseudo=read geom=check guess=(read,
 tcheck) scf=(maxcycle=1)\\title\\0,1\C,0,1.87569551,0.45521707,0.19508
 037\C,0,0.57985886,-0.80536275,-0.33826757\C,0,-0.39386725,-1.1333751,
 0.81148245\C,0,-1.47154414,-0.3366591,0.06274658\C,0,-0.67344461,-0.69
 028721,-1.22899911\C,0,-1.06479929,1.09227127,0.22345284\C,0,0.2212188
 2,1.33148563,0.05680513\H,0,2.4382953,0.55113809,-0.72777144\H,0,2.073
 17924,1.36104483,0.79700667\H,0,2.29799914,-0.33423712,0.80945286\H,0,

 Normal termination of Gaussian 16 at Wed Apr  9 18:56:58 2025.
