 Gaussian 16, Revision C.01,

 ----------------------------------------------------------------------
 #t hf aug-cc-pvdz symm=none int=(grid=ultrafine) guess=(read,tcheck) s
 table=(opt,rrhf)
 ----------------------------------------------------------------------
 -----
 title
 -----
 Symbolic Z-matrix:
 Charge =  0 Multiplicity = 1

 SCF Done:  E(RHF) =  -245.838180684     A.U. after   13 cycles
 Normal termination of Gaussian 16 at Wed Apr  9 16:28:45 2025.
 Gaussian 16:  ES64L-G16RevC.01  3-Jul-2019

 ----------------------------------------------------------------------
 #t hf aug-cc-pvdz iop(5/13=1,5/36=2,99/5=2) pseudo=read geom=check gue
 ss=(read,tcheck) scf=(maxcycle=1)
 ----------------------------------------------------------------------
 -----
 title
 -----
 Structure from the checkpoint file:  "Grambow2020_wb97xd3_006107_forward_mol2.chk"
 Charge =  0 Multiplicity = 1

                         Standard orientation:
 ---------------------------------------------------------------------
 Center     Atomic      Atomic             Coordinates (Angstroms)
 Number     Number       Type             X           Y           Z
 ---------------------------------------------------------------------
      1          6           0       -0.922604   -0.744381    0.000137
      2          6           0       -0.905805    0.796847   -0.000172
      3          7           0        0.516875    1.153023   -0.000016
      4          6           0        1.148216    0.064140    0.000095
      5          8           0        0.473250   -1.103225   -0.000278
      6          1           0       -1.383836   -1.175566    0.889010
      7          1           0       -1.385043   -1.176529   -0.887671
      8          1           0       -1.390768    1.222626   -0.880101
      9          1           0       -1.390214    1.222080    0.880332
     10          1           0        2.226897   -0.037600    0.000400
 ---------------------------------------------------------------------

 SCF Done:  E(RHF) =  -246.090643805     A.U. after    2 cycles

 The electronic state is 1-A.
 Alpha  occ. eigenvalues --  -20.58328 -15.48866 -11.33765 -11.30130 -11.26938
 Alpha  occ. eigenvalues --   -1.52425  -1.22967  -1.03653  -0.87699  -0.81554
 Alpha  occ. eigenvalues --   -0.72834  -0.69937  -0.63129  -0.58439  -0.57692
 Alpha  occ. eigenvalues --   -0.54265  -0.52635  -0.47534  -0.40059
 Alpha virt. eigenvalues --    0.03559   0.04659   0.04712   0.05079   0.06900
 Alpha virt. eigenvalues --    0.08804   0.09934   0.10376   0.12046   0.14150
 Alpha virt. eigenvalues --    0.14906   0.15728   0.16119   0.16363   0.17804

 Mulliken charges:
               1
     1  C    0.607799
     2  C   -0.599401
     3  N    0.508439
     4  C    0.345391
     5  O   -1.216028
     6  H    0.081054
     7  H    0.081061
     8  H    0.072596
     9  H    0.073331
    10  H    0.045758
 Sum of Mulliken charges =  -0.00000

 Dipole moment (field-independent basis, Debye):
    X=             -1.3074    Y=             -1.4927    Z=              0.0008  Tot=              1.9843

 Test job not archived.
 1\1\GINC-SE125\SP\RHF\Aug-CC-pVDZ\C3H5N1O1\OHZDE\09-Apr-2025\0\\#t hf
 aug-cc-pvdz iop(5/13=1,5/36=2,99/5=2) pseudo=read geom=check guess=(re
 ad,tcheck) scf=(maxcycle=1)\\title\\0,1\C,0,-0.65344358,-0.73920278,-0
 .01275183\C,0,-0.55579941,0.78296607,0.20890725\N,0,0.86686189,1.09347
 358,0.03426426\C,0,1.43257515,-0.0006187,-0.22494105\O,0,0.70502742,-1
 .1342119,-0.28789312\H,0,-0.99510791,-1.2870751,0.86579915\H,0,-1.2685
 2429,-1.01755518,-0.86890591\H,0,-1.14674805,1.35163207,-0.51092017\H,
 0,-0.87654413,1.08311438,1.20780486\H,0,2.49170291,-0.13252243,-0.4113

 Normal termination of Gaussian 16 at Wed Apr  9 16:28:48 2025.
