 Gaussian 16, Revision C.01,

 ----------------------------------------------------------------------
 #t hf aug-cc-pvdz symm=none int=(grid=ultrafine) guess=(read,tcheck) s
 table=(opt,rrhf)
 ----------------------------------------------------------------------
 -----
 title
 -----
 Symbolic Z-matrix:
 Charge =  0 Multiplicity = 1

 SCF Done:  E(RHF) =  -306.534824876     A.U. after   18 cycles
 Normal termination of Gaussian 16 at Wed Apr  9 19:09:04 2025.
 Gaussian 16:  ES64L-G16RevC.01  3-Jul-2019

 ----------------------------------------------------------------------
 #t hf aug-cc-pvdz iop(5/13=1,5/36=2,99/5=2) pseudo=read geom=check gue
 ss=(read,tcheck) scf=(maxcycle=1)
 ----------------------------------------------------------------------
 -----
 title
 -----
 Structure from the checkpoint file:  "Grambow2020_wb97xd3_008783_reverse_mol1.chk"
 Charge =  0 Multiplicity = 1

                         Standard orientation:
 ---------------------------------------------------------------------
 Center     Atomic      Atomic             Coordinates (Angstroms)
 Number     Number       Type             X           Y           Z
 ---------------------------------------------------------------------
      1          8           0        2.365293    0.149582    0.418587
      2          6           0        1.338490   -0.195066   -0.046407
      3          6           0       -0.048135    1.456947   -0.319368
      4          6           0       -1.331629    0.743209   -0.281063
      5          6           0       -1.548207   -0.250219    0.815526
      6          6           0       -0.908971   -1.151800   -0.162683
      7          6           0        0.467023   -1.199213   -0.397926
      8          1           0        0.419088    1.796217    0.599149
      9          1           0        0.309861    1.876754   -1.249338
     10          1           0       -1.165993    2.058015   -0.051207
     11          1           0       -2.011915    0.789003   -1.117974
     12          1           0       -0.991860   -0.036252    1.726542
     13          1           0       -2.587260   -0.471965    1.039137
     14          1           0       -1.549574   -1.800558   -0.746080
     15          1           0        0.843873   -1.831017   -1.197405
 ---------------------------------------------------------------------

 SCF Done:  E(RHF) =  -306.851524392     A.U. after    2 cycles

 The electronic state is 1-A.
 Alpha  occ. eigenvalues --  -20.55648 -11.34361 -11.28599 -11.27435 -11.26290
 Alpha  occ. eigenvalues --  -11.25248 -11.23832  -1.49562  -1.16715  -1.05099
 Alpha  occ. eigenvalues --   -1.00254  -0.84606  -0.81113  -0.72074  -0.70432
 Alpha  occ. eigenvalues --   -0.66856  -0.63512  -0.62742  -0.60443  -0.58079
 Alpha  occ. eigenvalues --   -0.54423  -0.53383  -0.51661  -0.48346  -0.35909
 Alpha  occ. eigenvalues --   -0.25592
 Alpha virt. eigenvalues --    0.02842   0.03427   0.03747   0.04429   0.05994
 Alpha virt. eigenvalues --    0.06066   0.06447   0.07579   0.10164   0.10419
 Alpha virt. eigenvalues --    0.11433   0.13193   0.13595   0.13912   0.14364

 Mulliken charges:
               1
     1  O   -1.167577
     2  C    0.666994
     3  C   -0.474105
     4  C    0.137486
     5  C    0.120242
     6  C    0.341651
     7  C    0.366968
     8  H    0.076012
     9  H    0.010776
    10  H    0.362160
    11  H   -0.170043
    12  H    0.032007
    13  H   -0.024520
    14  H   -0.212561
    15  H   -0.065489
 Sum of Mulliken charges =  -0.00000

 Dipole moment (field-independent basis, Debye):
    X=             -3.6033    Y=              0.8827    Z=             -0.9791  Tot=              3.8369

 Test job not archived.
 1\1\GINC-SE174\SP\RHF\Aug-CC-pVDZ\C6H8O1\OHZDE\09-Apr-2025\0\\#t hf au
 g-cc-pvdz iop(5/13=1,5/36=2,99/5=2) pseudo=read geom=check guess=(read
 ,tcheck) scf=(maxcycle=1)\\title\\0,1\O,0,0.82955024,-2.58096039,-0.82
 799981\C,0,0.83919398,-1.57267276,-0.21759862\C,0,-1.1586985,-0.784955
 87,0.12050033\C,0,-0.86228228,0.64413829,0.28805625\C,0,0.04584697,1.2
 9256234,-0.70751425\C,0,1.07446049,0.81822322,0.23869895\C,0,1.5270324
 ,-0.50162063,0.3030328\H,0,-1.32047125,-1.19985039,-0.86882617\H,0,-1.
 47345741,-1.37537993,0.96995252\H,0,-2.06102283,0.13243149,-0.0438467\

 Normal termination of Gaussian 16 at Wed Apr  9 19:09:09 2025.
