 Gaussian 16, Revision C.01,

 ----------------------------------------------------------------------
 #t hf aug-cc-pvdz symm=none int=(grid=ultrafine) guess=(read,tcheck) s
 table=(opt,rrhf)
 ----------------------------------------------------------------------
 -----
 title
 -----
 Symbolic Z-matrix:
 Charge =  0 Multiplicity = 1

 SCF Done:  E(RHF) =  -394.338018301     A.U. after   15 cycles
 Normal termination of Gaussian 16 at Wed Apr  9 18:13:54 2025.
 Gaussian 16:  ES64L-G16RevC.01  3-Jul-2019

 ----------------------------------------------------------------------
 #t hf aug-cc-pvdz iop(5/13=1,5/36=2,99/5=2) pseudo=read geom=check gue
 ss=(read,tcheck) scf=(maxcycle=1)
 ----------------------------------------------------------------------
 -----
 title
 -----
 Structure from the checkpoint file:  "Grambow2020_wb97xd3_007205_forward_mol1.chk"
 Charge =  0 Multiplicity = 1

                         Standard orientation:
 ---------------------------------------------------------------------
 Center     Atomic      Atomic             Coordinates (Angstroms)
 Number     Number       Type             X           Y           Z
 ---------------------------------------------------------------------
      1          7           0        2.115702    0.198117    0.672637
      2          6           0        1.215111   -0.261235   -0.161196
      3          8           0        0.765293   -1.348758   -0.519064
      4          6           0       -1.552876   -0.175125   -0.220668
      5          8           0       -2.204326   -0.424464    0.715508
      6          6           0        0.499154    1.012961   -0.326576
      7          8           0       -0.775810    1.068513   -0.217864
      8          1           0        2.424324   -0.514025    1.335153
      9          1           0       -1.486214   -0.661756   -1.192499
     10          1           0        1.002383    1.967031   -0.429117
 ---------------------------------------------------------------------

 SCF Done:  E(RHF) =  -394.716448539     A.U. after    2 cycles

 The electronic state is 1-A.
 Alpha  occ. eigenvalues --  -20.69044 -20.61356 -20.51193 -15.51041 -11.45481
 Alpha  occ. eigenvalues --  -11.43996 -11.36324  -1.64035  -1.55381  -1.45663
 Alpha  occ. eigenvalues --   -1.22605  -1.03533  -0.93659  -0.84081  -0.79457
 Alpha  occ. eigenvalues --   -0.74592  -0.72925  -0.67931  -0.64340  -0.63999
 Alpha  occ. eigenvalues --   -0.59076  -0.57680  -0.51831  -0.49976  -0.43149
 Alpha  occ. eigenvalues --   -0.39806
 Alpha virt. eigenvalues --    0.01485   0.02960   0.04046   0.05411   0.07627
 Alpha virt. eigenvalues --    0.08236   0.10055   0.10325   0.11013   0.12035
 Alpha virt. eigenvalues --    0.12610   0.13755   0.14386   0.15202   0.16305

 Mulliken charges:
               1
     1  N    0.500417
     2  C    0.004584
     3  O   -1.144960
     4  C    1.347813
     5  O   -0.887324
     6  C    1.038914
     7  O   -1.285829
     8  H    0.142397
     9  H    0.220690
    10  H    0.063299
 Sum of Mulliken charges =  -0.00000

 Dipole moment (field-independent basis, Debye):
    X=             -1.5707    Y=              3.0566    Z=             -2.1913  Tot=              4.0757

 Test job not archived.
 1\1\GINC-SE131\SP\RHF\Aug-CC-pVDZ\C3H3N1O3\OHZDE\09-Apr-2025\0\\#t hf
 aug-cc-pvdz iop(5/13=1,5/36=2,99/5=2) pseudo=read geom=check guess=(re
 ad,tcheck) scf=(maxcycle=1)\\title\\0,1\N,0,-1.25436826,1.35090933,-0.
 8668461\C,0,-0.44142664,0.32463662,-0.92372559\O,0,0.60005184,0.009147
 96,-1.49722508\C,0,1.33265118,-0.80862534,0.87657068\O,0,2.08741512,-0
 .16767319,1.49503312\C,0,-0.91915441,-0.31459311,0.31186394\O,0,-0.093
 50466,-0.71570996,1.20508543\H,0,-0.84216125,2.19041828,-1.27505092\H,
 0,1.5001563,-1.58348022,0.13007852\H,0,-1.96675223,-0.37407936,0.58205

 Normal termination of Gaussian 16 at Wed Apr  9 18:13:57 2025.
