 Gaussian 16, Revision C.01,

 ----------------------------------------------------------------------
 #t hf aug-cc-pvdz symm=none int=(grid=ultrafine) guess=(read,tcheck) s
 table=(opt,rrhf)
 ----------------------------------------------------------------------
 -----
 title
 -----
 Symbolic Z-matrix:
 Charge =  0 Multiplicity = 1

 SCF Done:  E(RHF) =  -373.258172998     A.U. after   20 cycles
 Normal termination of Gaussian 16 at Wed Apr  9 03:27:58 2025.
 Gaussian 16:  ES64L-G16RevC.01  3-Jul-2019

 ----------------------------------------------------------------------
 #t hf aug-cc-pvdz iop(5/13=1,5/36=2,99/5=2) pseudo=read geom=check gue
 ss=(read,tcheck) scf=(maxcycle=1)
 ----------------------------------------------------------------------
 -----
 title
 -----
 Structure from the checkpoint file:  "Grambow2020_wb97xd3_006708_forward_mol1.chk"
 Charge =  0 Multiplicity = 1

                         Standard orientation:
 ---------------------------------------------------------------------
 Center     Atomic      Atomic             Coordinates (Angstroms)
 Number     Number       Type             X           Y           Z
 ---------------------------------------------------------------------
      1          8           0       -2.412353   -0.666876   -0.333324
      2          6           0       -1.748341    0.091682    0.299539
      3          6           0       -0.241311    0.336683    0.059970
      4          7           0        0.464891   -0.783900    0.000545
      5          6           0        1.861710   -0.789614    0.188719
      6          7           0        2.246119    0.271208   -0.277495
      7          8           0        0.108831    1.496929   -0.041604
      8          1           0       -2.159949    0.774234    1.065542
      9          1           0        2.378703   -1.658326    0.583159
 ---------------------------------------------------------------------

 SCF Done:  E(RHF) =  -373.613218947     A.U. after    2 cycles

 The electronic state is 1-A.
 Alpha  occ. eigenvalues --  -20.56878 -20.54313 -15.67135 -15.55402 -11.40705
 Alpha  occ. eigenvalues --  -11.37689 -11.35972  -1.50806  -1.48802  -1.37523
 Alpha  occ. eigenvalues --   -1.20766  -0.96779  -0.90179  -0.79531  -0.72910
 Alpha  occ. eigenvalues --   -0.71607  -0.69226  -0.67217  -0.66751  -0.58222
 Alpha  occ. eigenvalues --   -0.54410  -0.53891  -0.47851  -0.44422  -0.41243
 Alpha virt. eigenvalues --   -0.07161   0.02103   0.04480   0.04896   0.07297
 Alpha virt. eigenvalues --    0.07653   0.08578   0.09399   0.11054   0.12087
 Alpha virt. eigenvalues --    0.12998   0.13359   0.14495   0.14650   0.15795

 Mulliken charges:
               1
     1  O   -1.060385
     2  C    1.252422
     3  C    0.160294
     4  N    0.470744
     5  C   -0.823283
     6  N    0.842757
     7  O   -1.133198
     8  H    0.212975
     9  H    0.077674
 Sum of Mulliken charges =  -0.00000

 Dipole moment (field-independent basis, Debye):
    X=              3.8760    Y=             -2.1684    Z=              2.6797  Tot=              5.1870

 Test job not archived.
 1\1\GINC-SE461\SP\RHF\Aug-CC-pVDZ\C3H2N2O2\OHZDE\09-Apr-2025\0\\#t hf
 aug-cc-pvdz iop(5/13=1,5/36=2,99/5=2) pseudo=read geom=check guess=(re
 ad,tcheck) scf=(maxcycle=1)\\title\\0,1\O,0,-2.23247643,1.29368389,0.0
 9014712\C,0,-1.80425649,0.18960938,-0.03020711\C,0,-0.35891647,-0.2259
 9455,0.32591748\N,0,0.55774875,0.56731312,-0.21106265\C,0,1.89937548,0
 .15903029,-0.35208816\N,0,2.11365344,-0.5559685,0.61400194\O,0,-0.2370
 269,-1.20565495,1.03619528\H,0,-2.42316,-0.67932546,-0.31998464\H,0,2.
 53285662,0.5505898,-1.14133326\\Version=ES64L-G16RevC.01\State=1-A\HF=

 Normal termination of Gaussian 16 at Wed Apr  9 03:28:01 2025.
