 Gaussian 16, Revision C.01,

 ----------------------------------------------------------------------
 #t hf aug-cc-pvdz symm=none int=(grid=ultrafine) guess=(read,tcheck) s
 table=(opt,rrhf)
 ----------------------------------------------------------------------
 -----
 title
 -----
 Symbolic Z-matrix:
 Charge =  0 Multiplicity = 1

 SCF Done:  E(RHF) =  -321.534048312     A.U. after   15 cycles
 Normal termination of Gaussian 16 at Wed Apr  9 18:53:32 2025.
 Gaussian 16:  ES64L-G16RevC.01  3-Jul-2019

 ----------------------------------------------------------------------
 #t hf aug-cc-pvdz iop(5/13=1,5/36=2,99/5=2) pseudo=read geom=check gue
 ss=(read,tcheck) scf=(maxcycle=1)
 ----------------------------------------------------------------------
 -----
 title
 -----
 Structure from the checkpoint file:  "Grambow2020_wb97xd3_008188_reverse_mol2.chk"
 Charge =  0 Multiplicity = 1

                         Standard orientation:
 ---------------------------------------------------------------------
 Center     Atomic      Atomic             Coordinates (Angstroms)
 Number     Number       Type             X           Y           Z
 ---------------------------------------------------------------------
      1          8           0        1.470706   -0.743547   -0.378193
      2          6           0        0.311082   -1.514810   -0.007672
      3          6           0       -0.343548   -0.255408    0.600135
      4          6           0        0.901629    0.425750    0.062209
      5          6           0        1.366502    1.654473   -0.009714
      6          6           0       -1.625978    0.159376    0.056998
      7          7           0       -2.642784    0.470637   -0.372355
      8          1           0        2.323854    1.857484   -0.469106
      9          1           0       -0.197391   -1.920830   -0.882061
     10          1           0        0.560381   -2.305609    0.698951
     11          1           0       -0.393059   -0.266631    1.688841
     12          1           0        0.781943    2.473225    0.383672
 ---------------------------------------------------------------------

 SCF Done:  E(RHF) =  -321.856717030     A.U. after    2 cycles

 The electronic state is 1-A.
 Alpha  occ. eigenvalues --  -20.59218 -15.52582 -11.33580 -11.33295 -11.31709
 Alpha  occ. eigenvalues --  -11.29349 -11.24051  -1.53529  -1.25047  -1.10672
 Alpha  occ. eigenvalues --   -1.05211  -0.91650  -0.82505  -0.74921  -0.71180
 Alpha  occ. eigenvalues --   -0.68672  -0.64469  -0.61036  -0.58922  -0.57575
 Alpha  occ. eigenvalues --   -0.55061  -0.53885  -0.49818  -0.49396  -0.36823
 Alpha virt. eigenvalues --    0.02688   0.03769   0.04260   0.04868   0.06029
 Alpha virt. eigenvalues --    0.07460   0.08908   0.10109   0.10816   0.11846
 Alpha virt. eigenvalues --    0.12475   0.12956   0.14158   0.14480   0.14918

 Mulliken charges:
               1
     1  O   -1.484357
     2  C    0.797457
     3  C   -0.206035
     4  C    1.390549
     5  C    0.281844
     6  C   -1.850682
     7  N    1.016864
     8  H   -0.108203
     9  H    0.067081
    10  H    0.070908
    11  H    0.109407
    12  H   -0.084833
 Sum of Mulliken charges =   0.00000

 Dipole moment (field-independent basis, Debye):
    X=              2.4536    Y=             -1.7138    Z=              2.2244  Tot=              3.7290

 Test job not archived.
 1\1\GINC-SE118\SP\RHF\Aug-CC-pVDZ\C5H5N1O1\OHZDE\09-Apr-2025\0\\#t hf
 aug-cc-pvdz iop(5/13=1,5/36=2,99/5=2) pseudo=read geom=check guess=(re
 ad,tcheck) scf=(maxcycle=1)\\title\\0,1\O,0,-1.52123164,0.26123019,0.1
 0755043\C,0,-1.04882281,-1.09980982,0.14305248\C,0,0.36009144,-0.63138
 974,-0.28074894\C,0,-0.26935129,0.74610154,-0.18011534\C,0,0.13041264,
 1.99360743,-0.30241683\C,0,1.46293028,-0.93496384,0.61549826\N,0,2.326
 66335,-1.18971022,1.32556235\H,0,-0.56318213,2.81211817,-0.16921332\H,
 0,-1.11098628,-1.52047725,1.14660975\H,0,-1.57361932,-1.7287804,-0.575

 Normal termination of Gaussian 16 at Wed Apr  9 18:53:37 2025.
