 Gaussian 16, Revision C.01,

 ----------------------------------------------------------------------
 #t hf aug-cc-pvdz symm=none int=(grid=ultrafine) guess=(read,tcheck) s
 table=(opt,rrhf)
 ----------------------------------------------------------------------
 -----
 title
 -----
 Symbolic Z-matrix:
 Charge =  0 Multiplicity = 1

 SCF Done:  E(RHF) =  -317.673119782     A.U. after   14 cycles
 Normal termination of Gaussian 16 at Wed Apr  9 18:46:21 2025.
 Gaussian 16:  ES64L-G16RevC.01  3-Jul-2019

 ----------------------------------------------------------------------
 #t hf aug-cc-pvdz iop(5/13=1,5/36=2,99/5=2) pseudo=read geom=check gue
 ss=(read,tcheck) scf=(maxcycle=1)
 ----------------------------------------------------------------------
 -----
 title
 -----
 Structure from the checkpoint file:  "Grambow2020_wb97xd3_008050_reverse_mol2.chk"
 Charge =  0 Multiplicity = 1

                         Standard orientation:
 ---------------------------------------------------------------------
 Center     Atomic      Atomic             Coordinates (Angstroms)
 Number     Number       Type             X           Y           Z
 ---------------------------------------------------------------------
      1          7           0       -1.042990   -1.192368    0.117676
      2          6           0        0.252992   -0.698708    0.272672
      3          6           0        0.307339    0.778329    0.455552
      4          6           0        1.691704    0.502703   -0.217947
      5          7           0        1.414328   -0.971990   -0.195639
      6          6           0       -1.671935   -0.104715   -0.177197
      7          7           0       -0.945980    1.075906   -0.212460
      8          1           0        0.368446    1.202834    1.458912
      9          1           0        1.754508    0.859738   -1.244851
     10          1           0        2.568102    0.822133    0.350961
     11          1           0       -2.726140   -0.085081   -0.429834
     12          1           0       -1.423030    1.953884   -0.100707
 ---------------------------------------------------------------------

 SCF Done:  E(RHF) =  -317.997158876     A.U. after    2 cycles

 The electronic state is 1-A.
 Alpha  occ. eigenvalues --  -15.55300 -15.50331 -15.48962 -11.35124 -11.31080
 Alpha  occ. eigenvalues --  -11.28625 -11.27961  -1.35865  -1.25716  -1.19752
 Alpha  occ. eigenvalues --   -0.99264  -0.93739  -0.85182  -0.79913  -0.75423
 Alpha  occ. eigenvalues --   -0.70229  -0.67319  -0.62287  -0.59072  -0.58649
 Alpha  occ. eigenvalues --   -0.54814  -0.50224  -0.47389  -0.43014  -0.38956
 Alpha virt. eigenvalues --    0.02250   0.03924   0.04309   0.04726   0.05819
 Alpha virt. eigenvalues --    0.07425   0.08195   0.09752   0.11247   0.11558
 Alpha virt. eigenvalues --    0.12234   0.12758   0.13429   0.13729   0.14812

 Mulliken charges:
               1
     1  N    0.877597
     2  C   -1.869451
     3  C   -0.282698
     4  C    0.156836
     5  N    0.782057
     6  C   -0.345789
     7  N    0.524446
     8  H   -0.019884
     9  H    0.081822
    10  H    0.018908
    11  H   -0.023554
    12  H    0.099709
 Sum of Mulliken charges =  -0.00000

 Dipole moment (field-independent basis, Debye):
    X=             -2.6313    Y=              5.7483    Z=              0.8926  Tot=              6.3846

 Test job not archived.
 1\1\GINC-SE229\SP\RHF\Aug-CC-pVDZ\C4H5N3\OHZDE\09-Apr-2025\0\\#t hf au
 g-cc-pvdz iop(5/13=1,5/36=2,99/5=2) pseudo=read geom=check guess=(read
 ,tcheck) scf=(maxcycle=1)\\title\\0,1\N,0,0.23457766,0.20673504,1.8399
 9341\C,0,0.15357568,-0.71927119,0.7992032\C,0,0.44452906,-0.1344739,-0
 .53922771\C,0,-0.52670486,-1.29984517,-0.91955871\N,0,-0.57057271,-1.7
 3790398,0.51513167\C,0,0.17169444,1.31042815,1.17409789\N,0,0.08352824
 ,1.23119747,-0.20723069\H,0,1.44448525,-0.22041511,-0.96744756\H,0,-1.
 50995446,-0.95921767,-1.24071668\H,0,-0.13073837,-2.0374804,-1.6216054

 Normal termination of Gaussian 16 at Wed Apr  9 18:46:25 2025.
