 Gaussian 16, Revision C.01,

 ----------------------------------------------------------------------
 #t hf aug-cc-pvdz symm=none int=(grid=ultrafine) guess=(read,tcheck) s
 table=(opt,rrhf)
 ----------------------------------------------------------------------
 -----
 title
 -----
 Symbolic Z-matrix:
 Charge =  0 Multiplicity = 1

 SCF Done:  E(RHF) =  -301.673458529     A.U. after   15 cycles
 Normal termination of Gaussian 16 at Wed Apr  9 19:10:55 2025.
 Gaussian 16:  ES64L-G16RevC.01  3-Jul-2019

 ----------------------------------------------------------------------
 #t hf aug-cc-pvdz iop(5/13=1,5/36=2,99/5=2) pseudo=read geom=check gue
 ss=(read,tcheck) scf=(maxcycle=1)
 ----------------------------------------------------------------------
 -----
 title
 -----
 Structure from the checkpoint file:  "Grambow2020_wb97xd3_008853_forward_mol2.chk"
 Charge =  0 Multiplicity = 1

                         Standard orientation:
 ---------------------------------------------------------------------
 Center     Atomic      Atomic             Coordinates (Angstroms)
 Number     Number       Type             X           Y           Z
 ---------------------------------------------------------------------
      1          7           0        2.432340   -0.614444   -0.081963
      2          6           0        1.532837    0.096786   -0.032629
      3          6           0        0.400408    0.990281    0.030204
      4          6           0       -0.864738    0.690130   -0.671575
      5          6           0       -1.117792   -0.802605   -0.771641
      6          6           0       -0.980040   -0.814632    0.765052
      7          7           0       -0.796106    0.672048    0.820310
      8          1           0        0.679042    2.033430    0.113456
      9          1           0       -1.384086    1.469557   -1.215875
     10          1           0       -2.125899   -1.035933   -1.106690
     11          1           0       -0.399166   -1.378054   -1.355268
     12          1           0       -1.898134   -1.074899    1.286428
     13          1           0       -0.149445   -1.377083    1.193060
 ---------------------------------------------------------------------

 SCF Done:  E(RHF) =  -301.983927990     A.U. after    2 cycles

 The electronic state is 1-A.
 Alpha  occ. eigenvalues --  -15.53345 -15.52109 -11.31995 -11.30204 -11.28757
 Alpha  occ. eigenvalues --  -11.28150 -11.25900  -1.33877  -1.24256  -1.05419
 Alpha  occ. eigenvalues --   -0.97960  -0.92848  -0.78679  -0.75359  -0.72117
 Alpha  occ. eigenvalues --   -0.66382  -0.62420  -0.60435  -0.59242  -0.54166
 Alpha  occ. eigenvalues --   -0.52724  -0.51476  -0.50074  -0.48161  -0.42390
 Alpha virt. eigenvalues --    0.02958   0.03864   0.04045   0.04649   0.05742
 Alpha virt. eigenvalues --    0.07137   0.08148   0.08875   0.10085   0.11975
 Alpha virt. eigenvalues --    0.12734   0.13248   0.13694   0.14432   0.14657

 Mulliken charges:
               1
     1  N    1.016513
     2  C   -2.262958
     3  C    0.787445
     4  C    0.350746
     5  C   -0.003216
     6  C   -0.032792
     7  N    0.279571
     8  H   -0.147320
     9  H   -0.190530
    10  H    0.066218
    11  H    0.100404
    12  H   -0.031640
    13  H    0.067560
 Sum of Mulliken charges =  -0.00000

 Dipole moment (field-independent basis, Debye):
    X=             -3.4880    Y=              1.0431    Z=             -1.5187  Tot=              3.9447

 Test job not archived.
 1\1\GINC-SE014\SP\RHF\Aug-CC-pVDZ\C5H6N2\OHZDE\09-Apr-2025\0\\#t hf au
 g-cc-pvdz iop(5/13=1,5/36=2,99/5=2) pseudo=read geom=check guess=(read
 ,tcheck) scf=(maxcycle=1)\\title\\0,1\N,0,2.28037303,0.17528866,1.6850
 5484\C,0,1.76349859,0.25742035,0.66354554\C,0,1.11186995,0.36121032,-0
 .62069959\C,0,-0.03438755,-0.49870329,-0.98100929\C,0,-0.86670963,-0.8
 7224935,0.23142951\C,0,-0.99215274,0.6465344,0.47247532\N,0,-0.2171204
 3,0.96849692,-0.76960712\H,0,1.78252635,0.64505081,-1.42218633\H,0,-0.
 08837962,-0.95118192,-1.96378043\H,0,-1.81320439,-1.33655882,-0.036048

 Normal termination of Gaussian 16 at Wed Apr  9 19:10:59 2025.
