 Gaussian 16, Revision C.01,

 ----------------------------------------------------------------------
 #t hf aug-cc-pvdz symm=none int=(grid=ultrafine) guess=(read,tcheck) s
 table=(opt,rrhf)
 ----------------------------------------------------------------------
 -----
 title
 -----
 Symbolic Z-matrix:
 Charge =  0 Multiplicity = 1

 SCF Done:  E(RHF) =  -322.570872350     A.U. after   17 cycles
 Normal termination of Gaussian 16 at Wed Apr  9 17:32:40 2025.
 Gaussian 16:  ES64L-G16RevC.01  3-Jul-2019

 ----------------------------------------------------------------------
 #t hf aug-cc-pvdz iop(5/13=1,5/36=2,99/5=2) pseudo=read geom=check gue
 ss=(read,tcheck) scf=(maxcycle=1)
 ----------------------------------------------------------------------
 -----
 title
 -----
 Structure from the checkpoint file:  "Grambow2020_wb97xd3_006622_forward_mol1.chk"
 Charge =  0 Multiplicity = 1

                         Standard orientation:
 ---------------------------------------------------------------------
 Center     Atomic      Atomic             Coordinates (Angstroms)
 Number     Number       Type             X           Y           Z
 ---------------------------------------------------------------------
      1          8           0        1.499465    0.744769   -0.570080
      2          6           0        1.505083   -0.452202   -0.280668
      3          6           0        0.395233   -0.719874    0.717792
      4          6           0        0.032408    0.767719    0.816774
      5          6           0       -1.170640    1.022551    0.029349
      6          6           0       -1.350514   -0.326625   -0.710699
      7          7           0       -0.764036   -1.297458    0.164737
      8          1           0        2.146088   -1.162614   -0.815578
      9          1           0        0.732458   -1.223359    1.629887
     10          1           0        0.391688    1.456226    1.577703
     11          1           0       -1.088826    1.951129   -0.546393
     12          1           0       -2.013425    1.144774    0.718626
     13          1           0       -0.882609   -0.228678   -1.708190
     14          1           0       -2.402264   -0.562840   -0.883858
 ---------------------------------------------------------------------

 SCF Done:  E(RHF) =  -322.898353178     A.U. after    2 cycles

 The electronic state is 1-A.
 Alpha  occ. eigenvalues --  -20.59751 -15.40045 -11.37682 -11.36571 -11.28220
 Alpha  occ. eigenvalues --  -11.25440 -11.23359  -1.52648  -1.20887  -1.04611
 Alpha  occ. eigenvalues --   -1.00791  -0.88897  -0.81420  -0.78265  -0.73324
 Alpha  occ. eigenvalues --   -0.68436  -0.68104  -0.62901  -0.57778  -0.56465
 Alpha  occ. eigenvalues --   -0.54237  -0.52213  -0.51255  -0.46701  -0.38771
 Alpha  occ. eigenvalues --   -0.30589
 Alpha virt. eigenvalues --    0.02495   0.03692   0.04107   0.04604   0.04972
 Alpha virt. eigenvalues --    0.05273   0.06217   0.06883   0.08487   0.09811
 Alpha virt. eigenvalues --    0.11707   0.12474   0.13007   0.13179   0.13995

 Mulliken charges:
               1
     1  O   -1.093329
     2  C    1.240424
     3  C   -0.892058
     4  C    0.425885
     5  C   -0.329990
     6  C   -0.282768
     7  N    0.381029
     8  H    0.073508
     9  H   -0.026802
    10  H   -0.058474
    11  H    0.193375
    12  H    0.272747
    13  H    0.085660
    14  H    0.010793
 Sum of Mulliken charges =  -0.00000

 Dipole moment (field-independent basis, Debye):
    X=              2.3816    Y=              3.8522    Z=              1.5963  Tot=              4.8021

 Test job not archived.
 1\1\GINC-SE045\SP\RHF\Aug-CC-pVDZ\C5H7N1O1\OHZDE\09-Apr-2025\0\\#t hf
 aug-cc-pvdz iop(5/13=1,5/36=2,99/5=2) pseudo=read geom=check guess=(re
 ad,tcheck) scf=(maxcycle=1)\\title\\0,1\O,0,1.79025595,0.2944029,0.644
 76377\C,0,1.25862674,1.30585706,0.18556716\C,0,0.19922327,0.89015008,-
 0.81702365\C,0,0.56636093,-0.59445938,-0.69245338\C,0,-0.42086625,-1.2
 6483856,0.14913946\C,0,-1.23623597,-0.06379172,0.69039634\N,0,-1.12077
 787,0.9370236,-0.32837667\H,0,1.47469482,2.29809427,0.59846172\H,0,0.3
 1034903,1.36131306,-1.79926212\H,0,1.23797956,-1.13666381,-1.35357395\

 Normal termination of Gaussian 16 at Wed Apr  9 17:32:48 2025.
