 Gaussian 16, Revision C.01,

 ----------------------------------------------------------------------
 #t hf aug-cc-pvdz symm=none int=(grid=ultrafine) guess=(read,tcheck) s
 table=(opt,rrhf)
 ----------------------------------------------------------------------
 -----
 title
 -----
 Symbolic Z-matrix:
 Charge =  0 Multiplicity = 1

 SCF Done:  E(RHF) =  -283.498174352     A.U. after   16 cycles
 Normal termination of Gaussian 16 at Wed Apr  9 03:09:44 2025.
 Gaussian 16:  ES64L-G16RevC.01  3-Jul-2019

 ----------------------------------------------------------------------
 #t hf aug-cc-pvdz iop(5/13=1,5/36=2,99/5=2) pseudo=read geom=check gue
 ss=(read,tcheck) scf=(maxcycle=1)
 ----------------------------------------------------------------------
 -----
 title
 -----
 Structure from the checkpoint file:  "Grambow2020_b97d3_006667_reverse_mol1.chk"
 Charge =  0 Multiplicity = 1

                         Standard orientation:
 ---------------------------------------------------------------------
 Center     Atomic      Atomic             Coordinates (Angstroms)
 Number     Number       Type             X           Y           Z
 ---------------------------------------------------------------------
      1          7           0        1.859781   -1.139295    0.097277
      2          6           0        1.795954    0.073520    0.062130
      3          6           0        1.155743    1.264832   -0.059034
      4          6           0       -0.664358   -0.372476   -0.157671
      5          6           0       -1.806253    0.037809    0.714057
      6          8           0       -1.810083   -0.097258   -0.758928
      7          1           0        1.196514    1.792098   -1.012461
      8          1           0        0.975015    1.867710    0.831666
      9          1           0        0.695112   -1.280025   -0.074792
     10          1           0       -2.405315   -0.716100    1.225951
     11          1           0       -1.885645    1.067338    1.063228
 ---------------------------------------------------------------------

 SCF Done:  E(RHF) =  -283.782500686     A.U. after    2 cycles

 The electronic state is 1-A.
 Alpha  occ. eigenvalues --  -20.63599 -15.51350 -11.35977 -11.32968 -11.31669
 Alpha  occ. eigenvalues --  -11.26101  -1.57595  -1.24690  -1.01261  -0.96508
 Alpha  occ. eigenvalues --   -0.84150  -0.72879  -0.70755  -0.69809  -0.65176
 Alpha  occ. eigenvalues --   -0.63008  -0.59940  -0.52869  -0.52645  -0.48685
 Alpha  occ. eigenvalues --   -0.41535  -0.36798
 Alpha virt. eigenvalues --    0.03023   0.03956   0.04717   0.05068   0.06542
 Alpha virt. eigenvalues --    0.08108   0.08627   0.10310   0.10617   0.11154
 Alpha virt. eigenvalues --    0.12326   0.13579   0.13992   0.14478   0.15184

 Mulliken charges:
               1
     1  N    0.777899
     2  C   -1.317793
     3  C    0.162532
     4  C    0.389452
     5  C    0.390427
     6  O   -1.102771
     7  H    0.038872
     8  H    0.026507
     9  H    0.519818
    10  H    0.054976
    11  H    0.060082
 Sum of Mulliken charges =  -0.00000

 Dipole moment (field-independent basis, Debye):
    X=             -3.0207    Y=              2.5640    Z=              1.4005  Tot=              4.2024

 Test job not archived.
 1\1\GINC-SE227\SP\RHF\Aug-CC-pVDZ\C4H5N1O1\OHZDE\09-Apr-2025\0\\#t hf
 aug-cc-pvdz iop(5/13=1,5/36=2,99/5=2) pseudo=read geom=check guess=(re
 ad,tcheck) scf=(maxcycle=1)\\title\\0,1\N,0,1.99944978,0.34165645,1.24
 163015\C,0,1.82007708,-0.42538655,0.31659022\C,0,1.06409608,-1.1100928
 8,-0.5797612\C,0,-0.57607415,0.25686043,0.62213496\C,0,-1.52506536,0.9
 1667558,-0.32455792\O,0,-1.84768308,-0.0991025,0.70113892\H,0,0.841713
 01,-2.16050413,-0.39034573\H,0,1.03451105,-0.77824069,-1.6182544\H,0,0
 .8435054,0.56993442,1.37410025\H,0,-1.92312221,1.90734793,-0.10227672\

 Normal termination of Gaussian 16 at Wed Apr  9 03:09:47 2025.
