 Gaussian 16, Revision C.01,

 ----------------------------------------------------------------------
 #t hf aug-cc-pvdz symm=none int=(grid=ultrafine) guess=(read,tcheck) s
 table=(opt,rrhf)
 ----------------------------------------------------------------------
 -----
 title
 -----
 Symbolic Z-matrix:
 Charge =  0 Multiplicity = 1

 SCF Done:  E(RHF) =  -360.787196244     A.U. after   15 cycles
 Normal termination of Gaussian 16 at Wed Apr  9 17:30:41 2025.
 Gaussian 16:  ES64L-G16RevC.01  3-Jul-2019

 ----------------------------------------------------------------------
 #t hf aug-cc-pvdz iop(5/13=1,5/36=2,99/5=2) pseudo=read geom=check gue
 ss=(read,tcheck) scf=(maxcycle=1)
 ----------------------------------------------------------------------
 -----
 title
 -----
 Structure from the checkpoint file:  "Grambow2020_wb97xd3_006618_forward_mol1.chk"
 Charge =  0 Multiplicity = 1

                         Standard orientation:
 ---------------------------------------------------------------------
 Center     Atomic      Atomic             Coordinates (Angstroms)
 Number     Number       Type             X           Y           Z
 ---------------------------------------------------------------------
      1          6           0        1.738401   -0.986340    0.275526
      2          6           0        1.255951    0.205859   -0.427805
      3          8           0       -0.762355   -0.962013   -1.023027
      4          6           0        0.716614    1.373111    0.250904
      5          7           0       -0.637021    1.213847   -0.276840
      6          6           0       -1.322434   -0.059277    0.086685
      7          8           0       -1.074817   -0.481466    1.250016
      8          1           0        2.693411   -0.686656    0.735064
      9          1           0        1.900394   -1.834426   -0.383374
     10          1           0        1.042322   -1.229042    1.081846
     11          1           0        1.411340    0.290830   -1.497564
     12          1           0       -0.941816   -1.852633   -0.702467
     13          1           0        0.700505    1.283929    1.334148
     14          1           0        1.134077    2.323789   -0.077532
     15          1           0       -0.736796    1.457698   -1.254908
     16          1           0       -2.378106    0.097296   -0.225116
 ---------------------------------------------------------------------

 SCF Done:  E(RHF) =  -361.159061108     A.U. after    2 cycles

 The electronic state is 1-A.
 Alpha  occ. eigenvalues --  -20.51562 -20.41230 -15.51053 -11.39260 -11.32681
 Alpha  occ. eigenvalues --  -11.30084 -11.27029  -1.42555  -1.33466  -1.23143
 Alpha  occ. eigenvalues --   -1.10376  -0.98038  -0.85824  -0.81369  -0.73427
 Alpha  occ. eigenvalues --   -0.69635  -0.66998  -0.64297  -0.61645  -0.60284
 Alpha  occ. eigenvalues --   -0.58031  -0.57420  -0.55967  -0.51813  -0.44316
 Alpha  occ. eigenvalues --   -0.42257  -0.35460  -0.33750
 Alpha virt. eigenvalues --    0.01569   0.02335   0.03198   0.03570   0.05196
 Alpha virt. eigenvalues --    0.05864   0.06541   0.06703   0.07598   0.08665
 Alpha virt. eigenvalues --    0.11222   0.11613   0.12880   0.13650   0.13923

 Mulliken charges:
               1
     1  C   -0.403531
     2  C    0.270169
     3  O   -1.176333
     4  C   -0.038958
     5  N    0.364617
     6  C    1.232129
     7  O   -1.476278
     8  H    0.298098
     9  H    0.180326
    10  H    0.224400
    11  H   -0.167374
    12  H    0.277482
    13  H    0.045340
    14  H    0.075619
    15  H    0.215768
    16  H    0.078526
 Sum of Mulliken charges =   0.00000

 Dipole moment (field-independent basis, Debye):
    X=              6.4794    Y=              1.2947    Z=             -3.2804  Tot=              7.3769

 Test job not archived.
 1\1\GINC-SE173\SP\RHF\Aug-CC-pVDZ\C4H9N1O2\OHZDE\09-Apr-2025\0\\#t hf
 aug-cc-pvdz iop(5/13=1,5/36=2,99/5=2) pseudo=read geom=check guess=(re
 ad,tcheck) scf=(maxcycle=1)\\title\\0,1\C,0,-1.72341582,-0.31388118,-0
 .34086155\C,0,-0.45138259,-0.94740143,0.01879953\O,0,0.70603169,0.5105
 5535,-1.50649582\C,0,0.25607836,-0.67622673,1.25975557\N,0,1.40744053,
 -0.04707157,0.61575459\C,0,1.10805762,1.1765081,-0.18174585\O,0,0.2075
 4147,1.91720914,0.30129705\H,0,-2.47718604,-0.78445455,0.30984563\H,0,
 -1.99531484,-0.46292672,-1.38177324\H,0,-1.67702496,0.74696629,-0.0838

 Normal termination of Gaussian 16 at Wed Apr  9 17:30:47 2025.
