 Gaussian 16, Revision C.01,

 ----------------------------------------------------------------------
 #t hf aug-cc-pvdz symm=none int=(grid=ultrafine) guess=(read,tcheck) s
 table=(opt,rrhf)
 ----------------------------------------------------------------------
 -----
 title
 -----
 Symbolic Z-matrix:
 Charge =  0 Multiplicity = 1

 SCF Done:  E(RHF) =  -323.704216262     A.U. after   15 cycles
 Normal termination of Gaussian 16 at Wed Apr  9 17:53:04 2025.
 Gaussian 16:  ES64L-G16RevC.01  3-Jul-2019

 ----------------------------------------------------------------------
 #t hf aug-cc-pvdz iop(5/13=1,5/36=2,99/5=2) pseudo=read geom=check gue
 ss=(read,tcheck) scf=(maxcycle=1)
 ----------------------------------------------------------------------
 -----
 title
 -----
 Structure from the checkpoint file:  "Grambow2020_wb97xd3_006864_forward_mol1.chk"
 Charge =  0 Multiplicity = 1

                         Standard orientation:
 ---------------------------------------------------------------------
 Center     Atomic      Atomic             Coordinates (Angstroms)
 Number     Number       Type             X           Y           Z
 ---------------------------------------------------------------------
      1          6           0        2.220087   -0.811261   -0.559523
      2          7           0        1.195338    0.205428   -0.418315
      3          6           0        1.228395    1.038303    0.743239
      4          6           0        0.180045   -0.038245    0.568375
      5          6           0       -1.504322   -0.216391   -0.063396
      6          8           0       -2.042916   -1.195318    0.363482
      7          6           0       -1.796854    0.986741   -0.676535
      8          1           0        3.088193   -0.374641   -1.053986
      9          1           0        1.834959   -1.619257   -1.181390
     10          1           0        2.535506   -1.230886    0.406239
     11          1           0        1.973085    0.840503    1.511186
     12          1           0        0.974839    2.082842    0.595505
     13          1           0        0.265200   -0.893855    1.231659
     14          1           0       -2.803101    1.193505   -1.021369
     15          1           0       -0.884652    0.846819    0.586128
     16          1           0       -0.972177    1.524634   -1.126581
 ---------------------------------------------------------------------

 SCF Done:  E(RHF) =  -324.046311635     A.U. after    2 cycles

 The electronic state is 1-A.
 Alpha  occ. eigenvalues --  -20.51837 -15.53253 -11.36812 -11.30145 -11.30001
 Alpha  occ. eigenvalues --  -11.27607 -11.24423  -1.47085  -1.32046  -1.08104
 Alpha  occ. eigenvalues --   -1.02318  -0.88813  -0.86574  -0.76200  -0.72258
 Alpha  occ. eigenvalues --   -0.69716  -0.65674  -0.64104  -0.61887  -0.59001
 Alpha  occ. eigenvalues --   -0.58103  -0.54344  -0.52888  -0.50750  -0.46504
 Alpha  occ. eigenvalues --   -0.39286  -0.33833
 Alpha virt. eigenvalues --    0.02986   0.03954   0.04116   0.04626   0.05382
 Alpha virt. eigenvalues --    0.05944   0.06550   0.06641   0.07985   0.10163
 Alpha virt. eigenvalues --    0.11264   0.12376   0.12539   0.13913   0.14335

 Mulliken charges:
               1
     1  C   -0.321789
     2  N    0.788269
     3  C    0.083111
     4  C   -1.015197
     5  C    0.904017
     6  O   -1.352390
     7  C   -0.098463
     8  H    0.071195
     9  H    0.099048
    10  H    0.154281
    11  H   -0.094329
    12  H   -0.082203
    13  H   -0.275956
    14  H   -0.071320
    15  H    1.076619
    16  H    0.135107
 Sum of Mulliken charges =  -0.00000

 Dipole moment (field-independent basis, Debye):
    X=              3.6985    Y=              2.1200    Z=              0.7458  Tot=              4.3277

 Test job not archived.
 1\1\GINC-SE454\SP\RHF\Aug-CC-pVDZ\C5H9N1O1\OHZDE\09-Apr-2025\0\\#t hf
 aug-cc-pvdz iop(5/13=1,5/36=2,99/5=2) pseudo=read geom=check guess=(re
 ad,tcheck) scf=(maxcycle=1)\\title\\0,1\C,0,1.20328985,-0.06931468,-1.
 86522253\N,0,0.74960325,0.31333916,-0.54179865\C,0,1.25904932,-0.41115
 236,0.58050157\C,0,-0.16751911,-0.58208083,0.10694233\C,0,-1.81124738,
 0.08769028,0.44976135\O,0,-2.68100912,-0.64185575,0.07308794\C,0,-1.60
 298436,1.15932911,1.29667234\H,0,2.12200902,0.4705752,-2.09590084\H,0,
 0.44324013,0.2090224,-2.59512065\H,0,1.39462296,-1.14832849,-1.9512010

 Normal termination of Gaussian 16 at Wed Apr  9 17:53:10 2025.
