 Gaussian 16, Revision C.01,

 ----------------------------------------------------------------------
 #t hf aug-cc-pvdz symm=none int=(grid=ultrafine) guess=(read,tcheck) s
 table=(opt,rrhf)
 ----------------------------------------------------------------------
 -----
 title
 -----
 Symbolic Z-matrix:
 Charge =  0 Multiplicity = 1

 SCF Done:  E(RHF) =  -338.559312778     A.U. after   15 cycles
 Normal termination of Gaussian 16 at Wed Apr  9 03:40:23 2025.
 Gaussian 16:  ES64L-G16RevC.01  3-Jul-2019

 ----------------------------------------------------------------------
 #t hf aug-cc-pvdz iop(5/13=1,5/36=2,99/5=2) pseudo=read geom=check gue
 ss=(read,tcheck) scf=(maxcycle=1)
 ----------------------------------------------------------------------
 -----
 title
 -----
 Structure from the checkpoint file:  "Grambow2020_wb97xd3_007483_reverse_mol1.chk"
 Charge =  0 Multiplicity = 1

                         Standard orientation:
 ---------------------------------------------------------------------
 Center     Atomic      Atomic             Coordinates (Angstroms)
 Number     Number       Type             X           Y           Z
 ---------------------------------------------------------------------
      1          6           0       -1.287715   -0.104786    0.951277
      2          8           0       -1.731473    0.140860   -0.447628
      3          6           0       -0.393750    0.144237   -0.558406
      4          6           0        0.532126    1.191501   -0.276509
      5          7           0        1.579692    0.648548    0.283623
      6          6           0        1.317011   -0.703849    0.336027
      7          7           0        0.365543   -1.001933   -0.682253
      8          1           0       -1.536599    0.759813    1.556143
      9          1           0        0.156500   -0.525638    1.236733
     10          1           0       -1.734886   -1.041126    1.277856
     11          1           0        0.347406    2.255016   -0.319610
     12          1           0        2.134754   -1.389582    0.519085
     13          1           0       -0.138059   -1.874286   -0.613105
 ---------------------------------------------------------------------

 SCF Done:  E(RHF) =  -338.905665174     A.U. after    2 cycles

 The electronic state is 1-A.
 Alpha  occ. eigenvalues --  -20.60018 -15.54137 -15.52017 -11.37276 -11.31138
 Alpha  occ. eigenvalues --  -11.30013 -11.27828  -1.53900  -1.34753  -1.19802
 Alpha  occ. eigenvalues --   -1.00463  -0.93654  -0.88029  -0.82451  -0.76943
 Alpha  occ. eigenvalues --   -0.71157  -0.69011  -0.64843  -0.62508  -0.62128
 Alpha  occ. eigenvalues --   -0.59883  -0.51915  -0.48144  -0.46849  -0.41444
 Alpha  occ. eigenvalues --   -0.34694
 Alpha virt. eigenvalues --    0.03239   0.04224   0.04253   0.05134   0.06279
 Alpha virt. eigenvalues --    0.06934   0.07896   0.09472   0.09580   0.10953
 Alpha virt. eigenvalues --    0.12823   0.13156   0.13621   0.14466   0.14720

 Mulliken charges:
               1
     1  C    0.168675
     2  O   -1.470702
     3  C    0.168742
     4  C   -0.199925
     5  N    0.726078
     6  C   -1.020585
     7  N    0.727401
     8  H   -0.004488
     9  H    0.871872
    10  H   -0.093293
    11  H   -0.052845
    12  H   -0.130128
    13  H    0.309197
 Sum of Mulliken charges =  -0.00000

 Dipole moment (field-independent basis, Debye):
    X=             -1.8103    Y=             -1.4666    Z=              0.7488  Tot=              2.4472

 Test job not archived.
 1\1\GINC-SE459\SP\RHF\Aug-CC-pVDZ\C4H6N2O1\OHZDE\09-Apr-2025\0\\#t hf
 aug-cc-pvdz iop(5/13=1,5/36=2,99/5=2) pseudo=read geom=check guess=(re
 ad,tcheck) scf=(maxcycle=1)\\title\\0,1\C,0,-1.32635826,0.41510929,-0.
 28892453\O,0,-0.89042847,-0.17619139,-1.58295951\C,0,0.23061149,-0.221
 86394,-0.8460957\C,0,1.17561591,0.8114527,-0.57646545\N,0,1.5439226,0.
 69034092,0.6707803\C,0,0.85528162,-0.39924305,1.15996716\N,0,0.5129324
 1,-1.2299327,0.05371557\H,0,-1.54004001,1.46755002,-0.43740488\H,0,-0.
 46292396,0.2439567,0.96389122\H,0,-2.16077133,-0.17823941,0.07855241\H

 Normal termination of Gaussian 16 at Wed Apr  9 03:40:28 2025.
