 Gaussian 16, Revision C.01,

 ----------------------------------------------------------------------
 #t hf aug-cc-pvdz symm=none int=(grid=ultrafine) guess=(read,tcheck) s
 table=(opt,rrhf)
 ----------------------------------------------------------------------
 -----
 title
 -----
 Symbolic Z-matrix:
 Charge =  0 Multiplicity = 1

 SCF Done:  E(RHF) =  -343.598019603     A.U. after   16 cycles
 Normal termination of Gaussian 16 at Wed Apr  9 17:56:41 2025.
 Gaussian 16:  ES64L-G16RevC.01  3-Jul-2019

 ----------------------------------------------------------------------
 #t hf aug-cc-pvdz iop(5/13=1,5/36=2,99/5=2) pseudo=read geom=check gue
 ss=(read,tcheck) scf=(maxcycle=1)
 ----------------------------------------------------------------------
 -----
 title
 -----
 Structure from the checkpoint file:  "Grambow2020_wb97xd3_006886_forward_mol1.chk"
 Charge =  0 Multiplicity = 1

                         Standard orientation:
 ---------------------------------------------------------------------
 Center     Atomic      Atomic             Coordinates (Angstroms)
 Number     Number       Type             X           Y           Z
 ---------------------------------------------------------------------
      1          6           0        0.196707    1.306195   -1.157110
      2          6           0        0.296894    0.620820    0.160309
      3          6           0        0.833404    1.078986    1.276366
      4          6           0        2.473818   -1.277336   -0.493955
      5          8           0       -0.159807   -0.712179    0.165663
      6          6           0       -1.479544   -0.935969    0.067068
      7          8           0       -2.330029   -0.102223    0.034735
      8          1           0       -0.847168    1.413423   -1.453750
      9          1           0        0.721643    0.719903   -1.913382
     10          1           0        0.650681    2.293706   -1.099178
     11          1           0        1.264695    2.069437    1.305437
     12          1           0        0.851567    0.477683    2.175453
     13          1           0        2.966880   -0.943608    0.440794
     14          1           0        2.035943   -2.252293   -0.203707
     15          1           0       -1.653235   -2.019208    0.029071
 ---------------------------------------------------------------------

 SCF Done:  E(RHF) =  -343.942449938     A.U. after    2 cycles

 The electronic state is 1-A.
 Alpha  occ. eigenvalues --  -20.61250 -20.55476 -11.40577 -11.31973 -11.29614
 Alpha  occ. eigenvalues --  -11.24111 -11.23812  -1.57018  -1.47869  -1.09175
 Alpha  occ. eigenvalues --   -0.96668  -0.90587  -0.88655  -0.75805  -0.73972
 Alpha  occ. eigenvalues --   -0.69090  -0.67938  -0.62790  -0.59418  -0.58433
 Alpha  occ. eigenvalues --   -0.56420  -0.55104  -0.54135  -0.47921  -0.46588
 Alpha  occ. eigenvalues --   -0.39328  -0.38238
 Alpha virt. eigenvalues --    0.02874   0.03685   0.03845   0.04404   0.05806
 Alpha virt. eigenvalues --    0.06669   0.06860   0.07398   0.07629   0.10044
 Alpha virt. eigenvalues --    0.11392   0.12111   0.12511   0.13911   0.14255

 Mulliken charges:
               1
     1  C   -0.629069
     2  C    1.320231
     3  C    0.127028
     4  C   -0.390942
     5  O   -1.392068
     6  C    1.177077
     7  O   -0.987213
     8  H    0.209269
     9  H    0.274031
    10  H    0.115466
    11  H   -0.094779
    12  H   -0.169074
    13  H    0.193670
    14  H    0.179302
    15  H    0.067070
 Sum of Mulliken charges =  -0.00000

 Dipole moment (field-independent basis, Debye):
    X=              1.4886    Y=             -1.1223    Z=              1.1854  Tot=              2.2092

 Test job not archived.
 1\1\GINC-SE112\SP\RHF\Aug-CC-pVDZ\C5H8O2\OHZDE\09-Apr-2025\0\\#t hf au
 g-cc-pvdz iop(5/13=1,5/36=2,99/5=2) pseudo=read geom=check guess=(read
 ,tcheck) scf=(maxcycle=1)\\title\\0,1\C,0,-0.2714567,1.51192331,-0.573
 16796\C,0,-0.18800832,0.02683106,-0.51925117\C,0,-1.01039686,-0.853780
 57,-1.05919857\C,0,-1.08019265,-0.36424046,2.27737621\O,0,0.85082033,-
 0.4745381,0.29004102\C,0,2.11544791,-0.34590629,-0.1408664\O,0,2.45459
 218,0.10590272,-1.18984303\H,0,0.6182688,1.9277668,-1.04711961\H,0,-0.
 35163782,1.90910735,0.44027125\H,0,-1.14887623,1.81572691,-1.14102909\

 Normal termination of Gaussian 16 at Wed Apr  9 17:56:46 2025.
