 Gaussian 16, Revision C.01,

 ----------------------------------------------------------------------
 #t hf aug-cc-pvdz symm=none int=(grid=ultrafine) guess=(read,tcheck) s
 table=(opt,rrhf)
 ----------------------------------------------------------------------
 -----
 title
 -----
 Symbolic Z-matrix:
 Charge =  0 Multiplicity = 1

 SCF Done:  E(RHF) =  -323.741458467     A.U. after   16 cycles
 Normal termination of Gaussian 16 at Wed Apr  9 18:05:51 2025.
 Gaussian 16:  ES64L-G16RevC.01  3-Jul-2019

 ----------------------------------------------------------------------
 #t hf aug-cc-pvdz iop(5/13=1,5/36=2,99/5=2) pseudo=read geom=check gue
 ss=(read,tcheck) scf=(maxcycle=1)
 ----------------------------------------------------------------------
 -----
 title
 -----
 Structure from the checkpoint file:  "Grambow2020_wb97xd3_006971_forward_mol1.chk"
 Charge =  0 Multiplicity = 1

                         Standard orientation:
 ---------------------------------------------------------------------
 Center     Atomic      Atomic             Coordinates (Angstroms)
 Number     Number       Type             X           Y           Z
 ---------------------------------------------------------------------
      1          6           0        2.432043   -0.878804   -0.062920
      2          6           0        0.927913   -0.818218    0.165894
      3          6           0        0.413121    0.595156    0.419579
      4          8           0        0.680939    1.461642   -0.687352
      5          6           0       -1.055727    0.652729    0.695447
      6          6           0       -1.931560   -0.247308    0.133934
      7          7           0       -2.685811   -0.943790   -0.488606
      8          1           0        2.978649   -0.427262    0.769822
      9          1           0        2.770191   -1.911330   -0.156048
     10          1           0        2.723842   -0.365157   -0.982141
     11          1           0        0.659419   -1.435219    1.027851
     12          1           0        0.405566   -1.236310   -0.699967
     13          1           0        0.919357    0.997074    1.308725
     14          1           0        1.631370    1.571319   -0.770832
     15          1           0       -1.961750    0.375819   -0.858298
     16          1           0       -1.488226    1.523127    1.168327
 ---------------------------------------------------------------------

 SCF Done:  E(RHF) =  -324.077795362     A.U. after    2 cycles

 The electronic state is 1-A.
 Alpha  occ. eigenvalues --  -20.55442 -15.54809 -11.32961 -11.30791 -11.26081
 Alpha  occ. eigenvalues --  -11.23964 -11.23788  -1.45692  -1.28023  -1.09263
 Alpha  occ. eigenvalues --   -1.03208  -0.92035  -0.83376  -0.72512  -0.71168
 Alpha  occ. eigenvalues --   -0.66754  -0.64713  -0.63812  -0.62023  -0.59454
 Alpha  occ. eigenvalues --   -0.54814  -0.53583  -0.52385  -0.50061  -0.49126
 Alpha  occ. eigenvalues --   -0.44541  -0.32701
 Alpha virt. eigenvalues --    0.03154   0.03266   0.03766   0.04022   0.05621
 Alpha virt. eigenvalues --    0.06653   0.06975   0.07485   0.08494   0.08971
 Alpha virt. eigenvalues --    0.10298   0.12065   0.12808   0.12949   0.14047

 Mulliken charges:
               1
     1  C   -0.408923
     2  C   -0.316160
     3  C    0.584082
     4  O   -1.248152
     5  C    1.165043
     6  C   -2.466220
     7  N    0.918148
     8  H    0.180965
     9  H    0.118993
    10  H    0.151300
    11  H    0.175917
    12  H    0.197451
    13  H    0.115464
    14  H    0.290438
    15  H    0.645812
    16  H   -0.104157
 Sum of Mulliken charges =   0.00000

 Dipole moment (field-independent basis, Debye):
    X=              3.4446    Y=              1.7261    Z=              1.3493  Tot=              4.0823

 Test job not archived.
 1\1\GINC-SE030\SP\RHF\Aug-CC-pVDZ\C5H9N1O1\OHZDE\09-Apr-2025\0\\#t hf
 aug-cc-pvdz iop(5/13=1,5/36=2,99/5=2) pseudo=read geom=check guess=(re
 ad,tcheck) scf=(maxcycle=1)\\title\\0,1\C,0,2.1406373,-0.03334729,-0.0
 0302495\C,0,0.7296537,0.47287979,0.26398321\C,0,-0.31054536,-0.1117586
 1,-0.686374\O,0,-0.37541532,-1.53779378,-0.58619491\C,0,-1.6893575,0.4
 2185229,-0.46039197\C,0,-2.11953425,0.80468956,0.78894017\N,0,-2.51702
 887,0.98298275,1.90775561\H,0,2.43845731,0.1496822,-1.03933103\H,0,2.8
 6300291,0.47054825,0.63994074\H,0,2.23206982,-1.10401849,0.19509095\H,

 Normal termination of Gaussian 16 at Wed Apr  9 18:05:57 2025.
