 Gaussian 16, Revision C.01,

 ----------------------------------------------------------------------
 #t hf aug-cc-pvdz symm=none int=(grid=ultrafine) guess=(read,tcheck) s
 table=(opt,rrhf)
 ----------------------------------------------------------------------
 -----
 title
 -----
 Symbolic Z-matrix:
 Charge =  0 Multiplicity = 1

 SCF Done:  E(RHF) =  -264.889448117     A.U. after   17 cycles
 Normal termination of Gaussian 16 at Wed Apr  9 15:50:59 2025.
 Gaussian 16:  ES64L-G16RevC.01  3-Jul-2019

 ----------------------------------------------------------------------
 #t hf aug-cc-pvdz iop(5/13=1,5/36=2,99/5=2) pseudo=read geom=check gue
 ss=(read,tcheck) scf=(maxcycle=1)
 ----------------------------------------------------------------------
 -----
 title
 -----
 Structure from the checkpoint file:  "Grambow2020_b97d3_006847_forward_mol1.chk"
 Charge =  0 Multiplicity = 1

                         Standard orientation:
 ---------------------------------------------------------------------
 Center     Atomic      Atomic             Coordinates (Angstroms)
 Number     Number       Type             X           Y           Z
 ---------------------------------------------------------------------
      1          6           0       -2.317308   -0.409783   -0.071290
      2          7           0       -0.941495   -0.744871    0.261165
      3          6           0        0.068551   -0.191239   -0.450581
      4          6           0        0.309770    2.081444    0.120725
      5          6           0        1.400136   -0.554190   -0.114167
      6          7           0        2.510571   -0.891707    0.085948
      7          1           0       -2.583996    0.602282    0.282043
      8          1           0       -2.997330   -1.137044    0.388656
      9          1           0       -2.435624   -0.442890   -1.160120
     10          1           0       -0.777281   -1.019523    1.230892
     11          1           0       -0.035005    0.916386   -0.834876
     12          1           0        1.335671    2.334823   -0.155310
     13          1           0       -0.443373    2.771599   -0.274293
     14          1           0        0.186518    1.873017    1.185091
 ---------------------------------------------------------------------

 SCF Done:  E(RHF) =  -265.163126640     A.U. after    2 cycles

 The electronic state is 1-A.
 Alpha  occ. eigenvalues --  -15.55222 -15.51861 -11.32661 -11.29150 -11.28798
 Alpha  occ. eigenvalues --  -11.26451  -1.27531  -1.21501  -1.02877  -0.95156
 Alpha  occ. eigenvalues --   -0.89993  -0.79916  -0.69475  -0.67141  -0.62587
 Alpha  occ. eigenvalues --   -0.59706  -0.58608  -0.58275  -0.57927  -0.53032
 Alpha  occ. eigenvalues --   -0.49296  -0.46910  -0.31200
 Alpha virt. eigenvalues --    0.02705   0.02814   0.03800   0.04608   0.04909
 Alpha virt. eigenvalues --    0.06125   0.06421   0.07617   0.08690   0.09666
 Alpha virt. eigenvalues --    0.10302   0.12732   0.13801   0.14402   0.14883

 Mulliken charges:
               1
     1  C   -0.379092
     2  N    0.662990
     3  C   -0.250510
     4  C   -0.607120
     5  C   -1.716879
     6  N    0.894955
     7  H    0.185531
     8  H    0.038375
     9  H    0.156408
    10  H    0.116214
    11  H    0.598122
    12  H    0.103352
    13  H    0.019914
    14  H    0.177742
 Sum of Mulliken charges =   0.00000

 Dipole moment (field-independent basis, Debye):
    X=             -5.5307    Y=              2.0220    Z=              0.7473  Tot=              5.9360

 Test job not archived.
 1\1\GINC-SE141\SP\RHF\Aug-CC-pVDZ\C4H8N2\OHZDE\09-Apr-2025\0\\#t hf au
 g-cc-pvdz iop(5/13=1,5/36=2,99/5=2) pseudo=read geom=check guess=(read
 ,tcheck) scf=(maxcycle=1)\\title\\0,1\C,0,1.90751642,-0.47450967,0.352
 67393\N,0,0.83163146,0.39653302,0.79924493\C,0,-0.02955282,0.91005571,
 -0.1106667\C,0,-1.4881809,-0.77106925,-0.8826053\C,0,-1.05725611,1.773
 19952,0.3549902\N,0,-1.87187995,2.55273815,0.69519177\H,0,1.53276488,-
 1.48138182,0.09574549\H,0,2.66152058,-0.56750443,1.14369707\H,0,2.3706
 1744,-0.03553534,-0.53810392\H,0,0.51509124,0.24875957,1.7587953\H,0,-

 Normal termination of Gaussian 16 at Wed Apr  9 15:51:03 2025.
