 Gaussian 16, Revision C.01,

 ----------------------------------------------------------------------
 #t hf aug-cc-pvdz symm=none int=(grid=ultrafine) guess=(read,tcheck) s
 table=(opt,rrhf)
 ----------------------------------------------------------------------
 -----
 title
 -----
 Symbolic Z-matrix:
 Charge =  0 Multiplicity = 1

 SCF Done:  E(RHF) =  -279.767415573     A.U. after   16 cycles
 Normal termination of Gaussian 16 at Wed Apr  9 15:58:41 2025.
 Gaussian 16:  ES64L-G16RevC.01  3-Jul-2019

 ----------------------------------------------------------------------
 #t hf aug-cc-pvdz iop(5/13=1,5/36=2,99/5=2) pseudo=read geom=check gue
 ss=(read,tcheck) scf=(maxcycle=1)
 ----------------------------------------------------------------------
 -----
 title
 -----
 Structure from the checkpoint file:  "Grambow2020_b97d3_007061_reverse_mol2.chk"
 Charge =  0 Multiplicity = 1

                         Standard orientation:
 ---------------------------------------------------------------------
 Center     Atomic      Atomic             Coordinates (Angstroms)
 Number     Number       Type             X           Y           Z
 ---------------------------------------------------------------------
      1          7           0        2.394350    0.612594   -0.232153
      2          6           0        1.517408   -0.235918    0.451181
      3          6           0        0.370746   -0.725313   -0.002894
      4          6           0       -0.904585   -0.977809   -0.253605
      5          7           0       -1.999409   -0.111265    0.082947
      6          7           0       -1.741613    1.118329    0.005784
      7          1           0        2.165879    0.730988   -1.216800
      8          1           0        3.379327    0.387931   -0.104076
      9          1           0        1.839753   -0.482771    1.467355
     10          1           0       -1.251536   -1.937163   -0.647143
     11          1           0       -2.608138    1.597646    0.336519
 ---------------------------------------------------------------------

 SCF Done:  E(RHF) =  -280.047807130     A.U. after    2 cycles

 The electronic state is 1-A.
 Alpha  occ. eigenvalues --  -15.57540 -15.56172 -15.52329 -11.30564 -11.27768
 Alpha  occ. eigenvalues --  -11.25216  -1.35168  -1.22188  -1.07876  -0.99245
 Alpha  occ. eigenvalues --   -0.88707  -0.77785  -0.74514  -0.71337  -0.67981
 Alpha  occ. eigenvalues --   -0.63534  -0.61976  -0.55640  -0.53503  -0.45239
 Alpha  occ. eigenvalues --   -0.37983  -0.35730
 Alpha virt. eigenvalues --    0.02862   0.04282   0.04643   0.05194   0.05585
 Alpha virt. eigenvalues --    0.06801   0.09422   0.10441   0.11363   0.11518
 Alpha virt. eigenvalues --    0.13291   0.14309   0.15302   0.15975   0.16498

 Mulliken charges:
               1
     1  N    0.402674
     2  C   -0.377895
     3  C    0.191268
     4  C   -0.475838
     5  N   -0.229997
     6  N    0.255467
     7  H    0.045048
     8  H    0.156445
     9  H   -0.097829
    10  H   -0.004240
    11  H    0.134898
 Sum of Mulliken charges =  -0.00000

 Dipole moment (field-independent basis, Debye):
    X=              2.0198    Y=             -0.4813    Z=             -0.1372  Tot=              2.0808

 Test job not archived.
 1\1\GINC-SE174\SP\RHF\Aug-CC-pVDZ\C3H5N3\OHZDE\09-Apr-2025\0\\#t hf au
 g-cc-pvdz iop(5/13=1,5/36=2,99/5=2) pseudo=read geom=check guess=(read
 ,tcheck) scf=(maxcycle=1)\\title\\0,1\N,0,-2.08236231,-0.72205793,0.10
 47498\C,0,-0.90831255,-0.71961508,-0.65521546\C,0,0.33180154,-0.594399
 16,-0.20028282\C,0,1.53589373,-0.1561649,0.13317407\N,0,1.93529312,1.2
 2323953,0.15618022\N,0,1.03163667,2.02810883,0.50245164\H,0,-1.9206183
 4,-0.77015556,1.10837955\H,0,-2.77266264,-1.40886925,-0.19329843\H,0,-
 1.07618955,-0.81603092,-1.73223533\H,0,2.37969462,-0.82686013,0.316951

 Normal termination of Gaussian 16 at Wed Apr  9 15:58:44 2025.
