 Gaussian 16, Revision C.01,

 ----------------------------------------------------------------------
 #t hf aug-cc-pvdz symm=none int=(grid=ultrafine) guess=(read,tcheck) s
 table=(opt,rrhf)
 ----------------------------------------------------------------------
 -----
 title
 -----
 Symbolic Z-matrix:
 Charge =  0 Multiplicity = 1

 SCF Done:  E(RHF) =  -302.854741418     A.U. after   15 cycles
 Normal termination of Gaussian 16 at Wed Apr  9 19:10:58 2025.
 Gaussian 16:  ES64L-G16RevC.01  3-Jul-2019

 ----------------------------------------------------------------------
 #t hf aug-cc-pvdz iop(5/13=1,5/36=2,99/5=2) pseudo=read geom=check gue
 ss=(read,tcheck) scf=(maxcycle=1)
 ----------------------------------------------------------------------
 -----
 title
 -----
 Structure from the checkpoint file:  "Grambow2020_wb97xd3_008842_reverse_mol2.chk"
 Charge =  0 Multiplicity = 1

                         Standard orientation:
 ---------------------------------------------------------------------
 Center     Atomic      Atomic             Coordinates (Angstroms)
 Number     Number       Type             X           Y           Z
 ---------------------------------------------------------------------
      1          6           0        0.131395    1.709152   -0.018262
      2          6           0        0.433039    0.235712   -0.231838
      3          6           0       -0.562059   -0.685069    0.494517
      4          6           0       -1.936167   -0.472487    0.051100
      5          7           0       -3.007004   -0.285710   -0.314440
      6          6           0        2.681325   -0.872443   -0.296851
      7          7           0        1.789991   -0.085405    0.233177
      8          1           0       -0.863218    1.956607   -0.389263
      9          1           0        0.165124    1.966984    1.044090
     10          1           0        0.858635    2.326313   -0.545927
     11          1           0       -0.515492   -0.512518    1.573399
     12          1           0       -0.294951   -1.728769    0.318572
     13          1           0        0.412417   -0.000816   -1.297284
     14          1           0        2.228397   -1.278477   -1.225367
     15          1           0        2.042981    0.379293    1.098622
 ---------------------------------------------------------------------

 SCF Done:  E(RHF) =  -303.166478250     A.U. after    2 cycles

 The electronic state is 1-A.
 Alpha  occ. eigenvalues --  -15.56689 -15.52357 -11.31733 -11.30659 -11.29189
 Alpha  occ. eigenvalues --  -11.26425 -11.26001  -1.29002  -1.24936  -1.11692
 Alpha  occ. eigenvalues --   -1.01580  -0.91335  -0.87450  -0.73814  -0.70631
 Alpha  occ. eigenvalues --   -0.68340  -0.64187  -0.63052  -0.61076  -0.59140
 Alpha  occ. eigenvalues --   -0.56591  -0.54947  -0.53093  -0.50501  -0.48628
 Alpha  occ. eigenvalues --   -0.36620
 Alpha virt. eigenvalues --    0.02793   0.03610   0.03736   0.04688   0.04956
 Alpha virt. eigenvalues --    0.05585   0.06742   0.07600   0.08517   0.09988
 Alpha virt. eigenvalues --    0.11775   0.12763   0.12861   0.13234   0.13464

 Mulliken charges:
               1
     1  C   -0.053174
     2  C   -1.799289
     3  C    0.620500
     4  C   -1.535734
     5  N    0.924837
     6  C   -0.567119
     7  N    0.947550
     8  H    0.236671
     9  H    0.169223
    10  H    0.163635
    11  H    0.278020
    12  H    0.233400
    13  H    0.049541
    14  H    0.075697
    15  H    0.256241
 Sum of Mulliken charges =  -0.00000

 Dipole moment (field-independent basis, Debye):
    X=              1.1920    Y=              1.2141    Z=              1.2965  Tot=              2.1391

 Test job not archived.
 1\1\GINC-SE229\SP\RHF\Aug-CC-pVDZ\C5H8N2\OHZDE\09-Apr-2025\0\\#t hf au
 g-cc-pvdz iop(5/13=1,5/36=2,99/5=2) pseudo=read geom=check guess=(read
 ,tcheck) scf=(maxcycle=1)\\title\\0,1\C,0,-0.96763696,1.20026029,-0.04
 107897\C,0,-0.16926444,-0.06105032,0.24056978\C,0,1.20306623,-0.062158
 08,-0.45394862\C,0,2.0356252,1.06050153,-0.03387346\N,0,2.66933444,1.9
 5135601,0.31251977\C,0,-1.02343086,-2.41453618,0.37667551\N,0,-0.91375
 156,-1.2507714,-0.19643617\H,0,-0.43103286,2.08216301,0.3088257\H,0,-1
 .14541219,1.3212929,-1.11343759\H,0,-1.93185611,1.16080917,0.46579645\

 Normal termination of Gaussian 16 at Wed Apr  9 19:11:03 2025.
