 Gaussian 16, Revision C.01,

 ----------------------------------------------------------------------
 #t hf aug-cc-pvdz symm=none int=(grid=ultrafine) guess=(read,tcheck) s
 table=(opt,rrhf)
 ----------------------------------------------------------------------
 -----
 title
 -----
 Symbolic Z-matrix:
 Charge =  0 Multiplicity = 1

 SCF Done:  E(RHF) =  -269.907209086     A.U. after   16 cycles

 1\1\GINC-SE220\Stability\RHF\Aug-CC-pVDZ\C5H10O1\OHZDE\09-Apr-2025\0\\
 #t hf aug-cc-pvdz symm=none int=(grid=ultrafine) guess=(read,tcheck) s
 table=(opt,rrhf)\\title\\0,1\C,0,2.93080112,-0.03356748,0.12982715\C,0
 ,0.62453464,0.17507271,-0.93009645\C,0,-0.10945218,-0.54888388,0.00114
 114\O,0,0.02634345,-1.37807865,0.89373041\C,0,-1.5854964,-0.19027419,-
 0.55926415\C,0,-2.42913611,0.27074215,0.63363847\H,0,3.15566634,1.0234
 0906,0.29835996\H,0,2.51058013,-0.51217028,1.0174902\H,0,3.80664545,-0
 .57687924,-0.24427572\H,0,2.17308438,-0.12298109,-0.72854132\H,0,0.620

 Normal termination of Gaussian 16 at Wed Apr  9 15:48:00 2025.
 Gaussian 16:  ES64L-G16RevC.01  3-Jul-2019

 ----------------------------------------------------------------------
 #t hf aug-cc-pvdz iop(5/13=1,5/36=2,99/5=2) pseudo=read geom=check gue
 ss=(read,tcheck) scf=(maxcycle=1)
 ----------------------------------------------------------------------
 -----
 title
 -----
 Structure from the checkpoint file:  "Grambow2020_b97d3_006749_reverse_mol1.chk"
 Charge =  0 Multiplicity = 1

                         Standard orientation:
 ---------------------------------------------------------------------
 Center     Atomic      Atomic             Coordinates (Angstroms)
 Number     Number       Type             X           Y           Z
 ---------------------------------------------------------------------
      1          6           0       -2.968973   -0.021774    0.342811
      2          6           0       -0.710038   -0.998401   -0.312357
      3          6           0        0.049391    0.164280   -0.273723
      4          8           0       -0.064013    1.384642   -0.297761
      5          6           0        1.505785   -0.521584   -0.446538
      6          6           0        2.414123    0.049747    0.646981
      7          1           0       -3.161394   -0.591553    1.256317
      8          1           0       -2.519257    0.951807    0.551344
      9          1           0       -3.873474    0.075114   -0.269346
     10          1           0       -2.254054   -0.619937   -0.328023
     11          1           0       -0.677091   -1.663216    0.558987
     12          1           0        1.814836   -0.214306   -1.453810
     13          1           0        1.510282   -1.620667   -0.431462
     14          1           0        2.091690   -0.279983    1.644263
     15          1           0        3.446924   -0.293506    0.491048
     16          1           0        2.391914    1.145508    0.619724
 ---------------------------------------------------------------------

 SCF Done:  E(RHF) =  -270.190935981     A.U. after    2 cycles

 The electronic state is 1-A.
 Alpha  occ. eigenvalues --  -20.52682 -11.34998 -11.30531 -11.26570 -11.25169
 Alpha  occ. eigenvalues --  -11.24060  -1.45247  -1.09122  -1.00963  -0.95781
 Alpha  occ. eigenvalues --   -0.85288  -0.73805  -0.66442  -0.63831  -0.62538
 Alpha  occ. eigenvalues --   -0.58318  -0.57936  -0.56912  -0.55955  -0.53438
 Alpha  occ. eigenvalues --   -0.51350  -0.50286  -0.40491  -0.37834
 Alpha virt. eigenvalues --    0.03063   0.03515   0.04162   0.04317   0.05749
 Alpha virt. eigenvalues --    0.06184   0.06712   0.07363   0.07710   0.08814
 Alpha virt. eigenvalues --    0.09202   0.11487   0.12575   0.13699   0.14658

 Mulliken charges:
               1
     1  C   -0.488889
     2  C   -0.422419
     3  C    1.529204
     4  O   -1.418034
     5  C   -0.649531
     6  C   -0.377121
     7  H    0.178327
     8  H    0.206118
     9  H    0.126523
    10  H    0.296017
    11  H    0.076959
    12  H    0.220552
    13  H    0.169126
    14  H    0.180505
    15  H    0.144376
    16  H    0.228287
 Sum of Mulliken charges =  -0.00000

 Dipole moment (field-independent basis, Debye):
    X=              0.1997    Y=             -2.6310    Z=              1.4680  Tot=              3.0195

 Test job not archived.
 1\1\GINC-SE220\SP\RHF\Aug-CC-pVDZ\C5H10O1\OHZDE\09-Apr-2025\0\\#t hf a
 ug-cc-pvdz iop(5/13=1,5/36=2,99/5=2) pseudo=read geom=check guess=(rea
 d,tcheck) scf=(maxcycle=1)\\title\\0,1\C,0,2.93080112,-0.03356748,0.12
 982715\C,0,0.62453464,0.17507271,-0.93009645\C,0,-0.10945218,-0.548883
 88,0.00114114\O,0,0.02634345,-1.37807865,0.89373041\C,0,-1.5854964,-0.
 19027419,-0.55926415\C,0,-2.42913611,0.27074215,0.63363847\H,0,3.15566
 634,1.02340906,0.29835996\H,0,2.51058013,-0.51217028,1.0174902\H,0,3.8
 0664545,-0.57687924,-0.24427572\H,0,2.17308438,-0.12298109,-0.72854132

 Normal termination of Gaussian 16 at Wed Apr  9 15:48:05 2025.
