 Gaussian 16, Revision C.01,

 ----------------------------------------------------------------------
 #t hf aug-cc-pvdz symm=none int=(grid=ultrafine) guess=(read,tcheck) s
 table=(opt,rrhf)
 ----------------------------------------------------------------------
 -----
 title
 -----
 Symbolic Z-matrix:
 Charge =  0 Multiplicity = 1

 SCF Done:  E(RHF) =  -322.483172898     A.U. after   16 cycles
 Normal termination of Gaussian 16 at Wed Apr  9 03:27:20 2025.
 Gaussian 16:  ES64L-G16RevC.01  3-Jul-2019

 ----------------------------------------------------------------------
 #t hf aug-cc-pvdz iop(5/13=1,5/36=2,99/5=2) pseudo=read geom=check gue
 ss=(read,tcheck) scf=(maxcycle=1)
 ----------------------------------------------------------------------
 -----
 title
 -----
 Structure from the checkpoint file:  "Grambow2020_wb97xd3_006646_forward_mol1.chk"
 Charge =  0 Multiplicity = 1

                         Standard orientation:
 ---------------------------------------------------------------------
 Center     Atomic      Atomic             Coordinates (Angstroms)
 Number     Number       Type             X           Y           Z
 ---------------------------------------------------------------------
      1          6           0        2.363191    0.501218    0.080648
      2          7           0        1.579931   -0.596808   -0.165080
      3          6           0        0.380640   -0.054440   -0.206285
      4          6           0       -0.645764    0.386113    0.816290
      5          6           0       -1.478521    0.993788   -0.328164
      6          6           0       -0.992331   -0.397187   -0.780370
      7          8           0       -1.342727   -0.903609    0.570024
      8          1           0        3.121687    0.465154    0.855333
      9          1           0        2.380284    1.286809   -0.654242
     10          1           0        1.854046   -1.559109   -0.338562
     11          1           0       -0.517380    0.713514    1.844845
     12          1           0       -1.077545    1.868625   -0.838246
     13          1           0       -2.547197    1.047928   -0.128104
     14          1           0       -1.294892   -0.993348   -1.638377
 ---------------------------------------------------------------------

 SCF Done:  E(RHF) =  -322.816927105     A.U. after    2 cycles

 The electronic state is 1-A.
 Alpha  occ. eigenvalues --  -20.54637 -15.56016 -11.31254 -11.30988 -11.29824
 Alpha  occ. eigenvalues --  -11.25390 -11.24901  -1.47958  -1.28726  -1.09430
 Alpha  occ. eigenvalues --   -0.93555  -0.90514  -0.88130  -0.81717  -0.72363
 Alpha  occ. eigenvalues --   -0.68991  -0.66256  -0.64252  -0.57404  -0.56000
 Alpha  occ. eigenvalues --   -0.53274  -0.51236  -0.48355  -0.42904  -0.41834
 Alpha  occ. eigenvalues --   -0.27363
 Alpha virt. eigenvalues --    0.03245   0.04012   0.04239   0.04513   0.05588
 Alpha virt. eigenvalues --    0.05753   0.06861   0.07498   0.09574   0.10617
 Alpha virt. eigenvalues --    0.12222   0.12706   0.13334   0.14121   0.14399

 Mulliken charges:
               1
     1  C    0.072526
     2  N    1.181087
     3  C   -1.713297
     4  C    1.023501
     5  C    0.099508
     6  C    0.839100
     7  O   -1.361946
     8  H   -0.096627
     9  H    0.004731
    10  H    0.150375
    11  H   -0.087231
    12  H   -0.006584
    13  H    0.015505
    14  H   -0.120647
 Sum of Mulliken charges =   0.00000

 Dipole moment (field-independent basis, Debye):
    X=              0.2743    Y=              0.1988    Z=             -1.1421  Tot=              1.1913

 Test job not archived.
 1\1\GINC-SE419\SP\RHF\Aug-CC-pVDZ\C5H7N1O1\OHZDE\09-Apr-2025\0\\#t hf
 aug-cc-pvdz iop(5/13=1,5/36=2,99/5=2) pseudo=read geom=check guess=(re
 ad,tcheck) scf=(maxcycle=1)\\title\\0,1\C,0,-1.98729725,-1.047848,0.26
 690061\N,0,-1.63910263,0.2532931,0.01129864\C,0,-0.33250932,0.15050408
 ,-0.11679435\C,0,0.84699809,0.07379616,0.82984706\C,0,1.75930555,-0.20
 336007,-0.37986665\C,0,0.80311761,0.94472246,-0.75840748\O,0,1.0493483
 8,1.52597258,0.58484361\H,0,-2.66090314,-1.27932586,1.08508629\H,0,-1.
 78595064,-1.7849703,-0.49047539\H,0,-2.2330506,1.0672324,-0.11514261\H

 Normal termination of Gaussian 16 at Wed Apr  9 03:27:24 2025.
