 Gaussian 16, Revision C.01,

 ----------------------------------------------------------------------
 #t hf aug-cc-pvdz symm=none int=(grid=ultrafine) guess=(read,tcheck) s
 table=(opt,rrhf)
 ----------------------------------------------------------------------
 -----
 title
 -----
 Symbolic Z-matrix:
 Charge =  0 Multiplicity = 1

 SCF Done:  E(RHF) =  -317.636347379     A.U. after   16 cycles
 Normal termination of Gaussian 16 at Wed Apr  9 18:46:23 2025.
 Gaussian 16:  ES64L-G16RevC.01  3-Jul-2019

 ----------------------------------------------------------------------
 #t hf aug-cc-pvdz iop(5/13=1,5/36=2,99/5=2) pseudo=read geom=check gue
 ss=(read,tcheck) scf=(maxcycle=1)
 ----------------------------------------------------------------------
 -----
 title
 -----
 Structure from the checkpoint file:  "Grambow2020_wb97xd3_008051_reverse_mol2.chk"
 Charge =  0 Multiplicity = 1

                         Standard orientation:
 ---------------------------------------------------------------------
 Center     Atomic      Atomic             Coordinates (Angstroms)
 Number     Number       Type             X           Y           Z
 ---------------------------------------------------------------------
      1          7           0        2.844524   -0.000413   -0.260365
      2          6           0        1.743749    0.030222    0.059774
      3          6           0        0.342871    0.063306    0.460892
      4          6           0       -0.520514    1.192972   -0.058381
      5          7           0       -1.736596    0.763728   -0.171585
      6          6           0       -1.863325   -0.549498    0.060317
      7          7           0       -0.429343   -1.094331   -0.069237
      8          1           0        0.258522   -0.016508    1.558551
      9          1           0       -0.218837    2.228118   -0.071965
     10          1           0       -0.165163   -1.244829   -1.052618
     11          1           0       -2.569588   -1.127535   -0.522085
     12          1           0       -0.271717   -1.944151    0.460818
 ---------------------------------------------------------------------

 SCF Done:  E(RHF) =  -317.959302985     A.U. after    2 cycles

 The electronic state is 1-A.
 Alpha  occ. eigenvalues --  -15.64767 -15.54565 -15.52891 -11.36080 -11.30853
 Alpha  occ. eigenvalues --  -11.25975 -11.25546  -1.36697  -1.26670  -1.23327
 Alpha  occ. eigenvalues --   -1.07131  -0.93131  -0.84362  -0.84293  -0.79737
 Alpha  occ. eigenvalues --   -0.68958  -0.67535  -0.65561  -0.63133  -0.59326
 Alpha  occ. eigenvalues --   -0.54793  -0.53845  -0.51323  -0.47972  -0.28509
 Alpha virt. eigenvalues --    0.01727   0.03958   0.04252   0.05042   0.05243
 Alpha virt. eigenvalues --    0.07362   0.08487   0.09709   0.10401   0.10654
 Alpha virt. eigenvalues --    0.12080   0.12733   0.13090   0.13971   0.14575

 Mulliken charges:
               1
     1  N    1.099425
     2  C   -2.081685
     3  C    0.396578
     4  C   -0.499388
     5  N    0.911868
     6  C   -0.447797
     7  N   -0.097197
     8  H    0.112083
     9  H   -0.140083
    10  H    0.393637
    11  H   -0.084268
    12  H    0.436829
 Sum of Mulliken charges =  -0.00000

 Dipole moment (field-independent basis, Debye):
    X=              0.1709    Y=             -3.2131    Z=              0.3995  Tot=              3.2423

 Test job not archived.
 1\1\GINC-SE173\SP\RHF\Aug-CC-pVDZ\C4H5N3\OHZDE\09-Apr-2025\0\\#t hf au
 g-cc-pvdz iop(5/13=1,5/36=2,99/5=2) pseudo=read geom=check guess=(read
 ,tcheck) scf=(maxcycle=1)\\title\\0,1\N,0,2.52075082,-1.65343767,0.594
 81806\C,0,1.67579193,-0.99966565,0.17797308\C,0,0.59965267,-0.1666371,
 -0.34398172\C,0,-0.67888007,-0.84715074,-0.78384488\N,0,-1.66596291,-0
 .03094182,-0.59572268\C,0,-1.31491544,1.09412514,0.04098171\N,0,0.0416
 5589,0.75434614,0.68456268\H,0,0.98151118,0.49432892,-1.14125677\H,0,-
 0.71236263,-1.74072693,-1.38643996\H,0,-0.07289186,0.23467577,1.565641

 Normal termination of Gaussian 16 at Wed Apr  9 18:46:28 2025.
