 Gaussian 16, Revision C.01,

 ----------------------------------------------------------------------
 #t hf aug-cc-pvdz symm=none int=(grid=ultrafine) guess=(read,tcheck) s
 table=(opt,rrhf)
 ----------------------------------------------------------------------
 -----
 title
 -----
 Symbolic Z-matrix:
 Charge =  0 Multiplicity = 1

 SCF Done:  E(RHF) =  -323.843907631     A.U. after   14 cycles
 Normal termination of Gaussian 16 at Wed Apr  9 17:46:44 2025.
 Gaussian 16:  ES64L-G16RevC.01  3-Jul-2019

 ----------------------------------------------------------------------
 #t hf aug-cc-pvdz iop(5/13=1,5/36=2,99/5=2) pseudo=read geom=check gue
 ss=(read,tcheck) scf=(maxcycle=1)
 ----------------------------------------------------------------------
 -----
 title
 -----
 Structure from the checkpoint file:  "Grambow2020_wb97xd3_006819_forward_mol2.chk"
 Charge =  0 Multiplicity = 1

                         Standard orientation:
 ---------------------------------------------------------------------
 Center     Atomic      Atomic             Coordinates (Angstroms)
 Number     Number       Type             X           Y           Z
 ---------------------------------------------------------------------
      1          6           0       -1.793797   -1.386781    0.259997
      2          6           0       -1.126471   -0.217725   -0.435294
      3          6           0       -1.347284    1.218921    0.124085
      4          6           0        0.182776    1.476628    0.085456
      5          6           0        0.349658    0.008299   -0.204827
      6          7           0        1.293198   -0.823592   -0.160804
      7          8           0        2.500439   -0.201683    0.155487
      8          1           0       -2.876525   -1.354736    0.119276
      9          1           0       -1.588231   -1.368217    1.332575
     10          1           0       -1.427262   -2.335857   -0.133734
     11          1           0       -1.333910   -0.246071   -1.509569
     12          1           0       -1.965935    1.880985   -0.479593
     13          1           0       -1.738803    1.201094    1.141866
     14          1           0        0.659495    1.831316    0.998860
     15          1           0        0.507587    2.108664   -0.742968
     16          1           0        3.118404   -0.934621    0.178522
 ---------------------------------------------------------------------

 SCF Done:  E(RHF) =  -324.183868151     A.U. after    2 cycles

 The electronic state is 1-A.
 Alpha  occ. eigenvalues --  -20.57598 -15.54646 -11.27164 -11.24556 -11.24168
 Alpha  occ. eigenvalues --  -11.23893 -11.22816  -1.49516  -1.19804  -1.10862
 Alpha  occ. eigenvalues --   -0.99863  -0.87242  -0.85098  -0.73356  -0.70323
 Alpha  occ. eigenvalues --   -0.69403  -0.65085  -0.59277  -0.58997  -0.58192
 Alpha  occ. eigenvalues --   -0.53801  -0.52960  -0.50497  -0.48683  -0.47138
 Alpha  occ. eigenvalues --   -0.43818  -0.39448
 Alpha virt. eigenvalues --    0.03608   0.04018   0.04204   0.04273   0.05935
 Alpha virt. eigenvalues --    0.06072   0.06482   0.07096   0.07901   0.11889
 Alpha virt. eigenvalues --    0.12254   0.13319   0.13789   0.14157   0.14614

 Mulliken charges:
               1
     1  C   -0.227751
     2  C   -0.530704
     3  C    0.114090
     4  C    0.013004
     5  C   -1.217310
     6  N    1.651268
     7  O   -1.193795
     8  H    0.168442
     9  H    0.221206
    10  H    0.205036
    11  H    0.138679
    12  H    0.042805
    13  H    0.066014
    14  H    0.083122
    15  H    0.155161
    16  H    0.310734
 Sum of Mulliken charges =  -0.00000

 Dipole moment (field-independent basis, Debye):
    X=             -1.3349    Y=              0.9227    Z=              0.0138  Tot=              1.6228

 Test job not archived.
 1\1\GINC-SE229\SP\RHF\Aug-CC-pVDZ\C5H9N1O1\OHZDE\09-Apr-2025\0\\#t hf
 aug-cc-pvdz iop(5/13=1,5/36=2,99/5=2) pseudo=read geom=check guess=(re
 ad,tcheck) scf=(maxcycle=1)\\title\\0,1\C,0,-1.57757391,-1.23923446,-0
 .0796114\C,0,-0.58182756,-0.24718641,-0.64509585\C,0,-0.74350911,1.263
 27826,-0.30162713\C,0,0.7561196,1.34170876,0.09073679\C,0,0.78642402,-
 0.16064592,-0.00983461\N,0,1.55062119,-1.08081508,0.38200862\O,0,2.696
 11012,-0.56327398,0.98553787\H,0,-2.56088743,-1.10414172,-0.53565199\H
 ,0,-1.68147819,-1.11105879,1.00011102\H,0,-1.25456121,-2.26471727,-0.2

 Normal termination of Gaussian 16 at Wed Apr  9 17:46:50 2025.
