 Gaussian 16, Revision C.01,

 ----------------------------------------------------------------------
 #t hf aug-cc-pvdz symm=none int=(grid=ultrafine) guess=(read,tcheck) s
 table=(opt,rrhf)
 ----------------------------------------------------------------------
 -----
 title
 -----
 Symbolic Z-matrix:
 Charge =  0 Multiplicity = 1

 SCF Done:  E(RHF) =  -344.740007553     A.U. after   15 cycles

 1\1\GINC-SE365\Stability\RHF\Aug-CC-pVDZ\C5H10O2\OHZDE\09-Apr-2025\0\\
 #t hf aug-cc-pvdz symm=none int=(grid=ultrafine) guess=(read,tcheck) s
 table=(opt,rrhf)\\title\\0,1\C,0,2.01577742,1.22240283,-0.37199485\O,0
 ,0.65645134,0.94254557,-0.16054213\C,0,0.33450405,-0.40253907,-0.43875
 332\C,0,0.76092357,-1.42660634,0.58476105\O,0,-0.99094983,-1.35220215,
 1.11551758\C,0,-1.14657145,-0.66432487,-0.16701765\C,0,-2.05636258,0.5
 1994927,-0.0018813\H,0,2.66327195,0.6183783,0.27641941\H,0,2.30114738,
 1.03729171,-1.41602801\H,0,2.1744165,2.27427161,-0.14020293\H,0,0.6603

 Normal termination of Gaussian 16 at Wed Apr  9 03:27:26 2025.
 Gaussian 16:  ES64L-G16RevC.01  3-Jul-2019

 ----------------------------------------------------------------------
 #t hf aug-cc-pvdz iop(5/13=1,5/36=2,99/5=2) pseudo=read geom=check gue
 ss=(read,tcheck) scf=(maxcycle=1)
 ----------------------------------------------------------------------
 -----
 title
 -----
 Structure from the checkpoint file:  "Grambow2020_wb97xd3_006656_forward_mol1.chk"
 Charge =  0 Multiplicity = 1

                         Standard orientation:
 ---------------------------------------------------------------------
 Center     Atomic      Atomic             Coordinates (Angstroms)
 Number     Number       Type             X           Y           Z
 ---------------------------------------------------------------------
      1          6           0        2.488197   -0.249161   -0.130359
      2          8           0        1.130962   -0.600092   -0.204916
      3          6           0        0.313684    0.242379    0.577774
      4          6           0        0.043305    1.622726    0.030357
      5          8           0       -1.565426    0.905150   -0.473002
      6          6           0       -1.154222   -0.160960    0.441663
      7          6           0       -1.467507   -1.499767   -0.164096
      8          1           0        2.667959    0.769312   -0.497694
      9          1           0        2.859163   -0.316151    0.900953
     10          1           0        3.042765   -0.947654   -0.754766
     11          1           0        0.689217    0.251671    1.609668
     12          1           0        0.532373    1.815173   -0.926847
     13          1           0       -1.330511    1.795603    0.099913
     14          1           0       -1.683219   -0.032346    1.389997
     15          1           0       -1.130383   -2.297605    0.499046
     16          1           0       -2.545234   -1.593688   -0.305552
     17          1           0       -0.967156   -1.616077   -1.123415
 ---------------------------------------------------------------------

 SCF Done:  E(RHF) =  -345.098713349     A.U. after    2 cycles

 The electronic state is 1-A.
 Alpha  occ. eigenvalues --  -20.57083 -20.55070 -11.30362 -11.29625 -11.28772
 Alpha  occ. eigenvalues --  -11.27470 -11.22791  -1.48352  -1.46043  -1.06282
 Alpha  occ. eigenvalues --   -1.00289  -0.93078  -0.85994  -0.76970  -0.72962
 Alpha  occ. eigenvalues --   -0.68910  -0.66219  -0.64128  -0.61080  -0.58436
 Alpha  occ. eigenvalues --   -0.55914  -0.54364  -0.52262  -0.51509  -0.49655
 Alpha  occ. eigenvalues --   -0.45023  -0.42801  -0.35211
 Alpha virt. eigenvalues --    0.03436   0.03662   0.04292   0.04612   0.05968
 Alpha virt. eigenvalues --    0.06211   0.06422   0.07244   0.08541   0.09225
 Alpha virt. eigenvalues --    0.10080   0.11902   0.13390   0.14004   0.14417

 Mulliken charges:
               1
     1  C    0.077009
     2  O   -1.550022
     3  C    0.952062
     4  C   -0.296651
     5  O   -1.517900
     6  C    0.678208
     7  C   -0.334574
     8  H    0.183721
     9  H    0.182905
    10  H   -0.028518
    11  H    0.182633
    12  H    0.087693
    13  H    0.752349
    14  H    0.002606
    15  H    0.229360
    16  H    0.154290
    17  H    0.244830
 Sum of Mulliken charges =  -0.00000

 Dipole moment (field-independent basis, Debye):
    X=              1.1389    Y=             -0.9374    Z=              1.1391  Tot=              1.8637

 Test job not archived.
 1\1\GINC-SE365\SP\RHF\Aug-CC-pVDZ\C5H10O2\OHZDE\09-Apr-2025\0\\#t hf a
 ug-cc-pvdz iop(5/13=1,5/36=2,99/5=2) pseudo=read geom=check guess=(rea
 d,tcheck) scf=(maxcycle=1)\\title\\0,1\C,0,2.01577742,1.22240283,-0.37
 199485\O,0,0.65645134,0.94254557,-0.16054213\C,0,0.33450405,-0.4025390
 7,-0.43875332\C,0,0.76092357,-1.42660634,0.58476105\O,0,-0.99094983,-1
 .35220215,1.11551758\C,0,-1.14657145,-0.66432487,-0.16701765\C,0,-2.05
 636258,0.51994927,-0.0018813\H,0,2.66327195,0.6183783,0.27641941\H,0,2
 .30114738,1.03729171,-1.41602801\H,0,2.1744165,2.27427161,-0.14020293\

 Normal termination of Gaussian 16 at Wed Apr  9 03:27:31 2025.
