 Gaussian 16, Revision C.01,

 ----------------------------------------------------------------------
 #t hf aug-cc-pvdz symm=none int=(grid=ultrafine) guess=(read,tcheck) s
 table=(opt,rrhf)
 ----------------------------------------------------------------------
 -----
 title
 -----
 Symbolic Z-matrix:
 Charge =  0 Multiplicity = 1

 SCF Done:  E(RHF) =  -268.698231658     A.U. after   14 cycles
 Normal termination of Gaussian 16 at Wed Apr  9 16:54:07 2025.
 Gaussian 16:  ES64L-G16RevC.01  3-Jul-2019

 ----------------------------------------------------------------------
 #t hf aug-cc-pvdz iop(5/13=1,5/36=2,99/5=2) pseudo=read geom=check gue
 ss=(read,tcheck) scf=(maxcycle=1)
 ----------------------------------------------------------------------
 -----
 title
 -----
 Structure from the checkpoint file:  "Grambow2020_wb97xd3_006179_reverse_mol2.chk"
 Charge =  0 Multiplicity = 1

                         Standard orientation:
 ---------------------------------------------------------------------
 Center     Atomic      Atomic             Coordinates (Angstroms)
 Number     Number       Type             X           Y           Z
 ---------------------------------------------------------------------
      1          8           0        2.824901   -0.178082    0.107876
      2          6           0       -0.146468    0.367960   -0.598683
      3          6           0       -0.727231    1.499861   -0.331426
      4          6           0       -0.624717    0.521669    0.809644
      5          6           0       -1.446537   -0.767920    0.574680
      6          6           0       -0.591260   -1.055261   -0.738219
      7          1           0        2.413615    0.454579   -0.486338
      8          1           0        2.299230   -0.124254    0.908295
      9          1           0       -1.354231    2.261477   -0.772397
     10          1           0        0.009746    0.668755    1.676827
     11          1           0       -1.355578   -1.533347    1.346336
     12          1           0       -2.503239   -0.601336    0.350140
     13          1           0        0.203407   -1.766355   -0.516605
     14          1           0       -1.094873   -1.332723   -1.665246
 ---------------------------------------------------------------------

 SCF Done:  E(RHF) =  -268.982477726     A.U. after    2 cycles

 The electronic state is 1-A.
 Alpha  occ. eigenvalues --  -20.54871 -11.27267 -11.26745 -11.26184 -11.25605
 Alpha  occ. eigenvalues --  -11.25170  -1.43129  -1.22932  -1.02127  -0.90202
 Alpha  occ. eigenvalues --   -0.79737  -0.73495  -0.70115  -0.66548  -0.64742
 Alpha  occ. eigenvalues --   -0.60521  -0.57120  -0.54026  -0.51604  -0.48946
 Alpha  occ. eigenvalues --   -0.48128  -0.41075  -0.33515
 Alpha virt. eigenvalues --    0.03296   0.03679   0.03911   0.04515   0.05997
 Alpha virt. eigenvalues --    0.06693   0.07071   0.07732   0.08473   0.10205
 Alpha virt. eigenvalues --    0.11326   0.12986   0.13479   0.13838   0.15170

 Mulliken charges:
               1
     1  O   -0.919044
     2  C    0.123383
     3  C    0.066362
     4  C    0.200091
     5  C   -0.126072
     6  C   -0.077903
     7  H    0.487417
     8  H    0.445778
     9  H   -0.257102
    10  H   -0.185665
    11  H    0.019361
    12  H    0.061447
    13  H    0.125926
    14  H    0.036019
 Sum of Mulliken charges =  -0.00000

 Dipole moment (field-independent basis, Debye):
    X=             -2.5660    Y=             -0.2365    Z=              0.0238  Tot=              2.5770

 Test job not archived.
 1\1\GINC-SE174\SP\RHF\Aug-CC-pVDZ\C5H8O1\OHZDE\09-Apr-2025\0\\#t hf au
 g-cc-pvdz iop(5/13=1,5/36=2,99/5=2) pseudo=read geom=check guess=(read
 ,tcheck) scf=(maxcycle=1)\\title\\0,1\O,0,1.74413402,1.34423178,2.0102
 8726\C,0,0.62923207,-0.15197293,-0.46858083\C,0,0.47471458,0.43092442,
 -1.62021746\C,0,-0.6156033,0.66464981,-0.60730663\C,0,-1.39197991,-0.6
 2445914,-0.24803872\C,0,-0.03197315,-1.28528148,0.25342121\H,0,2.13659
 735,1.13313556,1.15945347\H,0,0.87060762,1.67368364,1.79049228\H,0,0.6
 7078891,0.30072254,-2.67484783\H,0,-0.79877785,1.61889565,-0.12559575\

 Normal termination of Gaussian 16 at Wed Apr  9 16:54:11 2025.
