 Gaussian 16, Revision C.01,

 ----------------------------------------------------------------------
 #t hf aug-cc-pvdz symm=none int=(grid=ultrafine) guess=(read,tcheck) s
 table=(opt,rrhf)
 ----------------------------------------------------------------------
 -----
 title
 -----
 Symbolic Z-matrix:
 Charge =  0 Multiplicity = 1

 SCF Done:  E(RHF) =  -343.739987346     A.U. after   15 cycles
 Normal termination of Gaussian 16 at Wed Apr  9 18:31:52 2025.
 Gaussian 16:  ES64L-G16RevC.01  3-Jul-2019

 ----------------------------------------------------------------------
 #t hf aug-cc-pvdz iop(5/13=1,5/36=2,99/5=2) pseudo=read geom=check gue
 ss=(read,tcheck) scf=(maxcycle=1)
 ----------------------------------------------------------------------
 -----
 title
 -----
 Structure from the checkpoint file:  "Grambow2020_wb97xd3_007678_reverse_mol2.chk"
 Charge =  0 Multiplicity = 1

                         Standard orientation:
 ---------------------------------------------------------------------
 Center     Atomic      Atomic             Coordinates (Angstroms)
 Number     Number       Type             X           Y           Z
 ---------------------------------------------------------------------
      1          6           0        3.165024   -0.255136   -0.256671
      2          6           0        1.832371   -0.046662    0.385496
      3          6           0        0.700779    0.177218   -0.266119
      4          8           0       -1.311416    1.477903   -0.086610
      5          6           0       -0.635220    0.356727    0.399283
      6          6           0       -1.472093   -0.891718    0.198054
      7          8           0       -2.554198   -0.857746   -0.322094
      8          1           0        3.885390    0.486510    0.096761
      9          1           0        3.101340   -0.181281   -1.342676
     10          1           0        3.569798   -1.238260   -0.003392
     11          1           0        1.809011   -0.077457    1.473580
     12          1           0        0.687146    0.238477   -1.351699
     13          1           0       -0.478761    0.439576    1.486936
     14          1           0       -1.024896   -1.837436    0.555931
     15          1           0       -2.169284    1.166046   -0.406065
 ---------------------------------------------------------------------

 SCF Done:  E(RHF) =  -344.093455673     A.U. after    2 cycles

 The electronic state is 1-A.
 Alpha  occ. eigenvalues --  -20.56817 -20.55222 -11.35541 -11.31069 -11.25765
 Alpha  occ. eigenvalues --  -11.24762 -11.24406  -1.50953  -1.45826  -1.10739
 Alpha  occ. eigenvalues --   -1.02009  -0.92781  -0.82080  -0.78050  -0.73787
 Alpha  occ. eigenvalues --   -0.69100  -0.67273  -0.63868  -0.58898  -0.58683
 Alpha  occ. eigenvalues --   -0.55973  -0.54365  -0.53810  -0.52174  -0.45688
 Alpha  occ. eigenvalues --   -0.44454  -0.37820
 Alpha virt. eigenvalues --    0.03102   0.03603   0.04008   0.04722   0.06219
 Alpha virt. eigenvalues --    0.06303   0.06417   0.08212   0.09158   0.10008
 Alpha virt. eigenvalues --    0.12626   0.13201   0.13473   0.13762   0.14355

 Mulliken charges:
               1
     1  C   -0.765559
     2  C    0.276939
     3  C    0.578867
     4  O   -1.351556
     5  C    0.723628
     6  C    0.941405
     7  O   -1.140004
     8  H    0.239590
     9  H    0.110640
    10  H    0.238751
    11  H   -0.185525
    12  H   -0.236859
    13  H    0.150279
    14  H    0.113519
    15  H    0.305884
 Sum of Mulliken charges =  -0.00000

 Dipole moment (field-independent basis, Debye):
    X=              2.6239    Y=             -1.4798    Z=              1.1253  Tot=              3.2158

 Test job not archived.
 1\1\GINC-SE192\SP\RHF\Aug-CC-pVDZ\C5H8O2\OHZDE\09-Apr-2025\0\\#t hf au
 g-cc-pvdz iop(5/13=1,5/36=2,99/5=2) pseudo=read geom=check guess=(read
 ,tcheck) scf=(maxcycle=1)\\title\\0,1\C,0,2.48280375,0.00936804,0.7254
 738\C,0,1.02859411,0.34839906,0.67926373\C,0,0.216506,0.07869211,-0.33
 216931\O,0,-1.63064027,1.04181451,-1.52940713\C,0,-1.25107796,0.404073
 3,-0.34636557\C,0,-2.05295338,-0.86832707,-0.15283071\O,0,-2.87871593,
 -1.2293382,-0.94683684\H,0,3.08566172,0.90895408,0.87103464\H,0,2.8091
 7548,-0.47734477,-0.19404129\H,0,2.70045956,-0.65881324,1.56254325\H,0

 Normal termination of Gaussian 16 at Wed Apr  9 18:31:57 2025.
