 Gaussian 16, Revision C.01,

 ----------------------------------------------------------------------
 #t hf aug-cc-pvdz symm=none int=(grid=ultrafine) guess=(read,tcheck) s
 table=(opt,rrhf)
 ----------------------------------------------------------------------
 -----
 title
 -----
 Symbolic Z-matrix:
 Charge =  0 Multiplicity = 1

 SCF Done:  E(RHF) =  -284.772914674     A.U. after   15 cycles
 Normal termination of Gaussian 16 at Wed Apr  9 03:21:34 2025.
 Gaussian 16:  ES64L-G16RevC.01  3-Jul-2019

 ----------------------------------------------------------------------
 #t hf aug-cc-pvdz iop(5/13=1,5/36=2,99/5=2) pseudo=read geom=check gue
 ss=(read,tcheck) scf=(maxcycle=1)
 ----------------------------------------------------------------------
 -----
 title
 -----
 Structure from the checkpoint file:  "Grambow2020_wb97xd3_006090_reverse_mol2.chk"
 Charge =  0 Multiplicity = 1

                         Standard orientation:
 ---------------------------------------------------------------------
 Center     Atomic      Atomic             Coordinates (Angstroms)
 Number     Number       Type             X           Y           Z
 ---------------------------------------------------------------------
      1          6           0        1.712600   -1.138907   -0.064219
      2          6           0        1.157366    0.165461    0.434604
      3          7           0        0.815075    1.161499   -0.543240
      4          6           0       -0.279222    0.583317    0.259661
      5          6           0       -1.183281   -0.323303   -0.459952
      6          8           0       -2.335433   -0.295330    0.174457
      7          1           0        1.245655   -1.413726   -1.007565
      8          1           0        1.539544   -1.937666    0.659770
      9          1           0        2.789721   -1.043697   -0.217899
     10          1           0        1.584421    0.517931    1.370896
     11          1           0        1.006311    2.097162   -0.207516
     12          1           0       -0.697300    1.195377    1.058811
     13          1           0       -2.935185   -0.902634   -0.270039
 ---------------------------------------------------------------------

 SCF Done:  E(RHF) =  -285.069503319     A.U. after    2 cycles

 The electronic state is 1-A.
 Alpha  occ. eigenvalues --  -20.61286 -15.50910 -11.29899 -11.28013 -11.26090
 Alpha  occ. eigenvalues --  -11.22363  -1.53290  -1.28091  -0.99816  -0.97169
 Alpha  occ. eigenvalues --   -0.84908  -0.77760  -0.74866  -0.67590  -0.64711
 Alpha  occ. eigenvalues --   -0.59421  -0.58262  -0.56525  -0.54452  -0.50617
 Alpha  occ. eigenvalues --   -0.48372  -0.42345  -0.36053
 Alpha virt. eigenvalues --    0.03470   0.03739   0.04565   0.04883   0.05687
 Alpha virt. eigenvalues --    0.06459   0.07600   0.09733   0.11536   0.11878
 Alpha virt. eigenvalues --    0.13044   0.13772   0.14296   0.14881   0.15345

 Mulliken charges:
               1
     1  C   -0.287530
     2  C   -0.551588
     3  N    0.435740
     4  C    0.099020
     5  C    0.474497
     6  O   -1.201278
     7  H    0.246520
     8  H    0.245854
     9  H    0.199933
    10  H   -0.167667
    11  H    0.201643
    12  H   -0.187177
    13  H    0.492035
 Sum of Mulliken charges =  -0.00000

 Dipole moment (field-independent basis, Debye):
    X=             -0.5191    Y=              0.1547    Z=              2.3896  Tot=              2.4502

 Test job not archived.
 1\1\GINC-SE186\SP\RHF\Aug-CC-pVDZ\C4H7N1O1\OHZDE\09-Apr-2025\0\\#t hf
 aug-cc-pvdz iop(5/13=1,5/36=2,99/5=2) pseudo=read geom=check guess=(re
 ad,tcheck) scf=(maxcycle=1)\\title\\0,1\C,0,-1.10835557,-0.53466266,1.
 20588729\C,0,-0.43448191,-0.80747148,-0.10939026\N,0,-0.82451983,-0.00
 61407,-1.23685378\C,0,0.56094327,0.12580195,-0.74745302\C,0,0.87300725
 ,1.3846995,-0.05831055\O,0,2.16708418,1.58101892,-0.19073315\H,0,-1.31
 120444,0.5285861,1.31461387\H,0,-0.48199028,-0.86022766,2.03883272\H,0
 ,-2.05282471,-1.08105637,1.25388639\H,0,-0.20889275,-1.85419149,-0.301

 Normal termination of Gaussian 16 at Wed Apr  9 03:21:38 2025.
