 Gaussian 16, Revision C.01,

 ----------------------------------------------------------------------
 #t hf aug-cc-pvdz symm=none int=(grid=ultrafine) guess=(read,tcheck) s
 table=(opt,rrhf)
 ----------------------------------------------------------------------
 -----
 title
 -----
 Symbolic Z-matrix:
 Charge =  0 Multiplicity = 1

 SCF Done:  E(RHF) =  -373.256823381     A.U. after   15 cycles
 Normal termination of Gaussian 16 at Wed Apr  9 03:27:59 2025.
 Gaussian 16:  ES64L-G16RevC.01  3-Jul-2019

 ----------------------------------------------------------------------
 #t hf aug-cc-pvdz iop(5/13=1,5/36=2,99/5=2) pseudo=read geom=check gue
 ss=(read,tcheck) scf=(maxcycle=1)
 ----------------------------------------------------------------------
 -----
 title
 -----
 Structure from the checkpoint file:  "Grambow2020_wb97xd3_006706_forward_mol1.chk"
 Charge =  0 Multiplicity = 1

                         Standard orientation:
 ---------------------------------------------------------------------
 Center     Atomic      Atomic             Coordinates (Angstroms)
 Number     Number       Type             X           Y           Z
 ---------------------------------------------------------------------
      1          8           0       -2.990846   -0.226975    0.003274
      2          6           0       -1.999588    0.326404   -0.001813
      3          6           0       -0.066947   -0.420928   -0.003103
      4          7           0        0.282266    0.847216   -0.002448
      5          6           0        1.644349    0.855571    0.001380
      6          7           0        2.149689   -0.331374    0.002463
      7          8           0        1.023142   -1.163735   -0.000937
      8          1           0       -1.010711    1.208867   -0.003581
      9          1           0        2.261776    1.739632    0.005989
 ---------------------------------------------------------------------

 SCF Done:  E(RHF) =  -373.617524818     A.U. after    2 cycles

 The electronic state is 1-A.
 Alpha  occ. eigenvalues --  -20.66082 -20.64313 -15.57498 -15.53503 -11.42261
 Alpha  occ. eigenvalues --  -11.33350 -11.32575  -1.61208  -1.59799  -1.28980
 Alpha  occ. eigenvalues --   -1.19097  -0.93833  -0.87125  -0.84731  -0.78966
 Alpha  occ. eigenvalues --   -0.69735  -0.68537  -0.65587  -0.64316  -0.62101
 Alpha  occ. eigenvalues --   -0.57262  -0.54504  -0.51304  -0.44961  -0.41337
 Alpha virt. eigenvalues --    0.02967   0.04619   0.05872   0.07914   0.08187
 Alpha virt. eigenvalues --    0.08243   0.09236   0.10676   0.11033   0.12457
 Alpha virt. eigenvalues --    0.12965   0.13625   0.15004   0.15698   0.16956

 Mulliken charges:
               1
     1  O   -0.780167
     2  C    0.648833
     3  C    0.186100
     4  N    0.440747
     5  C   -0.882881
     6  N    1.060829
     7  O   -1.286869
     8  H    0.690375
     9  H   -0.076968
 Sum of Mulliken charges =  -0.00000

 Dipole moment (field-independent basis, Debye):
    X=             -1.6830    Y=              3.4082    Z=             -0.0014  Tot=              3.8010

 Test job not archived.
 1\1\GINC-SE074\SP\RHF\Aug-CC-pVDZ\C3H2N2O2\OHZDE\09-Apr-2025\0\\#t hf
 aug-cc-pvdz iop(5/13=1,5/36=2,99/5=2) pseudo=read geom=check guess=(re
 ad,tcheck) scf=(maxcycle=1)\\title\\0,1\O,0,-3.17773079,-0.10153173,-0
 .10337191\C,0,-2.12119138,0.30615055,-0.02358959\C,0,-0.30773316,-0.69
 310259,-0.10402461\N,0,0.20909298,0.50384029,0.07020745\C,0,1.5591761,
 0.3242774,0.08985716\N,0,1.89963535,-0.91066096,-0.0625338\O,0,0.67173
 367,-1.57253006,-0.18954578\H,0,-1.02273984,1.03681458,0.10351997\H,0,
 2.28975807,1.10674152,0.21948111\\Version=ES64L-G16RevC.01\State=1-A\H

 Normal termination of Gaussian 16 at Wed Apr  9 03:28:02 2025.
