 Gaussian 16, Revision C.01,

 ----------------------------------------------------------------------
 #t hf aug-cc-pvdz symm=none int=(grid=ultrafine) guess=(read,tcheck) s
 table=(opt,rrhf)
 ----------------------------------------------------------------------
 -----
 title
 -----
 Symbolic Z-matrix:
 Charge =  0 Multiplicity = 1

 SCF Done:  E(RHF) =  -375.602617443     A.U. after   14 cycles
 Normal termination of Gaussian 16 at Wed Apr  9 03:46:27 2025.
 Gaussian 16:  ES64L-G16RevC.01  3-Jul-2019

 ----------------------------------------------------------------------
 #t hf aug-cc-pvdz iop(5/13=1,5/36=2,99/5=2) pseudo=read geom=check gue
 ss=(read,tcheck) scf=(maxcycle=1)
 ----------------------------------------------------------------------
 -----
 title
 -----
 Structure from the checkpoint file:  "Grambow2020_wb97xd3_007906_reverse_mol2.chk"
 Charge =  0 Multiplicity = 1

                         Standard orientation:
 ---------------------------------------------------------------------
 Center     Atomic      Atomic             Coordinates (Angstroms)
 Number     Number       Type             X           Y           Z
 ---------------------------------------------------------------------
      1          6           0       -2.224089   -0.350052    0.364641
      2          8           0       -1.371591    0.518082   -0.372043
      3          6           0       -0.061221    0.262880   -0.220305
      4          7           0        0.494901   -1.031429   -0.634214
      5          7           0        0.889386    1.327548   -0.247000
      6          6           0        1.004513    0.337228    0.796668
      7          8           0        1.584396   -0.865236    0.318731
      8          1           0       -3.242721   -0.052231    0.126958
      9          1           0       -2.049475   -0.233932    1.438185
     10          1           0       -2.064603   -1.391569    0.080876
     11          1           0        0.905210   -0.992454   -1.567170
     12          1           0        1.605039    1.275981   -0.965611
     13          1           0        1.138881    0.598271    1.835732
 ---------------------------------------------------------------------

 SCF Done:  E(RHF) =  -375.984070650     A.U. after    2 cycles

 The electronic state is 1-A.
 Alpha  occ. eigenvalues --  -20.59120 -20.57718 -15.57064 -15.52008 -11.36543
 Alpha  occ. eigenvalues --  -11.33442 -11.29414  -1.54307  -1.50570  -1.28055
 Alpha  occ. eigenvalues --   -1.13277  -0.96854  -0.93423  -0.81511  -0.77645
 Alpha  occ. eigenvalues --   -0.75376  -0.70937  -0.65529  -0.64831  -0.60019
 Alpha  occ. eigenvalues --   -0.57609  -0.56099  -0.53560  -0.49782  -0.47706
 Alpha  occ. eigenvalues --   -0.44978  -0.40995
 Alpha virt. eigenvalues --    0.03585   0.04384   0.04644   0.05728   0.06117
 Alpha virt. eigenvalues --    0.06415   0.08874   0.09804   0.11569   0.12673
 Alpha virt. eigenvalues --    0.13468   0.14109   0.15145   0.15997   0.16381

 Mulliken charges:
               1
     1  C   -0.009849
     2  O   -1.539491
     3  C   -0.505791
     4  N    0.779966
     5  N    0.593763
     6  C    1.175813
     7  O   -1.368289
     8  H   -0.021100
     9  H    0.190106
    10  H    0.226279
    11  H    0.350864
    12  H    0.225887
    13  H   -0.098158
 Sum of Mulliken charges =  -0.00000

 Dipole moment (field-independent basis, Debye):
    X=             -0.2812    Y=             -0.2743    Z=              0.0673  Tot=              0.3986

 Test job not archived.
 1\1\GINC-SE457\SP\RHF\Aug-CC-pVDZ\C3H6N2O2\OHZDE\09-Apr-2025\0\\#t hf
 aug-cc-pvdz iop(5/13=1,5/36=2,99/5=2) pseudo=read geom=check guess=(re
 ad,tcheck) scf=(maxcycle=1)\\title\\0,1\C,0,-1.74702917,-0.43339567,-0
 .63047921\O,0,-1.26646661,0.04277071,0.62069484\C,0,0.06897816,0.17654
 152,0.68327134\N,0,0.76363571,1.10859839,-0.21369585\N,0,0.76141732,-0
 .05919471,1.90917541\C,0,1.29701416,-0.64025086,0.70139199\O,0,1.98213
 309,0.32027312,-0.08512876\H,0,-2.83118949,-0.46371491,-0.5499875\H,0,
 -1.36591377,-1.43979293,-0.82640186\H,0,-1.45226711,0.23175234,-1.4437

 Normal termination of Gaussian 16 at Wed Apr  9 03:46:31 2025.
