 Gaussian 16, Revision C.01,

 ----------------------------------------------------------------------
 #t hf aug-cc-pvdz symm=none int=(grid=ultrafine) guess=(read,tcheck) s
 table=(opt,rrhf)
 ----------------------------------------------------------------------
 -----
 title
 -----
 Symbolic Z-matrix:
 Charge =  0 Multiplicity = 1

 SCF Done:  E(RHF) =  -344.776625898     A.U. after   16 cycles

 1\1\GINC-SE072\Stability\RHF\Aug-CC-pVDZ\C5H10O2\OHZDE\09-Apr-2025\0\\
 #t hf aug-cc-pvdz symm=none int=(grid=ultrafine) guess=(read,tcheck) s
 table=(opt,rrhf)\\title\\0,1\C,0,-2.19767571,-0.1808494,-0.46711243\C,
 0,-0.69687335,-0.33547461,-0.65543759\O,0,-0.15579209,0.74859389,-1.39
 165658\C,0,0.0243234,-0.53166451,0.6766937\C,0,1.54223149,-0.57243299,
 0.54023976\C,0,2.23908997,0.74458176,0.55489377\O,0,1.54388993,1.81391
 737,0.82354118\H,0,-2.62612338,-1.05863497,0.02185633\H,0,-2.41873635,
 0.69297414,0.15227212\H,0,-2.6868178,-0.04917407,-1.43243622\H,0,-0.50

 Normal termination of Gaussian 16 at Wed Apr  9 03:34:37 2025.
 Gaussian 16:  ES64L-G16RevC.01  3-Jul-2019

 ----------------------------------------------------------------------
 #t hf aug-cc-pvdz iop(5/13=1,5/36=2,99/5=2) pseudo=read geom=check gue
 ss=(read,tcheck) scf=(maxcycle=1)
 ----------------------------------------------------------------------
 -----
 title
 -----
 Structure from the checkpoint file:  "Grambow2020_wb97xd3_007087_forward_mol1.chk"
 Charge =  0 Multiplicity = 1

                         Standard orientation:
 ---------------------------------------------------------------------
 Center     Atomic      Atomic             Coordinates (Angstroms)
 Number     Number       Type             X           Y           Z
 ---------------------------------------------------------------------
      1          6           0       -2.482307   -0.077072   -0.489336
      2          6           0       -1.235519    0.132827    0.355203
      3          8           0       -0.705601   -1.102091    0.807039
      4          6           0       -0.186249    0.964474   -0.380042
      5          6           0        1.124262    1.097070    0.387620
      6          6           0        2.112295   -0.001771    0.196063
      7          8           0        1.865357   -0.911175   -0.704470
      8          1           0       -2.939054    0.877010   -0.761872
      9          1           0       -2.235618   -0.609793   -1.412064
     10          1           0       -3.215325   -0.666910    0.061322
     11          1           0       -1.513378    0.658686    1.274975
     12          1           0       -0.275410   -1.538754    0.065803
     13          1           0        0.009029    0.514801   -1.359836
     14          1           0       -0.600772    1.956663   -0.572409
     15          1           0        0.969679    1.198197    1.466493
     16          1           0        1.675931    2.000625    0.098419
     17          1           0        2.851971   -0.977566   -0.098426
 ---------------------------------------------------------------------

 SCF Done:  E(RHF) =  -345.136334191     A.U. after    2 cycles

 The electronic state is 1-A.
 Alpha  occ. eigenvalues --  -20.58824 -20.53928 -11.33119 -11.28636 -11.24909
 Alpha  occ. eigenvalues --  -11.23731 -11.22501  -1.51787  -1.44610  -1.08844
 Alpha  occ. eigenvalues --   -1.01640  -0.91412  -0.82436  -0.77336  -0.73101
 Alpha  occ. eigenvalues --   -0.67134  -0.65049  -0.63873  -0.59498  -0.57505
 Alpha  occ. eigenvalues --   -0.56780  -0.53877  -0.53118  -0.52268  -0.50755
 Alpha  occ. eigenvalues --   -0.46933  -0.43336  -0.35387
 Alpha virt. eigenvalues --    0.03398   0.03887   0.03977   0.04403   0.05821
 Alpha virt. eigenvalues --    0.06339   0.06815   0.06993   0.08620   0.09158
 Alpha virt. eigenvalues --    0.10664   0.11237   0.12763   0.13782   0.14571

 Mulliken charges:
               1
     1  C   -0.338816
     2  C    0.785087
     3  O   -1.401762
     4  C   -0.207653
     5  C   -0.434736
     6  C    0.437676
     7  O   -1.079851
     8  H    0.204240
     9  H    0.153381
    10  H    0.161733
    11  H    0.037225
    12  H    0.364119
    13  H    0.166918
    14  H    0.097944
    15  H    0.256055
    16  H    0.270745
    17  H    0.527698
 Sum of Mulliken charges =   0.00000

 Dipole moment (field-independent basis, Debye):
    X=             -0.2140    Y=              1.6897    Z=             -0.9351  Tot=              1.9430

 Test job not archived.
 1\1\GINC-SE072\SP\RHF\Aug-CC-pVDZ\C5H10O2\OHZDE\09-Apr-2025\0\\#t hf a
 ug-cc-pvdz iop(5/13=1,5/36=2,99/5=2) pseudo=read geom=check guess=(rea
 d,tcheck) scf=(maxcycle=1)\\title\\0,1\C,0,-2.19767571,-0.1808494,-0.4
 6711243\C,0,-0.69687335,-0.33547461,-0.65543759\O,0,-0.15579209,0.7485
 9389,-1.39165658\C,0,0.0243234,-0.53166451,0.6766937\C,0,1.54223149,-0
 .57243299,0.54023976\C,0,2.23908997,0.74458176,0.55489377\O,0,1.543889
 93,1.81391737,0.82354118\H,0,-2.62612338,-1.05863497,0.02185633\H,0,-2
 .41873635,0.69297414,0.15227212\H,0,-2.6868178,-0.04917407,-1.43243622

 Normal termination of Gaussian 16 at Wed Apr  9 03:34:43 2025.
