 Gaussian 16, Revision C.01,

 ----------------------------------------------------------------------
 #t hf aug-cc-pvdz symm=none int=(grid=ultrafine) guess=(read,tcheck) s
 table=(opt,rrhf)
 ----------------------------------------------------------------------
 -----
 title
 -----
 Symbolic Z-matrix:
 Charge =  0 Multiplicity = 1

 SCF Done:  E(RHF) =  -374.609584549     A.U. after   13 cycles
 Normal termination of Gaussian 16 at Wed Apr  9 19:21:45 2025.
 Gaussian 16:  ES64L-G16RevC.01  3-Jul-2019

 ----------------------------------------------------------------------
 #t hf aug-cc-pvdz iop(5/13=1,5/36=2,99/5=2) pseudo=read geom=check gue
 ss=(read,tcheck) scf=(maxcycle=1)
 ----------------------------------------------------------------------
 -----
 title
 -----
 Structure from the checkpoint file:  "Grambow2020_wb97xd3_009447_forward_mol2.chk"
 Charge =  0 Multiplicity = 1

                         Standard orientation:
 ---------------------------------------------------------------------
 Center     Atomic      Atomic             Coordinates (Angstroms)
 Number     Number       Type             X           Y           Z
 ---------------------------------------------------------------------
      1          8           0       -2.298237   -0.551632   -0.000391
      2          6           0       -1.020119   -0.157297    0.000102
      3          7           0        0.029041   -0.932091    0.000509
      4          6           0        1.089886   -0.063424    0.000058
      5          8           0        2.353765   -0.525393   -0.000463
      6          6           0        0.682546    1.230654    0.000347
      7          7           0       -0.714622    1.144774   -0.000060
      8          1           0       -2.298358   -1.513300   -0.000535
      9          1           0        2.299502   -1.484705    0.001437
     10          1           0        1.212605    2.164716   -0.001912
     11          1           0       -1.372789    1.901110    0.001657
 ---------------------------------------------------------------------

 SCF Done:  E(RHF) =  -374.985050132     A.U. after    2 cycles

 The electronic state is 1-A.
 Alpha  occ. eigenvalues --  -20.60841 -20.57388 -15.55688 -15.48565 -11.37517
 Alpha  occ. eigenvalues --  -11.31627 -11.24812  -1.53886  -1.49715  -1.34267
 Alpha  occ. eigenvalues --   -1.19039  -1.01445  -0.87712  -0.85250  -0.80405
 Alpha  occ. eigenvalues --   -0.74985  -0.68188  -0.66363  -0.64247  -0.62946
 Alpha  occ. eigenvalues --   -0.58572  -0.56152  -0.53734  -0.50664  -0.44261
 Alpha  occ. eigenvalues --   -0.30962
 Alpha virt. eigenvalues --    0.03138   0.04288   0.05062   0.05315   0.09537
 Alpha virt. eigenvalues --    0.10124   0.10440   0.11897   0.12770   0.12984
 Alpha virt. eigenvalues --    0.13355   0.14447   0.15339   0.16439   0.17811

 Mulliken charges:
               1
     1  O   -1.338951
     2  C    0.151310
     3  N    0.781859
     4  C    0.226654
     5  O   -1.394161
     6  C    0.530932
     7  N    0.556560
     8  H    0.299859
     9  H    0.303268
    10  H   -0.136113
    11  H    0.018783
 Sum of Mulliken charges =  -0.00000

 Dipole moment (field-independent basis, Debye):
    X=             -1.9437    Y=              0.5638    Z=              0.0021  Tot=              2.0238

 Test job not archived.
 1\1\GINC-SE105\SP\RHF\Aug-CC-pVDZ\C3H4N2O2\OHZDE\09-Apr-2025\0\\#t hf
 aug-cc-pvdz iop(5/13=1,5/36=2,99/5=2) pseudo=read geom=check guess=(re
 ad,tcheck) scf=(maxcycle=1)\\title\\0,1\O,0,-2.30388738,0.62992283,-0.
 40651011\C,0,-1.02036037,0.25358462,-0.41017862\N,0,0.01641172,1.03718
 652,-0.30011036\C,0,1.09001559,0.18630801,-0.35803091\O,0,2.34616443,0
 .66134227,-0.2729578\C,0,0.7027138,-1.10575001,-0.50345833\N,0,-0.6950
 7556,-1.03765469,-0.53511349\H,0,-2.31874437,1.58635226,-0.30737342\H,
 0,2.27728645,1.61496969,-0.17768023\H,0,1.24675141,-2.02841785,-0.5818

 Normal termination of Gaussian 16 at Wed Apr  9 19:21:49 2025.
