 Gaussian 16, Revision C.01,

 ----------------------------------------------------------------------
 #t hf aug-cc-pvdz symm=none int=(grid=ultrafine) guess=(read,tcheck) s
 table=(opt,rrhf)
 ----------------------------------------------------------------------
 -----
 title
 -----
 Symbolic Z-matrix:
 Charge =  0 Multiplicity = 1

 SCF Done:  E(RHF) =  -338.663810407     A.U. after   14 cycles
 Normal termination of Gaussian 16 at Wed Apr  9 03:53:04 2025.
 Gaussian 16:  ES64L-G16RevC.01  3-Jul-2019

 ----------------------------------------------------------------------
 #t hf aug-cc-pvdz iop(5/13=1,5/36=2,99/5=2) pseudo=read geom=check gue
 ss=(read,tcheck) scf=(maxcycle=1)
 ----------------------------------------------------------------------
 -----
 title
 -----
 Structure from the checkpoint file:  "Grambow2020_wb97xd3_008314_forward_mol1.chk"
 Charge =  0 Multiplicity = 1

                         Standard orientation:
 ---------------------------------------------------------------------
 Center     Atomic      Atomic             Coordinates (Angstroms)
 Number     Number       Type             X           Y           Z
 ---------------------------------------------------------------------
      1          6           0        2.439176   -0.347811   -0.000641
      2          8           0        1.453847    0.676938    0.014175
      3          6           0        0.187281    0.272662   -0.010874
      4          6           0       -0.915620    1.130189   -0.021446
      5          7           0       -2.029342    0.379920   -0.082176
      6          6           0       -1.528792   -0.945065   -0.017606
      7          7           0       -0.190760   -1.004534    0.003229
      8          1           0        2.340624   -0.993447    0.873340
      9          1           0        3.398018    0.164405    0.013544
     10          1           0        2.348146   -0.956888   -0.901383
     11          1           0       -0.946290    2.204987    0.050040
     12          1           0       -2.147830   -0.342911    0.958804
     13          1           0       -2.174998   -1.779201   -0.251712
 ---------------------------------------------------------------------

 SCF Done:  E(RHF) =  -339.010881884     A.U. after    2 cycles

 The electronic state is 1-A.
 Alpha  occ. eigenvalues --  -20.58277 -15.56265 -15.50217 -11.33623 -11.32395
 Alpha  occ. eigenvalues --  -11.29278 -11.25699  -1.52171  -1.35554  -1.18832
 Alpha  occ. eigenvalues --   -1.03748  -0.95739  -0.84684  -0.81831  -0.75382
 Alpha  occ. eigenvalues --   -0.70030  -0.67659  -0.65479  -0.62847  -0.60390
 Alpha  occ. eigenvalues --   -0.54080  -0.52125  -0.51748  -0.49888  -0.44664
 Alpha  occ. eigenvalues --   -0.35003
 Alpha virt. eigenvalues --    0.03443   0.04351   0.04774   0.05190   0.05926
 Alpha virt. eigenvalues --    0.06060   0.08689   0.09437   0.09778   0.11154
 Alpha virt. eigenvalues --    0.11303   0.13670   0.15065   0.15148   0.15411

 Mulliken charges:
               1
     1  C    0.170178
     2  O   -1.460584
     3  C    0.402991
     4  C   -0.240699
     5  N    0.482109
     6  C   -1.014491
     7  N    0.896141
     8  H    0.182540
     9  H   -0.015474
    10  H    0.197074
    11  H   -0.134693
    12  H    0.639734
    13  H   -0.104827
 Sum of Mulliken charges =  -0.00000

 Dipole moment (field-independent basis, Debye):
    X=              0.4804    Y=             -0.4518    Z=              0.7591  Tot=              1.0056

 Test job not archived.
 1\1\GINC-SE127\SP\RHF\Aug-CC-pVDZ\C4H6N2O1\OHZDE\09-Apr-2025\0\\#t hf
 aug-cc-pvdz iop(5/13=1,5/36=2,99/5=2) pseudo=read geom=check guess=(re
 ad,tcheck) scf=(maxcycle=1)\\title\\0,1\C,0,2.21976966,0.36325125,-0.4
 2529549\O,0,1.31026716,-0.71661939,-0.25830032\C,0,0.04911353,-0.38572
 822,0.00296159\C,0,-0.98072215,-1.30520259,0.21711436\N,0,-2.10547582,
 -0.61978533,0.48562829\C,0,-1.70370674,0.73118838,0.33149285\N,0,-0.39
 868181,0.86740628,0.06194489\H,0,1.92291986,0.9942711,-1.26439984\H,0,
 3.1874099,-0.09301621,-0.61878007\H,0,2.26257832,0.9741383,0.47780043\

 Normal termination of Gaussian 16 at Wed Apr  9 03:53:08 2025.
