 Gaussian 16, Revision C.01,

 ----------------------------------------------------------------------
 #t hf aug-cc-pvdz symm=none int=(grid=ultrafine) guess=(read,tcheck) s
 table=(opt,rrhf)
 ----------------------------------------------------------------------
 -----
 title
 -----
 Symbolic Z-matrix:
 Charge =  0 Multiplicity = 1

 SCF Done:  E(RHF) =  -338.674176555     A.U. after   14 cycles
 Normal termination of Gaussian 16 at Wed Apr  9 19:01:46 2025.
 Gaussian 16:  ES64L-G16RevC.01  3-Jul-2019

 ----------------------------------------------------------------------
 #t hf aug-cc-pvdz iop(5/13=1,5/36=2,99/5=2) pseudo=read geom=check gue
 ss=(read,tcheck) scf=(maxcycle=1)
 ----------------------------------------------------------------------
 -----
 title
 -----
 Structure from the checkpoint file:  "Grambow2020_wb97xd3_008463_reverse_mol2.chk"
 Charge =  0 Multiplicity = 1

                         Standard orientation:
 ---------------------------------------------------------------------
 Center     Atomic      Atomic             Coordinates (Angstroms)
 Number     Number       Type             X           Y           Z
 ---------------------------------------------------------------------
      1          7           0        1.812899    0.709357    0.242011
      2          6           0        0.899156   -0.275794   -0.013077
      3          6           0       -0.534742    0.194576   -0.033841
      4          8           0       -0.579137    1.588510   -0.283893
      5          6           0       -1.568371   -0.469082    0.781507
      6          6           0       -1.607489   -0.701899   -0.491659
      7          7           0        1.125033   -1.517435   -0.180207
      8          1           0        1.504903    1.658315    0.122067
      9          1           0        2.782756    0.514937    0.071648
     10          1           0       -1.477503    1.888026   -0.136211
     11          1           0       -1.946275   -0.656208    1.772400
     12          1           0       -2.044973   -1.213803   -1.330994
     13          1           0        2.117349   -1.729600   -0.117981
 ---------------------------------------------------------------------

 SCF Done:  E(RHF) =  -339.020951951     A.U. after    2 cycles

 The electronic state is 1-A.
 Alpha  occ. eigenvalues --  -20.55708 -15.50928 -15.45311 -11.31845 -11.31318
 Alpha  occ. eigenvalues --  -11.26419 -11.26193  -1.46826  -1.25616  -1.18899
 Alpha  occ. eigenvalues --   -1.13804  -0.91289  -0.79284  -0.78086  -0.75102
 Alpha  occ. eigenvalues --   -0.73388  -0.71049  -0.62828  -0.61729  -0.58727
 Alpha  occ. eigenvalues --   -0.54126  -0.51432  -0.45878  -0.42484  -0.40206
 Alpha  occ. eigenvalues --   -0.38624
 Alpha virt. eigenvalues --    0.03334   0.04009   0.04286   0.04668   0.06101
 Alpha virt. eigenvalues --    0.07399   0.08989   0.09915   0.11919   0.12295
 Alpha virt. eigenvalues --    0.12935   0.13436   0.14206   0.15135   0.15806

 Mulliken charges:
               1
     1  N    0.753495
     2  C   -2.635973
     3  C    1.731240
     4  O   -1.637096
     5  C    0.355857
     6  C    0.376690
     7  N    0.882739
     8  H    0.095460
     9  H    0.034442
    10  H    0.364317
    11  H   -0.182778
    12  H   -0.199127
    13  H    0.060734
 Sum of Mulliken charges =  -0.00000

 Dipole moment (field-independent basis, Debye):
    X=             -0.7334    Y=              1.9930    Z=              0.4507  Tot=              2.1710

 Test job not archived.
 1\1\GINC-SE145\SP\RHF\Aug-CC-pVDZ\C4H6N2O1\OHZDE\09-Apr-2025\0\\#t hf
 aug-cc-pvdz iop(5/13=1,5/36=2,99/5=2) pseudo=read geom=check guess=(re
 ad,tcheck) scf=(maxcycle=1)\\title\\0,1\N,0,1.83903082,0.51780436,-0.2
 1717837\C,0,0.49245134,0.74414654,-0.13964134\C,0,-0.32742319,-0.48036
 856,0.1861037\O,0,0.48849537,-1.4495826,0.82049391\C,0,-1.47466256,-0.
 8765055,-0.65087986\C,0,-1.75917654,-0.35759186,0.50084284\N,0,-0.1230
 397,1.83727493,-0.35612782\H,0,2.18331627,-0.3288058,0.20053911\H,0,2.
 45522192,1.31005094,-0.22722087\H,0,-0.00845451,-2.26742868,0.87292652

 Normal termination of Gaussian 16 at Wed Apr  9 19:01:50 2025.
