 Gaussian 16, Revision C.01,

 ----------------------------------------------------------------------
 #t hf aug-cc-pvdz symm=none int=(grid=ultrafine) guess=(read,tcheck) s
 table=(opt,rrhf)
 ----------------------------------------------------------------------
 -----
 title
 -----
 Symbolic Z-matrix:
 Charge =  0 Multiplicity = 1

 SCF Done:  E(RHF) =  -306.701125190     A.U. after   14 cycles
 Normal termination of Gaussian 16 at Wed Apr  9 19:08:57 2025.
 Gaussian 16:  ES64L-G16RevC.01  3-Jul-2019

 ----------------------------------------------------------------------
 #t hf aug-cc-pvdz iop(5/13=1,5/36=2,99/5=2) pseudo=read geom=check gue
 ss=(read,tcheck) scf=(maxcycle=1)
 ----------------------------------------------------------------------
 -----
 title
 -----
 Structure from the checkpoint file:  "Grambow2020_wb97xd3_008783_reverse_mol2.chk"
 Charge =  0 Multiplicity = 1

                         Standard orientation:
 ---------------------------------------------------------------------
 Center     Atomic      Atomic             Coordinates (Angstroms)
 Number     Number       Type             X           Y           Z
 ---------------------------------------------------------------------
      1          8           0       -2.741507    0.203379   -0.589490
      2          6           0       -1.823638    0.211683    0.116620
      3          6           0        1.863241    1.217924   -0.327054
      4          6           0        1.675110   -0.215070    0.092079
      5          6           0        0.783378   -1.129681   -0.690864
      6          6           0        0.377513   -0.699257    0.691722
      7          6           0       -0.772481    0.225529    0.898142
      8          1           0        0.933607    1.642832   -0.708646
      9          1           0        2.190669    1.834286    0.513489
     10          1           0        2.617061    1.294904   -1.113255
     11          1           0        2.559329   -0.679052    0.516123
     12          1           0        0.247050   -0.697222   -1.527813
     13          1           0        1.079989   -2.159654   -0.836727
     14          1           0        0.481903   -1.454186    1.463766
     15          1           0       -0.796293    0.924294    1.725110
 ---------------------------------------------------------------------

 SCF Done:  E(RHF) =  -307.018429030     A.U. after    2 cycles

 The electronic state is 1-A.
 Alpha  occ. eigenvalues --  -20.60891 -11.38042 -11.25549 -11.24474 -11.24252
 Alpha  occ. eigenvalues --  -11.23782 -11.22802  -1.55173  -1.17189  -1.05492
 Alpha  occ. eigenvalues --   -0.97010  -0.84351  -0.79145  -0.74297  -0.69581
 Alpha  occ. eigenvalues --   -0.67765  -0.65090  -0.63527  -0.57978  -0.57670
 Alpha  occ. eigenvalues --   -0.55581  -0.53160  -0.50915  -0.43606  -0.43092
 Alpha  occ. eigenvalues --   -0.34481
 Alpha virt. eigenvalues --    0.03259   0.03594   0.03960   0.04348   0.06018
 Alpha virt. eigenvalues --    0.06440   0.07128   0.07267   0.08507   0.11780
 Alpha virt. eigenvalues --    0.12199   0.13121   0.13683   0.14096   0.14490

 Mulliken charges:
               1
     1  O   -0.912865
     2  C    0.144402
     3  C   -0.626305
     4  C    0.217861
     5  C    0.224067
     6  C    0.227781
     7  C    0.833359
     8  H    0.199153
     9  H    0.197579
    10  H    0.177991
    11  H   -0.167380
    12  H   -0.094066
    13  H   -0.135905
    14  H   -0.158399
    15  H   -0.127272
 Sum of Mulliken charges =  -0.00000

 Dipole moment (field-independent basis, Debye):
    X=              1.7384    Y=             -0.0472    Z=              0.9224  Tot=              1.9685

 Test job not archived.
 1\1\GINC-SE220\SP\RHF\Aug-CC-pVDZ\C6H8O1\OHZDE\09-Apr-2025\0\\#t hf au
 g-cc-pvdz iop(5/13=1,5/36=2,99/5=2) pseudo=read geom=check guess=(read
 ,tcheck) scf=(maxcycle=1)\\title\\0,1\O,0,2.25137077,-1.90257878,-1.65
 27123\C,0,1.83032876,-1.40835308,-0.69374994\C,0,-1.69491318,-0.344021
 46,0.42084038\C,0,-0.70478807,0.78872042,0.38791748\C,0,0.08553648,1.0
 7731529,-0.85175925\C,0,0.78320094,0.53736019,0.36612733\C,0,1.3347044
 9,-0.84681767,0.38092833\H,0,-1.32977894,-1.20389915,-0.14277937\H,0,-
 1.88285683,-0.67306381,1.44555124\H,0,-2.6485707,-0.03653453,-0.013062

 Normal termination of Gaussian 16 at Wed Apr  9 19:09:02 2025.
