 Gaussian 16, Revision C.01,

 ----------------------------------------------------------------------
 #t hf aug-cc-pvdz symm=none int=(grid=ultrafine) guess=(read,tcheck) s
 table=(opt,rrhf)
 ----------------------------------------------------------------------
 -----
 title
 -----
 Symbolic Z-matrix:
 Charge =  0 Multiplicity = 1

 SCF Done:  E(RHF) =  -268.685955865     A.U. after   16 cycles
 Normal termination of Gaussian 16 at Wed Apr  9 16:00:55 2025.
 Gaussian 16:  ES64L-G16RevC.01  3-Jul-2019

 ----------------------------------------------------------------------
 #t hf aug-cc-pvdz iop(5/13=1,5/36=2,99/5=2) pseudo=read geom=check gue
 ss=(read,tcheck) scf=(maxcycle=1)
 ----------------------------------------------------------------------
 -----
 title
 -----
 Structure from the checkpoint file:  "Grambow2020_b97d3_007089_reverse_mol1.chk"
 Charge =  0 Multiplicity = 1

                         Standard orientation:
 ---------------------------------------------------------------------
 Center     Atomic      Atomic             Coordinates (Angstroms)
 Number     Number       Type             X           Y           Z
 ---------------------------------------------------------------------
      1          6           0       -1.820868   -0.674683   -0.247968
      2          6           0       -0.653920   -1.296128    0.252695
      3          6           0        1.017475    0.002971    0.458844
      4          8           0        1.969624   -0.489439   -0.421319
      5          6           0        0.406334    1.233333    0.258451
      6          6           0       -0.725020    1.721181   -0.100952
      7          1           0       -1.493592    0.710169   -0.289227
      8          1           0       -2.692085   -0.609455    0.409899
      9          1           0       -2.072253   -0.824350   -1.301965
     10          1           0       -0.060463   -1.923109   -0.413113
     11          1           0       -0.660144   -1.630005    1.291584
     12          1           0        1.283591   -0.305319    1.470611
     13          1           0        1.755685   -0.128970   -1.304563
     14          1           0       -1.161737    2.706514   -0.219097
 ---------------------------------------------------------------------

 SCF Done:  E(RHF) =  -268.966776941     A.U. after    2 cycles

 The electronic state is 1-A.
 Alpha  occ. eigenvalues --  -20.57951 -11.33319 -11.25489 -11.25288 -11.24523
 Alpha  occ. eigenvalues --  -11.24220  -1.48151  -1.08101  -1.01699  -0.93572
 Alpha  occ. eigenvalues --   -0.81276  -0.77551  -0.67134  -0.65610  -0.63185
 Alpha  occ. eigenvalues --   -0.61912  -0.59197  -0.55897  -0.54237  -0.50844
 Alpha  occ. eigenvalues --   -0.39416  -0.36023  -0.33163
 Alpha virt. eigenvalues --    0.03506   0.03928   0.04103   0.04702   0.05886
 Alpha virt. eigenvalues --    0.06173   0.07320   0.07872   0.09486   0.10456
 Alpha virt. eigenvalues --    0.11793   0.13164   0.13989   0.14326   0.15017

 Mulliken charges:
               1
     1  C   -0.564916
     2  C   -0.191960
     3  C    0.699307
     4  O   -1.208927
     5  C    0.046781
     6  C   -0.084395
     7  H    0.738640
     8  H    0.088418
     9  H    0.115729
    10  H    0.104491
    11  H    0.067411
    12  H    0.083210
    13  H    0.323491
    14  H   -0.217280
 Sum of Mulliken charges =  -0.00000

 Dipole moment (field-independent basis, Debye):
    X=             -1.3506    Y=             -0.3170    Z=             -0.5554  Tot=              1.4944

 Test job not archived.
 1\1\GINC-SE041\SP\RHF\Aug-CC-pVDZ\C5H8O1\OHZDE\09-Apr-2025\0\\#t hf au
 g-cc-pvdz iop(5/13=1,5/36=2,99/5=2) pseudo=read geom=check guess=(read
 ,tcheck) scf=(maxcycle=1)\\title\\0,1\C,0,-1.17150746,0.64907585,-0.96
 472743\C,0,-1.20157598,-0.21828287,0.15125129\C,0,0.70983061,-0.674590
 53,0.96489997\O,0,0.86444168,-2.04077602,0.78221304\C,0,1.49819073,0.2
 4553367,0.28718306\C,0,1.41216921,1.09652261,-0.66965901\H,0,0.1884952
 ,1.05970935,-1.05638878\H,0,-1.62631523,1.63818256,-0.86042116\H,0,-1.
 28736618,0.21133276,-1.96044948\H,0,-1.36616702,-1.28383127,-0.0103459

 Normal termination of Gaussian 16 at Wed Apr  9 16:00:59 2025.
