 Gaussian 16, Revision C.01,

 ----------------------------------------------------------------------
 #t hf aug-cc-pvdz symm=none int=(grid=ultrafine) guess=(read,tcheck) s
 table=(opt,rrhf)
 ----------------------------------------------------------------------
 -----
 title
 -----
 Symbolic Z-matrix:
 Charge =  0 Multiplicity = 1

 SCF Done:  E(RHF) =  -302.760068935     A.U. after   16 cycles
 Normal termination of Gaussian 16 at Wed Apr  9 19:13:03 2025.
 Gaussian 16:  ES64L-G16RevC.01  3-Jul-2019

 ----------------------------------------------------------------------
 #t hf aug-cc-pvdz iop(5/13=1,5/36=2,99/5=2) pseudo=read geom=check gue
 ss=(read,tcheck) scf=(maxcycle=1)
 ----------------------------------------------------------------------
 -----
 title
 -----
 Structure from the checkpoint file:  "Grambow2020_wb97xd3_008903_reverse_mol1.chk"
 Charge =  0 Multiplicity = 1

                         Standard orientation:
 ---------------------------------------------------------------------
 Center     Atomic      Atomic             Coordinates (Angstroms)
 Number     Number       Type             X           Y           Z
 ---------------------------------------------------------------------
      1          6           0       -1.972939   -1.324641    0.004885
      2          7           0       -0.625140   -0.818856   -0.077905
      3          6           0        2.616821   -0.949756    0.243285
      4          6           0        1.928310    0.160025   -0.022599
      5          6           0        0.903666    1.003416   -0.090705
      6          6           0       -0.454683    0.443467   -0.038318
      7          7           0       -1.464241    1.386174    0.012447
      8          1           0       -2.590551   -1.002287   -0.844793
      9          1           0       -1.951526   -2.413843   -0.001829
     10          1           0       -2.487625   -1.017168    0.927971
     11          1           0        3.014499   -1.463097   -0.639957
     12          1           0        3.056885    0.495749    0.013535
     13          1           0        1.060151    2.065567   -0.209217
     14          1           0       -2.378458    1.068276    0.281763
     15          1           0       -1.224762    2.300509    0.351444
 ---------------------------------------------------------------------

 SCF Done:  E(RHF) =  -303.075035668     A.U. after    2 cycles

 The electronic state is 1-A.
 Alpha  occ. eigenvalues --  -15.51830 -15.45353 -11.31420 -11.30153 -11.29087
 Alpha  occ. eigenvalues --  -11.24322 -11.23993  -1.26682  -1.16018  -1.12659
 Alpha  occ. eigenvalues --   -1.00886  -0.93012  -0.82193  -0.75869  -0.71427
 Alpha  occ. eigenvalues --   -0.69190  -0.64409  -0.62778  -0.61183  -0.56747
 Alpha  occ. eigenvalues --   -0.53805  -0.52703  -0.48265  -0.43167  -0.39962
 Alpha  occ. eigenvalues --   -0.32064
 Alpha virt. eigenvalues --    0.02860   0.03731   0.04311   0.05171   0.05408
 Alpha virt. eigenvalues --    0.06057   0.07026   0.08129   0.08906   0.09424
 Alpha virt. eigenvalues --    0.10607   0.10891   0.12951   0.13138   0.14070

 Mulliken charges:
               1
     1  C   -0.434732
     2  N    1.050326
     3  C   -0.540987
     4  C    0.008465
     5  C    1.573530
     6  C   -2.922078
     7  N    0.860068
     8  H    0.161113
     9  H   -0.070197
    10  H    0.154874
    11  H    0.113231
    12  H    0.199597
    13  H   -0.266888
    14  H    0.038517
    15  H    0.075160
 Sum of Mulliken charges =  -0.00000

 Dipole moment (field-independent basis, Debye):
    X=             -0.2049    Y=              2.9109    Z=             -0.4872  Tot=              2.9585

 Test job not archived.
 1\1\GINC-SE113\SP\RHF\Aug-CC-pVDZ\C5H8N2\OHZDE\09-Apr-2025\0\\#t hf au
 g-cc-pvdz iop(5/13=1,5/36=2,99/5=2) pseudo=read geom=check guess=(read
 ,tcheck) scf=(maxcycle=1)\\title\\0,1\C,0,-1.92721529,-1.06439308,0.37
 592959\N,0,-0.53608567,-0.74726059,0.16755582\C,0,2.67989309,-1.107334
 01,0.56559739\C,0,2.10481023,-0.06342189,-0.03096166\C,0,1.17111013,0.
 82129054,-0.36462273\C,0,-0.23652943,0.44476154,-0.16923884\N,0,-1.143
 22915,1.45769531,-0.41892259\H,0,-2.5214126,-0.94934845,-0.54113348\H,
 0,-2.01768528,-2.10198064,0.69544625\H,0,-2.39352874,-0.4440159,1.1564

 Normal termination of Gaussian 16 at Wed Apr  9 19:13:08 2025.
