 Gaussian 16, Revision C.01,

 ----------------------------------------------------------------------
 #t hf aug-cc-pvdz symm=none int=(grid=ultrafine) guess=(read,tcheck) s
 table=(opt,rrhf)
 ----------------------------------------------------------------------
 -----
 title
 -----
 Symbolic Z-matrix:
 Charge =  0 Multiplicity = 1

 SCF Done:  E(RHF) =  -305.337516687     A.U. after   19 cycles
 Normal termination of Gaussian 16 at Wed Apr  9 18:55:46 2025.
 Gaussian 16:  ES64L-G16RevC.01  3-Jul-2019

 ----------------------------------------------------------------------
 #t hf aug-cc-pvdz iop(5/13=1,5/36=2,99/5=2) pseudo=read geom=check gue
 ss=(read,tcheck) scf=(maxcycle=1)
 ----------------------------------------------------------------------
 -----
 title
 -----
 Structure from the checkpoint file:  "Grambow2020_wb97xd3_008358_reverse_mol2.chk"
 Charge =  0 Multiplicity = 1

                         Standard orientation:
 ---------------------------------------------------------------------
 Center     Atomic      Atomic             Coordinates (Angstroms)
 Number     Number       Type             X           Y           Z
 ---------------------------------------------------------------------
      1          6           0        2.423600    0.268609   -0.370566
      2          6           0        1.166123    0.370911    0.063553
      3          6           0        0.139430    1.277139    0.137189
      4          6           0       -1.155628    1.168553    0.068794
      5          6           0       -1.674082   -0.224454   -0.298340
      6          8           0       -0.653335   -1.190133   -0.269125
      7          6           0        0.402074   -0.931300    0.599998
      8          1           0        2.696998   -0.700341   -0.796595
      9          1           0       -1.864748    1.909874    0.411673
     10          1           0       -2.442189   -0.465679    0.447144
     11          1           0       -2.119445   -0.275212   -1.292474
     12          1           0        1.062268   -1.792089    0.551965
     13          1           0        0.084696   -0.732234    1.627511
 ---------------------------------------------------------------------

 SCF Done:  E(RHF) =  -305.646141290     A.U. after    2 cycles

 The electronic state is 1-A.
 Alpha  occ. eigenvalues --  -20.57939 -11.33569 -11.31979 -11.28961 -11.27022
 Alpha  occ. eigenvalues --  -11.26582 -11.25713  -1.50837  -1.13633  -1.07300
 Alpha  occ. eigenvalues --   -0.96893  -0.88888  -0.85206  -0.70957  -0.69830
 Alpha  occ. eigenvalues --   -0.69559  -0.65476  -0.61512  -0.59939  -0.56620
 Alpha  occ. eigenvalues --   -0.51884  -0.46489  -0.44698  -0.36626  -0.32123
 Alpha virt. eigenvalues --   -0.00077   0.03049   0.03879   0.04018   0.04736
 Alpha virt. eigenvalues --    0.06060   0.06608   0.09032   0.09521   0.10382
 Alpha virt. eigenvalues --    0.11700   0.11915   0.12900   0.13734   0.13996

 Mulliken charges:
               1
     1  C   -0.640764
     2  C    0.865541
     3  C   -0.265598
     4  C    0.232272
     5  C    0.456882
     6  O   -1.233339
     7  C    0.224301
     8  H   -0.001233
     9  H   -0.078757
    10  H    0.165371
    11  H    0.078537
    12  H   -0.085259
    13  H    0.282045
 Sum of Mulliken charges =  -0.00000

 Dipole moment (field-independent basis, Debye):
    X=             -3.3110    Y=             -1.5055    Z=              0.8227  Tot=              3.7291

 Test job not archived.
 1\1\GINC-SE219\SP\RHF\Aug-CC-pVDZ\C6H6O1\OHZDE\09-Apr-2025\0\\#t hf au
 g-cc-pvdz iop(5/13=1,5/36=2,99/5=2) pseudo=read geom=check guess=(read
 ,tcheck) scf=(maxcycle=1)\\title\\0,1\C,0,2.53058269,-0.7081687,0.1986
 1385\C,0,1.32812234,-0.22993258,0.52350031\C,0,0.72373568,0.92936751,0
 .93763918\C,0,-0.44662659,1.45492191,0.71926103\C,0,-1.30821486,0.7209
 7584,-0.31177676\O,0,-0.75969323,-0.52387658,-0.66502094\C,0,0.0261442
 5,-1.1379821,0.30533576\H,0,2.54263532,-1.43767287,-0.61550475\H,0,-0.
 90470694,2.23229102,1.31577787\H,0,-2.28838698,0.58017484,0.16083574\H

 Normal termination of Gaussian 16 at Wed Apr  9 18:55:51 2025.
