 Gaussian 16, Revision C.01,

 ----------------------------------------------------------------------
 #t hf aug-cc-pvdz symm=none int=(grid=ultrafine) guess=(read,tcheck) s
 table=(opt,rrhf)
 ----------------------------------------------------------------------
 -----
 title
 -----
 Symbolic Z-matrix:
 Charge =  0 Multiplicity = 1

 SCF Done:  E(RHF) =  -358.293906770     A.U. after   17 cycles
 Normal termination of Gaussian 16 at Wed Apr  9 03:34:07 2025.
 Gaussian 16:  ES64L-G16RevC.01  3-Jul-2019

 ----------------------------------------------------------------------
 #t hf aug-cc-pvdz iop(5/13=1,5/36=2,99/5=2) pseudo=read geom=check gue
 ss=(read,tcheck) scf=(maxcycle=1)
 ----------------------------------------------------------------------
 -----
 title
 -----
 Structure from the checkpoint file:  "Grambow2020_wb97xd3_007073_reverse_mol1.chk"
 Charge =  0 Multiplicity = 1

                         Standard orientation:
 ---------------------------------------------------------------------
 Center     Atomic      Atomic             Coordinates (Angstroms)
 Number     Number       Type             X           Y           Z
 ---------------------------------------------------------------------
      1          8           0        2.124688   -0.490148    0.061732
      2          6           0        0.988361   -0.108531    0.072472
      3          7           0        0.525881    1.137019   -0.328059
      4          6           0       -0.814699    1.237346   -0.051629
      5          6           0       -1.433498   -0.082705    0.017952
      6          8           0       -0.949159   -1.313265   -0.577345
      7          6           0       -0.279684   -0.785764    0.535221
      8          1           0        1.101899    1.860028   -0.727759
      9          1           0       -1.319991    2.178698   -0.226446
     10          1           0       -0.740318    1.026342    1.609099
     11          1           0       -2.383583   -0.181885    0.524761
     12          1           0       -0.506291    0.022906    1.797573
 ---------------------------------------------------------------------

 SCF Done:  E(RHF) =  -358.649490317     A.U. after    2 cycles

 The electronic state is 1-A.
 Alpha  occ. eigenvalues --  -20.61978 -20.53950 -15.58476 -11.38684 -11.38181
 Alpha  occ. eigenvalues --  -11.32131 -11.31675  -1.54525  -1.48904  -1.32807
 Alpha  occ. eigenvalues --   -1.07482  -1.00049  -0.88612  -0.83056  -0.77208
 Alpha  occ. eigenvalues --   -0.73248  -0.68986  -0.68046  -0.64191  -0.61818
 Alpha  occ. eigenvalues --   -0.57192  -0.53597  -0.49640  -0.44724  -0.40245
 Alpha  occ. eigenvalues --   -0.35024
 Alpha virt. eigenvalues --    0.00964   0.02558   0.03592   0.04609   0.05870
 Alpha virt. eigenvalues --    0.07287   0.08930   0.09451   0.10700   0.10849
 Alpha virt. eigenvalues --    0.12191   0.13032   0.13751   0.14341   0.14851

 Mulliken charges:
               1
     1  O   -1.213712
     2  C    0.911384
     3  N    0.818655
     4  C   -0.684001
     5  C    1.309013
     6  O   -1.272837
     7  C   -0.364123
     8  H    0.069615
     9  H   -0.104010
    10  H    0.167346
    11  H    0.010737
    12  H    0.351932
 Sum of Mulliken charges =   0.00000

 Dipole moment (field-independent basis, Debye):
    X=             -2.9745    Y=              4.4614    Z=             -0.8073  Tot=              5.4225

 Test job not archived.
 1\1\GINC-SE335\SP\RHF\Aug-CC-pVDZ\C4H5N1O2\OHZDE\09-Apr-2025\0\\#t hf
 aug-cc-pvdz iop(5/13=1,5/36=2,99/5=2) pseudo=read geom=check guess=(re
 ad,tcheck) scf=(maxcycle=1)\\title\\0,1\O,0,0.99077382,2.27284893,0.71
 380123\C,0,0.53978518,1.19668556,0.43909015\N,0,1.25377356,0.06645523,
 0.0669251\C,0,0.37941035,-0.93107833,-0.28528152\C,0,-0.91973563,-0.73
 488449,0.35034036\O,0,-1.20627539,0.03360286,1.54640275\C,0,-0.8882626
 3,0.7114998,0.36167388\H,0,2.25871632,0.00997768,0.03229507\H,0,0.7707
 5008,-1.85966826,-0.68100546\H,0,-0.38995562,-0.14858857,-1.55171614\H

 Normal termination of Gaussian 16 at Wed Apr  9 03:34:12 2025.
