 Gaussian 16, Revision C.01,

 ----------------------------------------------------------------------
 #t hf aug-cc-pvdz symm=none int=(grid=ultrafine) guess=(read,tcheck) s
 table=(opt,rrhf)
 ----------------------------------------------------------------------
 -----
 title
 -----
 Symbolic Z-matrix:
 Charge =  0 Multiplicity = 1

 SCF Done:  E(RHF) =  -302.768966539     A.U. after   17 cycles
 Normal termination of Gaussian 16 at Wed Apr  9 18:03:47 2025.
 Gaussian 16:  ES64L-G16RevC.01  3-Jul-2019

 ----------------------------------------------------------------------
 #t hf aug-cc-pvdz iop(5/13=1,5/36=2,99/5=2) pseudo=read geom=check gue
 ss=(read,tcheck) scf=(maxcycle=1)
 ----------------------------------------------------------------------
 -----
 title
 -----
 Structure from the checkpoint file:  "Grambow2020_wb97xd3_006957_forward_mol1.chk"
 Charge =  0 Multiplicity = 1

                         Standard orientation:
 ---------------------------------------------------------------------
 Center     Atomic      Atomic             Coordinates (Angstroms)
 Number     Number       Type             X           Y           Z
 ---------------------------------------------------------------------
      1          6           0        0.781934    1.564301    0.136535
      2          6           0        0.872040    0.071530   -0.085584
      3          6           0        2.226942   -0.497056   -0.442647
      4          7           0        0.211900   -0.741275    0.964101
      5          6           0       -0.635600   -1.037176   -0.157281
      6          6           0       -1.831560   -0.215586   -0.200513
      7          7           0       -2.849509    0.322206   -0.266341
      8          1           0        1.175102    2.106830   -0.723341
      9          1           0        1.376831    1.837774    1.011273
     10          1           0       -0.247847    1.885204    0.302190
     11          1           0        2.893464   -0.375427    0.412892
     12          1           0        2.135907   -1.561076   -0.655996
     13          1           0        2.655682    0.012228   -1.306792
     14          1           0       -0.234992   -0.096764    1.612979
     15          1           0        0.226585   -0.191365   -1.040584
 ---------------------------------------------------------------------

 SCF Done:  E(RHF) =  -303.083551194     A.U. after    2 cycles

 The electronic state is 1-A.
 Alpha  occ. eigenvalues --  -15.54278 -15.52850 -11.33969 -11.33811 -11.28666
 Alpha  occ. eigenvalues --  -11.26768 -11.25639  -1.30949  -1.24239  -1.07592
 Alpha  occ. eigenvalues --   -0.98611  -0.95797  -0.85486  -0.75249  -0.68804
 Alpha  occ. eigenvalues --   -0.65917  -0.63178  -0.61812  -0.58739  -0.56608
 Alpha  occ. eigenvalues --   -0.56013  -0.55112  -0.54525  -0.51348  -0.48801
 Alpha  occ. eigenvalues --   -0.37844
 Alpha virt. eigenvalues --    0.02746   0.03434   0.03844   0.04660   0.05709
 Alpha virt. eigenvalues --    0.06079   0.06795   0.07043   0.07638   0.09221
 Alpha virt. eigenvalues --    0.11362   0.12269   0.13079   0.13611   0.13778

 Mulliken charges:
               1
     1  C   -0.026387
     2  C   -1.762806
     3  C   -0.181518
     4  N    0.397242
     5  C   -0.394546
     6  C   -1.368260
     7  N    0.940280
     8  H    0.156487
     9  H    0.268731
    10  H    0.162665
    11  H    0.243518
    12  H    0.218333
    13  H    0.209271
    14  H    0.361344
    15  H    0.775646
 Sum of Mulliken charges =  -0.00000

 Dipole moment (field-independent basis, Debye):
    X=              4.8038    Y=              1.9767    Z=              0.2160  Tot=              5.1990

 Test job not archived.
 1\1\GINC-SE030\SP\RHF\Aug-CC-pVDZ\C5H8N2\OHZDE\09-Apr-2025\0\\#t hf au
 g-cc-pvdz iop(5/13=1,5/36=2,99/5=2) pseudo=read geom=check guess=(read
 ,tcheck) scf=(maxcycle=1)\\title\\0,1\C,0,-0.6437672,1.23106603,-0.013
 20007\C,0,-0.22973492,-0.22022079,0.07717011\C,0,-1.27361185,-1.213014
 87,0.53676063\N,0,0.49580291,-0.72184153,-1.11457075\C,0,1.54327348,-0
 .78530347,-0.13370837\C,0,2.4154449,0.37489393,-0.15511678\N,0,3.21245
 969,1.20827305,-0.15976962\H,0,-1.06090531,1.57306996,0.93407785\H,0,-
 1.41202989,1.34224355,-0.78213922\H,0,0.19942284,1.87509021,-0.2684081

 Normal termination of Gaussian 16 at Wed Apr  9 18:03:53 2025.
