 Gaussian 16, Revision C.01,

 ----------------------------------------------------------------------
 #t hf aug-cc-pvdz symm=none int=(grid=ultrafine) guess=(read,tcheck) s
 table=(opt,rrhf)
 ----------------------------------------------------------------------
 -----
 title
 -----
 Symbolic Z-matrix:
 Charge =  0 Multiplicity = 1

 SCF Done:  E(RHF) =  -305.751173674     A.U. after   15 cycles
 Normal termination of Gaussian 16 at Wed Apr  9 15:47:51 2025.
 Gaussian 16:  ES64L-G16RevC.01  3-Jul-2019

 ----------------------------------------------------------------------
 #t hf aug-cc-pvdz iop(5/13=1,5/36=2,99/5=2) pseudo=read geom=check gue
 ss=(read,tcheck) scf=(maxcycle=1)
 ----------------------------------------------------------------------
 -----
 title
 -----
 Structure from the checkpoint file:  "Grambow2020_b97d3_006750_reverse_mol1.chk"
 Charge =  0 Multiplicity = 1

                         Standard orientation:
 ---------------------------------------------------------------------
 Center     Atomic      Atomic             Coordinates (Angstroms)
 Number     Number       Type             X           Y           Z
 ---------------------------------------------------------------------
      1          6           0        2.382935    0.119548    0.486927
      2          6           0        1.358879   -0.538405   -0.455420
      3          6           0       -0.037468   -0.001689   -0.223760
      4          8           0       -0.286649    1.240010   -0.260491
      5          6           0       -1.126231   -0.896598   -0.006990
      6          8           0       -2.364995    0.055549    0.344876
      7          1           0        2.353740    1.209926    0.374293
      8          1           0        3.397594   -0.232316    0.257502
      9          1           0        2.164922   -0.122717    1.536183
     10          1           0        1.366521   -1.632856   -0.340806
     11          1           0        1.632959   -0.322018   -1.499896
     12          1           0       -2.275587   -0.531822   -0.629758
     13          1           0       -1.100195   -1.754319    0.660431
     14          1           0       -1.795490    0.924512    0.162430
 ---------------------------------------------------------------------

 SCF Done:  E(RHF) =  -306.068148129     A.U. after    2 cycles

 The electronic state is 1-A.
 Alpha  occ. eigenvalues --  -20.61757 -20.53263 -11.34741 -11.28446 -11.25865
 Alpha  occ. eigenvalues --  -11.24139  -1.50519  -1.43887  -1.07442  -0.98493
 Alpha  occ. eigenvalues --   -0.87557  -0.77949  -0.73050  -0.70034  -0.63989
 Alpha  occ. eigenvalues --   -0.62128  -0.60180  -0.56797  -0.54849  -0.53026
 Alpha  occ. eigenvalues --   -0.51628  -0.49457  -0.43602  -0.35341
 Alpha virt. eigenvalues --    0.03396   0.03895   0.04196   0.04516   0.06223
 Alpha virt. eigenvalues --    0.06910   0.07206   0.07577   0.10946   0.11550
 Alpha virt. eigenvalues --    0.12281   0.13409   0.14117   0.14661   0.15182

 Mulliken charges:
               1
     1  C   -0.396961
     2  C   -0.529402
     3  C    1.481349
     4  O   -1.612642
     5  C    0.138166
     6  O   -1.298377
     7  H    0.212708
     8  H    0.133198
     9  H    0.170595
    10  H    0.208265
    11  H    0.273218
    12  H    0.617567
    13  H   -0.017693
    14  H    0.620009
 Sum of Mulliken charges =   0.00000

 Dipole moment (field-independent basis, Debye):
    X=              0.9306    Y=             -1.9532    Z=             -0.0504  Tot=              2.1641

 Test job not archived.
 1\1\GINC-SE042\SP\RHF\Aug-CC-pVDZ\C4H8O2\OHZDE\09-Apr-2025\0\\#t hf au
 g-cc-pvdz iop(5/13=1,5/36=2,99/5=2) pseudo=read geom=check guess=(read
 ,tcheck) scf=(maxcycle=1)\\title\\0,1\C,0,-1.9735069,0.32743835,-0.474
 79074\C,0,-0.93482362,-0.57039114,0.22137703\C,0,0.42131342,0.09832878
 ,0.29362973\O,0,0.56826691,1.24958095,0.80183997\C,0,1.58572602,-0.582
 87379,-0.16828347\O,0,2.75584425,0.50566676,-0.06420389\H,0,-2.0362674
 2,1.29683108,0.03393397\H,0,-2.96424074,-0.14594453,-0.45657362\H,0,-1
 .69864396,0.50757669,-1.52319982\H,0,-0.85019477,-1.54149938,-0.289314

 Normal termination of Gaussian 16 at Wed Apr  9 15:47:55 2025.
