 Gaussian 16, Revision C.01,

 ----------------------------------------------------------------------
 #t hf aug-cc-pvdz symm=none int=(grid=ultrafine) guess=(read,tcheck) s
 table=(opt,rrhf)
 ----------------------------------------------------------------------
 -----
 title
 -----
 Symbolic Z-matrix:
 Charge =  0 Multiplicity = 1

 SCF Done:  E(RHF) =  -340.414033363     A.U. after   15 cycles
 Normal termination of Gaussian 16 at Wed Apr  9 03:20:21 2025.
 Gaussian 16:  ES64L-G16RevC.01  3-Jul-2019

 ----------------------------------------------------------------------
 #t hf aug-cc-pvdz iop(5/13=1,5/36=2,99/5=2) pseudo=read geom=check gue
 ss=(read,tcheck) scf=(maxcycle=1)
 ----------------------------------------------------------------------
 -----
 title
 -----
 Structure from the checkpoint file:  "Grambow2020_wb97xd3_006040_forward_mol1.chk"
 Charge =  0 Multiplicity = 1

                         Standard orientation:
 ---------------------------------------------------------------------
 Center     Atomic      Atomic             Coordinates (Angstroms)
 Number     Number       Type             X           Y           Z
 ---------------------------------------------------------------------
      1          8           0       -1.977776   -0.246680    0.082143
      2          6           0       -0.814772   -0.078873   -0.006411
      3          8           0       -0.215604    1.112339   -0.289249
      4          6           0        1.045569    1.342716    0.162457
      5          6           0        1.453959   -0.816446   -0.088846
      6          8           0        0.094785   -1.075700    0.073530
      7          1           0        1.762989    0.336248   -0.389701
      8          1           0        1.081346    1.074621    1.236285
      9          1           0        1.824191   -1.322635   -0.982718
     10          1           0        2.011697   -1.092292    0.801538
 ---------------------------------------------------------------------

 SCF Done:  E(RHF) =  -340.746930329     A.U. after    2 cycles

 The electronic state is 1-A.
 Alpha  occ. eigenvalues --  -20.63782 -20.63364 -20.56180 -11.46952 -11.36843
 Alpha  occ. eigenvalues --  -11.34952  -1.63386  -1.53284  -1.50615  -1.05299
 Alpha  occ. eigenvalues --   -0.94916  -0.87541  -0.77725  -0.74583  -0.70979
 Alpha  occ. eigenvalues --   -0.67159  -0.65511  -0.60962  -0.58135  -0.52129
 Alpha  occ. eigenvalues --   -0.49970  -0.48949  -0.39341
 Alpha virt. eigenvalues --    0.02570   0.03541   0.04611   0.05948   0.08232
 Alpha virt. eigenvalues --    0.08512   0.10462   0.10672   0.11142   0.11811
 Alpha virt. eigenvalues --    0.13847   0.14622   0.15321   0.16060   0.16777

 Mulliken charges:
               1
     1  O   -1.085417
     2  C    2.299637
     3  O   -1.107102
     4  C   -0.070981
     5  C    0.250154
     6  O   -1.155646
     7  H    0.521209
     8  H    0.207931
     9  H    0.071742
    10  H    0.068473
 Sum of Mulliken charges =  -0.00000

 Dipole moment (field-independent basis, Debye):
    X=              3.9519    Y=             -1.6524    Z=              0.6286  Tot=              4.3293

 Test job not archived.
 1\1\GINC-SE177\SP\RHF\Aug-CC-pVDZ\C3H4O3\OHZDE\09-Apr-2025\0\\#t hf au
 g-cc-pvdz iop(5/13=1,5/36=2,99/5=2) pseudo=read geom=check guess=(read
 ,tcheck) scf=(maxcycle=1)\\title\\0,1\O,0,2.58961299,0.01111895,-0.332
 77473\C,0,1.43496265,0.09878502,-0.1144261\O,0,0.77294385,1.26307023,0
 .13886893\C,0,-0.54765445,1.35435177,-0.16992694\C,0,-0.73649356,-0.79
 587189,0.3125596\O,0,0.61143327,-0.9665782,0.00452491\H,0,-1.10603523,
 0.35365855,0.55074836\H,0,-0.68609661,0.98391115,-1.20427194\H,0,-0.95
 427946,-1.24155078,1.28531149\H,0,-1.36912844,-1.1958238,-0.47468759\\

 Normal termination of Gaussian 16 at Wed Apr  9 03:20:25 2025.
