 Gaussian 16, Revision C.01,

 ----------------------------------------------------------------------
 #t hf aug-cc-pvdz symm=none int=(grid=ultrafine) guess=(read,tcheck) s
 table=(opt,rrhf)
 ----------------------------------------------------------------------
 -----
 title
 -----
 Symbolic Z-matrix:
 Charge =  0 Multiplicity = 1

 SCF Done:  E(RHF) =  -305.383652893     A.U. after   18 cycles
 Normal termination of Gaussian 16 at Wed Apr  9 18:44:35 2025.
 Gaussian 16:  ES64L-G16RevC.01  3-Jul-2019

 ----------------------------------------------------------------------
 #t hf aug-cc-pvdz iop(5/13=1,5/36=2,99/5=2) pseudo=read geom=check gue
 ss=(read,tcheck) scf=(maxcycle=1)
 ----------------------------------------------------------------------
 -----
 title
 -----
 Structure from the checkpoint file:  "Grambow2020_wb97xd3_008022_reverse_mol2.chk"
 Charge =  0 Multiplicity = 1

                         Standard orientation:
 ---------------------------------------------------------------------
 Center     Atomic      Atomic             Coordinates (Angstroms)
 Number     Number       Type             X           Y           Z
 ---------------------------------------------------------------------
      1          8           0        2.393049   -0.324379   -0.026237
      2          6           0        1.147091   -0.934025    0.162097
      3          6           0       -0.039967   -0.014476    0.003385
      4          6           0        0.082189    1.343560   -0.046666
      5          6           0       -1.087208    2.134920   -0.020117
      6          6           0       -1.294402   -0.684807   -0.019144
      7          6           0       -2.282811   -1.363463   -0.054201
      8          1           0        2.493458   -0.093823   -0.952079
      9          1           0        0.997820   -1.786335   -0.513363
     10          1           0        1.138815   -1.339080    1.177713
     11          1           0        1.097081    1.738798    0.004778
     12          1           0       -0.834678    3.110939    0.431030
     13          1           0       -3.186245   -1.925717   -0.090305
 ---------------------------------------------------------------------

 SCF Done:  E(RHF) =  -305.692537271     A.U. after    2 cycles

 The electronic state is 1-A.
 Alpha  occ. eigenvalues --  -20.57438 -11.31867 -11.31438 -11.26338 -11.25937
 Alpha  occ. eigenvalues --  -11.25698 -11.24885  -1.48236  -1.14068  -1.04005
 Alpha  occ. eigenvalues --   -0.99491  -0.88367  -0.81138  -0.73669  -0.72179
 Alpha  occ. eigenvalues --   -0.67866  -0.64487  -0.61672  -0.56178  -0.54144
 Alpha  occ. eigenvalues --   -0.49042  -0.46807  -0.42187  -0.39117  -0.33816
 Alpha virt. eigenvalues --    0.01497   0.03183   0.03490   0.04206   0.04642
 Alpha virt. eigenvalues --    0.05890   0.07572   0.09142   0.09802   0.10648
 Alpha virt. eigenvalues --    0.11501   0.11910   0.12353   0.13791   0.14500

 Mulliken charges:
               1
     1  O   -1.152124
     2  C    0.652127
     3  C   -0.173993
     4  C    0.657926
     5  C   -0.623945
     6  C    0.601909
     7  C   -0.096717
     8  H    0.278577
     9  H    0.236963
    10  H    0.232443
    11  H   -0.214549
    12  H    0.002742
    13  H   -0.401359
 Sum of Mulliken charges =  -0.00000

 Dipole moment (field-independent basis, Debye):
    X=              1.3155    Y=             -1.7933    Z=             -0.5334  Tot=              2.2871

 Test job not archived.
 1\1\GINC-SE103\SP\RHF\Aug-CC-pVDZ\C6H6O1\OHZDE\09-Apr-2025\0\\#t hf au
 g-cc-pvdz iop(5/13=1,5/36=2,99/5=2) pseudo=read geom=check guess=(read
 ,tcheck) scf=(maxcycle=1)\\title\\0,1\O,0,2.15121762,-1.00130617,0.162
 78579\C,0,1.42183284,0.17791333,0.3551131\C,0,-0.07200474,0.03460435,0
 .18843922\C,0,-0.64820256,-1.07030847,-0.36730423\C,0,-2.0325973,-1.05
 050214,-0.64569953\C,0,-0.81381441,1.17752835,0.59697506\C,0,-1.326737
 16,2.18416027,0.99990981\H,0,1.96809024,-1.60554305,0.8851316\H,0,1.60
 345539,0.61952369,1.34352244\H,0,1.78487462,0.90253677,-0.378873\H,0,0

 Normal termination of Gaussian 16 at Wed Apr  9 18:44:39 2025.
