 Gaussian 16, Revision C.01,

 ----------------------------------------------------------------------
 #t hf aug-cc-pvdz symm=none int=(grid=ultrafine) guess=(read,tcheck) s
 table=(opt,rrhf)
 ----------------------------------------------------------------------
 -----
 title
 -----
 Symbolic Z-matrix:
 Charge =  0 Multiplicity = 1

 SCF Done:  E(RHF) =  -264.852499082     A.U. after   15 cycles
 Normal termination of Gaussian 16 at Wed Apr  9 15:40:52 2025.
 Gaussian 16:  ES64L-G16RevC.01  3-Jul-2019

 ----------------------------------------------------------------------
 #t hf aug-cc-pvdz iop(5/13=1,5/36=2,99/5=2) pseudo=read geom=check gue
 ss=(read,tcheck) scf=(maxcycle=1)
 ----------------------------------------------------------------------
 -----
 title
 -----
 Structure from the checkpoint file:  "Grambow2020_b97d3_006627_reverse_mol1.chk"
 Charge =  0 Multiplicity = 1

                         Standard orientation:
 ---------------------------------------------------------------------
 Center     Atomic      Atomic             Coordinates (Angstroms)
 Number     Number       Type             X           Y           Z
 ---------------------------------------------------------------------
      1          6           0       -1.836183   -0.292532   -0.259683
      2          6           0       -0.847310   -1.256345    0.209716
      3          6           0        1.122421    0.039601    0.519202
      4          7           0        2.063997   -0.492164   -0.421073
      5          6           0        0.259345    1.081469    0.223484
      6          7           0       -0.742104    1.646066   -0.125505
      7          1           0       -1.982168   -0.140579   -1.323767
      8          1           0       -2.581450    0.092636    0.427782
      9          1           0       -2.045702   -1.656248   -0.136786
     10          1           0       -0.809975   -1.528183    1.260782
     11          1           0       -0.214849   -1.801974   -0.484522
     12          1           0        1.389193   -0.126215    1.563264
     13          1           0        1.795433   -0.228600   -1.370912
     14          1           0        3.006625   -0.121302   -0.266106
 ---------------------------------------------------------------------

 SCF Done:  E(RHF) =  -265.125034944     A.U. after    2 cycles

 The electronic state is 1-A.
 Alpha  occ. eigenvalues --  -15.49620 -15.47572 -11.32578 -11.31550 -11.25229
 Alpha  occ. eigenvalues --  -11.24959  -1.19773  -1.16695  -1.10714  -0.93413
 Alpha  occ. eigenvalues --   -0.85410  -0.72450  -0.69809  -0.67927  -0.65001
 Alpha  occ. eigenvalues --   -0.59726  -0.58895  -0.57608  -0.57007  -0.47976
 Alpha  occ. eigenvalues --   -0.44984  -0.43618  -0.28230
 Alpha virt. eigenvalues --    0.02929   0.03814   0.04002   0.04471   0.05420
 Alpha virt. eigenvalues --    0.06195   0.07329   0.08477   0.09309   0.10927
 Alpha virt. eigenvalues --    0.11803   0.12973   0.14220   0.14609   0.14875

 Mulliken charges:
               1
     1  C   -0.026521
     2  C    0.040022
     3  C   -0.410753
     4  N    0.378681
     5  C   -1.569269
     6  N    0.929026
     7  H    0.073104
     8  H    0.070067
     9  H    0.165603
    10  H    0.098176
    11  H    0.111659
    12  H   -0.104276
    13  H    0.073808
    14  H    0.170674
 Sum of Mulliken charges =   0.00000

 Dipole moment (field-independent basis, Debye):
    X=             -0.9838    Y=             -4.2180    Z=              0.0039  Tot=              4.3312

 Test job not archived.
 1\1\GINC-SE229\SP\RHF\Aug-CC-pVDZ\C4H8N2\OHZDE\09-Apr-2025\0\\#t hf au
 g-cc-pvdz iop(5/13=1,5/36=2,99/5=2) pseudo=read geom=check guess=(read
 ,tcheck) scf=(maxcycle=1)\\title\\0,1\C,0,-1.54473195,0.73873578,-0.32
 606183\C,0,-1.01817584,-0.59848558,-0.07762755\C,0,1.20732073,-0.21491
 9,0.66744823\N,0,2.03864707,-0.82225561,-0.32929495\C,0,0.79916623,1.1
 0732948,0.61353712\N,0,0.10869031,2.06105248,0.37454473\H,0,-1.4761115
 3,1.17247824,-1.31794646\H,0,-2.20664264,1.20017175,0.39873876\H,0,-2.
 21811844,-0.44475787,-0.58025645\H,0,-1.22649265,-1.09802102,0.8642309

 Normal termination of Gaussian 16 at Wed Apr  9 15:40:56 2025.
