 Gaussian 16, Revision C.01,

 ----------------------------------------------------------------------
 #t hf aug-cc-pvdz symm=none int=(grid=ultrafine) guess=(read,tcheck) s
 table=(opt,rrhf)
 ----------------------------------------------------------------------
 -----
 title
 -----
 Symbolic Z-matrix:
 Charge =  0 Multiplicity = 1

 SCF Done:  E(RHF) =  -358.427085973     A.U. after   17 cycles
 Normal termination of Gaussian 16 at Wed Apr  9 17:38:20 2025.
 Gaussian 16:  ES64L-G16RevC.01  3-Jul-2019

 ----------------------------------------------------------------------
 #t hf aug-cc-pvdz iop(5/13=1,5/36=2,99/5=2) pseudo=read geom=check gue
 ss=(read,tcheck) scf=(maxcycle=1)
 ----------------------------------------------------------------------
 -----
 title
 -----
 Structure from the checkpoint file:  "Grambow2020_wb97xd3_006747_forward_mol1.chk"
 Charge =  0 Multiplicity = 1

                         Standard orientation:
 ---------------------------------------------------------------------
 Center     Atomic      Atomic             Coordinates (Angstroms)
 Number     Number       Type             X           Y           Z
 ---------------------------------------------------------------------
      1          8           0        1.950361   -1.137860   -0.094667
      2          6           0        1.739067    0.027825    0.056246
      3          6           0        0.342661    0.645551   -0.078694
      4          8           0        0.160526    1.801170    0.194427
      5          7           0       -0.618641   -0.226920   -0.573868
      6          6           0       -2.014260   -0.037748   -0.214139
      7          6           0       -1.491524   -1.141985    0.639248
      8          1           0        2.515946    0.764236    0.327661
      9          1           0       -2.700347   -0.281978   -1.018920
     10          1           0       -2.189776    0.933091    0.236853
     11          1           0       -1.120675   -0.728569    1.585791
     12          1           0       -0.517423   -1.366676   -0.328355
 ---------------------------------------------------------------------

 SCF Done:  E(RHF) =  -358.784496411     A.U. after    2 cycles

 The electronic state is 1-A.
 Alpha  occ. eigenvalues --  -20.60006 -20.57973 -15.58047 -11.40389 -11.38212
 Alpha  occ. eigenvalues --  -11.29883 -11.28667  -1.53654  -1.52197  -1.31881
 Alpha  occ. eigenvalues --   -1.05278  -0.94141  -0.87949  -0.81909  -0.76197
 Alpha  occ. eigenvalues --   -0.72303  -0.68533  -0.66218  -0.63085  -0.59498
 Alpha  occ. eigenvalues --   -0.58074  -0.54640  -0.53412  -0.47134  -0.44737
 Alpha  occ. eigenvalues --   -0.38756
 Alpha virt. eigenvalues --    0.03423   0.03834   0.04349   0.04984   0.05778
 Alpha virt. eigenvalues --    0.06906   0.07389   0.08478   0.09816   0.10962
 Alpha virt. eigenvalues --    0.12683   0.13052   0.13927   0.14587   0.15163

 Mulliken charges:
               1
     1  O   -1.131793
     2  C    1.038804
     3  C    0.522485
     4  O   -1.266818
     5  N    0.324656
     6  C   -0.049355
     7  C   -0.385916
     8  H    0.196012
     9  H    0.013364
    10  H    0.001536
    11  H    0.101425
    12  H    0.635598
 Sum of Mulliken charges =   0.00000

 Dipole moment (field-independent basis, Debye):
    X=             -0.4594    Y=              1.1796    Z=              0.4137  Tot=              1.3318

 Test job not archived.
 1\1\GINC-SE220\SP\RHF\Aug-CC-pVDZ\C4H5N1O2\OHZDE\09-Apr-2025\0\\#t hf
 aug-cc-pvdz iop(5/13=1,5/36=2,99/5=2) pseudo=read geom=check guess=(re
 ad,tcheck) scf=(maxcycle=1)\\title\\0,1\O,0,1.68646966,1.41433115,1.24
 030411\C,0,1.94311854,0.4713138,0.55394281\C,0,0.87073329,-0.47899461,
 0.00928709\O,0,1.16524708,-1.34506076,-0.76943804\N,0,-0.39806918,-0.2
 6293002,0.53269799\C,0,-1.5691449,-0.61319755,-0.2539647\C,0,-1.394957
 93,0.86247184,-0.36763683\H,0,2.96458542,0.20675267,0.22818111\H,0,-2.
 38865797,-0.99593673,0.34598905\H,0,-1.31568005,-1.23649737,-1.1048353

 Normal termination of Gaussian 16 at Wed Apr  9 17:38:24 2025.
