 Gaussian 16, Revision C.01,

 ----------------------------------------------------------------------
 #t hf aug-cc-pvdz symm=none int=(grid=ultrafine) guess=(read,tcheck) s
 table=(opt,rrhf)
 ----------------------------------------------------------------------
 -----
 title
 -----
 Symbolic Z-matrix:
 Charge =  0 Multiplicity = 1

 SCF Done:  E(RHF) =  -322.600470326     A.U. after   15 cycles
 Normal termination of Gaussian 16 at Wed Apr  9 04:04:49 2025.
 Gaussian 16:  ES64L-G16RevC.01  3-Jul-2019

 ----------------------------------------------------------------------
 #t hf aug-cc-pvdz iop(5/13=1,5/36=2,99/5=2) pseudo=read geom=check gue
 ss=(read,tcheck) scf=(maxcycle=1)
 ----------------------------------------------------------------------
 -----
 title
 -----
 Structure from the checkpoint file:  "Grambow2020_wb97xd3_009151_forward_mol1.chk"
 Charge =  0 Multiplicity = 1

                         Standard orientation:
 ---------------------------------------------------------------------
 Center     Atomic      Atomic             Coordinates (Angstroms)
 Number     Number       Type             X           Y           Z
 ---------------------------------------------------------------------
      1          6           0       -1.747003   -1.044159    0.027003
      2          7           0       -0.387174   -0.544634   -0.025799
      3          6           0        0.767676   -1.317444   -0.023235
      4          6           0        1.924725   -0.569232   -0.088609
      5          6           0        1.349059    0.827348   -0.004013
      6          6           0       -0.054773    0.740585   -0.011413
      7          8           0       -1.028690    1.669637   -0.009130
      8          1           0       -2.387378   -0.448658   -0.620822
      9          1           0       -2.132428   -1.001259    1.046083
     10          1           0       -1.746651   -2.076827   -0.314155
     11          1           0        0.647979   -2.391774   -0.016830
     12          1           0        1.835960    0.275594    0.977537
     13          1           0        1.915165    1.734325   -0.166369
     14          1           0       -0.631008    2.541349   -0.050206
 ---------------------------------------------------------------------

 SCF Done:  E(RHF) =  -322.933109421     A.U. after    2 cycles

 The electronic state is 1-A.
 Alpha  occ. eigenvalues --  -20.62087 -15.58133 -11.35743 -11.29629 -11.25111
 Alpha  occ. eigenvalues --  -11.24127 -11.19170  -1.54325  -1.33084  -1.11309
 Alpha  occ. eigenvalues --   -0.99964  -0.97903  -0.83285  -0.79675  -0.76451
 Alpha  occ. eigenvalues --   -0.69769  -0.67595  -0.65248  -0.61066  -0.59426
 Alpha  occ. eigenvalues --   -0.59186  -0.57411  -0.52383  -0.43608  -0.32969
 Alpha  occ. eigenvalues --   -0.29646
 Alpha virt. eigenvalues --    0.02365   0.03411   0.04652   0.04748   0.05443
 Alpha virt. eigenvalues --    0.06151   0.06985   0.09502   0.10800   0.11781
 Alpha virt. eigenvalues --    0.12014   0.12861   0.13939   0.14428   0.14457

 Mulliken charges:
               1
     1  C   -0.284838
     2  N    1.131075
     3  C    0.062851
     4  C   -0.905403
     5  C   -0.099658
     6  C    0.615784
     7  O   -1.516927
     8  H    0.121751
     9  H    0.200464
    10  H    0.073390
    11  H   -0.207247
    12  H    0.592581
    13  H   -0.095265
    14  H    0.311440
 Sum of Mulliken charges =  -0.00000

 Dipole moment (field-independent basis, Debye):
    X=             -4.7784    Y=              2.7622    Z=              0.6668  Tot=              5.5595

 Test job not archived.
 1\1\GINC-SE336\SP\RHF\Aug-CC-pVDZ\C5H7N1O1\OHZDE\09-Apr-2025\0\\#t hf
 aug-cc-pvdz iop(5/13=1,5/36=2,99/5=2) pseudo=read geom=check guess=(re
 ad,tcheck) scf=(maxcycle=1)\\title\\0,1\C,0,-1.76611432,0.11317623,0.6
 158145\N,0,-0.462039,-0.19409477,0.0622632\C,0,0.01788685,-1.46202138,
 -0.24262064\C,0,1.29437884,-1.45083472,-0.76540073\C,0,1.62737487,0.01
 923044,-0.63498857\C,0,0.49099074,0.70181056,-0.16483549\O,0,0.2367936
 2,2.00281476,0.06846383\H,0,-2.15809303,1.02143059,0.16215678\H,0,-1.7
 0167206,0.25314869,1.69524606\H,0,-2.43467234,-0.71706856,0.40013655\H

 Normal termination of Gaussian 16 at Wed Apr  9 04:04:54 2025.
