 Gaussian 16, Revision C.01,

 ----------------------------------------------------------------------
 #t hf aug-cc-pvdz symm=none int=(grid=ultrafine) guess=(read,tcheck) s
 table=(opt,rrhf)
 ----------------------------------------------------------------------
 -----
 title
 -----
 Symbolic Z-matrix:
 Charge =  0 Multiplicity = 1

 SCF Done:  E(RHF) =  -324.974690797     A.U. after   15 cycles
 Normal termination of Gaussian 16 at Wed Apr  9 18:50:07 2025.
 Gaussian 16:  ES64L-G16RevC.01  3-Jul-2019

 ----------------------------------------------------------------------
 #t hf aug-cc-pvdz iop(5/13=1,5/36=2,99/5=2) pseudo=read geom=check gue
 ss=(read,tcheck) scf=(maxcycle=1)
 ----------------------------------------------------------------------
 -----
 title
 -----
 Structure from the checkpoint file:  "Grambow2020_wb97xd3_008109_reverse_mol1.chk"
 Charge =  0 Multiplicity = 1

                         Standard orientation:
 ---------------------------------------------------------------------
 Center     Atomic      Atomic             Coordinates (Angstroms)
 Number     Number       Type             X           Y           Z
 ---------------------------------------------------------------------
      1          6           0        2.410725    0.091303    0.663378
      2          6           0        1.666135    0.253225   -0.615072
      3          7           0       -0.410778    0.715557   -0.165916
      4          6           0       -1.403771    1.731669    0.059446
      5          6           0       -0.627528   -0.554704   -0.084965
      6          8           0        0.362603   -1.305097   -0.314669
      7          6           0       -1.960191   -1.159399    0.262157
      8          1           0        3.384420    0.582368    0.545936
      9          1           0        2.568737   -0.953071    0.918061
     10          1           0        1.893274    0.587604    1.483214
     11          1           0        1.941718   -0.412658   -1.421367
     12          1           0        1.567012    1.274139   -0.950844
     13          1           0       -0.936915    2.712138   -0.053473
     14          1           0       -2.230308    1.681396   -0.659701
     15          1           0       -1.829890    1.692729    1.069880
     16          1           0       -1.872688   -2.238680    0.352905
     17          1           0       -2.689465   -0.923193   -0.515367
     18          1           0       -2.333491   -0.743451    1.199859
 ---------------------------------------------------------------------

 SCF Done:  E(RHF) =  -325.318079400     A.U. after    2 cycles

 The electronic state is 1-A.
 Alpha  occ. eigenvalues --  -20.48687 -15.44621 -11.34323 -11.31012 -11.24575
 Alpha  occ. eigenvalues --  -11.24321 -11.22795  -1.42625  -1.18042  -1.05419
 Alpha  occ. eigenvalues --   -0.98590  -0.93513  -0.85593  -0.71349  -0.68721
 Alpha  occ. eigenvalues --   -0.65692  -0.62707  -0.61151  -0.58989  -0.57270
 Alpha  occ. eigenvalues --   -0.56310  -0.55072  -0.54264  -0.53342  -0.49691
 Alpha  occ. eigenvalues --   -0.41502  -0.38990  -0.35992
 Alpha virt. eigenvalues --    0.03363   0.04143   0.04419   0.04674   0.05578
 Alpha virt. eigenvalues --    0.05749   0.06066   0.06707   0.07183   0.09053
 Alpha virt. eigenvalues --    0.09222   0.10029   0.11697   0.12919   0.13461

 Mulliken charges:
               1
     1  C   -0.347366
     2  C    0.200765
     3  N    0.833447
     4  C   -0.278053
     5  C   -0.052529
     6  O   -1.449465
     7  C   -0.520337
     8  H    0.179575
     9  H    0.205695
    10  H    0.226143
    11  H    0.101727
    12  H    0.048692
    13  H   -0.031443
    14  H    0.146178
    15  H    0.147001
    16  H    0.040132
    17  H    0.279506
    18  H    0.270334
 Sum of Mulliken charges =  -0.00000

 Dipole moment (field-independent basis, Debye):
    X=              1.0160    Y=              1.4056    Z=              0.2459  Tot=              1.7517

 Test job not archived.
 1\1\GINC-SE131\SP\RHF\Aug-CC-pVDZ\C5H11N1O1\OHZDE\09-Apr-2025\0\\#t hf
  aug-cc-pvdz iop(5/13=1,5/36=2,99/5=2) pseudo=read geom=check guess=(r
 ead,tcheck) scf=(maxcycle=1)\\title\\0,1\C,0,-2.24972565,0.36693477,-1
 .03529587\C,0,-1.65265976,-0.76157122,-0.27040668\N,0,0.17144928,-0.07
 202639,0.691994\C,0,0.78147175,0.49877948,1.86304421\C,0,0.79856471,-0
 .35059005,-0.40172641\O,0,0.10332511,-0.84816899,-1.33192537\C,0,2.269
 02137,-0.11374624,-0.61101635\H,0,-3.33485917,0.33823825,-0.87819355\H
 ,0,-2.04359689,0.29710841,-2.09980646\H,0,-1.89250175,1.32548164,-0.66

 Normal termination of Gaussian 16 at Wed Apr  9 18:50:14 2025.
