 Gaussian 16, Revision C.01,

 ----------------------------------------------------------------------
 #t hf aug-cc-pvdz symm=none int=(grid=ultrafine) guess=(read,tcheck) s
 table=(opt,rrhf)
 ----------------------------------------------------------------------
 -----
 title
 -----
 Symbolic Z-matrix:
 Charge =  0 Multiplicity = 1

 SCF Done:  E(RHF) =  -324.934150004     A.U. after   16 cycles
 Normal termination of Gaussian 16 at Wed Apr  9 18:50:04 2025.
 Gaussian 16:  ES64L-G16RevC.01  3-Jul-2019

 ----------------------------------------------------------------------
 #t hf aug-cc-pvdz iop(5/13=1,5/36=2,99/5=2) pseudo=read geom=check gue
 ss=(read,tcheck) scf=(maxcycle=1)
 ----------------------------------------------------------------------
 -----
 title
 -----
 Structure from the checkpoint file:  "Grambow2020_wb97xd3_008100_forward_mol1.chk"
 Charge =  0 Multiplicity = 1

                         Standard orientation:
 ---------------------------------------------------------------------
 Center     Atomic      Atomic             Coordinates (Angstroms)
 Number     Number       Type             X           Y           Z
 ---------------------------------------------------------------------
      1          6           0       -2.409254   -0.248689   -0.225933
      2          6           0       -1.322031   -0.145777    0.832645
      3          7           0       -0.179539    0.717445    0.563655
      4          6           0       -0.035479    1.268631   -0.654780
      5          6           0        1.073745   -0.316117   -0.281715
      6          8           0        0.674679   -1.434482   -0.515707
      7          6           0        2.342016    0.097845    0.418001
      8          1           0       -3.217829   -0.875852    0.152297
      9          1           0       -2.038347   -0.713045   -1.141882
     10          1           0       -2.840181    0.726044   -0.472481
     11          1           0       -0.922726   -1.151025    1.015550
     12          1           0       -1.752202    0.204177    1.773802
     13          1           0       -0.782540    1.152481   -1.442626
     14          1           0        0.571001    2.172149   -0.725750
     15          1           0        1.002866    0.466203   -1.288782
     16          1           0        2.336450   -0.353370    1.409103
     17          1           0        2.416958    1.177476    0.518951
     18          1           0        3.191904   -0.286857   -0.147416
 ---------------------------------------------------------------------

 SCF Done:  E(RHF) =  -325.278051912     A.U. after    2 cycles

 The electronic state is 1-A.
 Alpha  occ. eigenvalues --  -20.49704 -15.49159 -11.38319 -11.34986 -11.25342
 Alpha  occ. eigenvalues --  -11.24671 -11.22261  -1.45602  -1.24480  -1.04562
 Alpha  occ. eigenvalues --   -1.00896  -0.93363  -0.81329  -0.79800  -0.70579
 Alpha  occ. eigenvalues --   -0.67181  -0.65606  -0.63705  -0.60728  -0.59850
 Alpha  occ. eigenvalues --   -0.56841  -0.55617  -0.54090  -0.51578  -0.47686
 Alpha  occ. eigenvalues --   -0.44325  -0.41073  -0.35942
 Alpha virt. eigenvalues --    0.02808   0.03903   0.04256   0.04647   0.05174
 Alpha virt. eigenvalues --    0.05541   0.05978   0.06624   0.08291   0.09326
 Alpha virt. eigenvalues --    0.09606   0.10147   0.11896   0.13233   0.13847

 Mulliken charges:
               1
     1  C   -0.408908
     2  C   -0.485806
     3  N    0.614280
     4  C   -0.395844
     5  C    0.697389
     6  O   -1.443974
     7  C   -0.274699
     8  H    0.035730
     9  H    0.227119
    10  H    0.206860
    11  H    0.201601
    12  H   -0.000498
    13  H    0.016862
    14  H   -0.021530
    15  H    0.402373
    16  H    0.248602
    17  H    0.174769
    18  H    0.205676
 Sum of Mulliken charges =   0.00000

 Dipole moment (field-independent basis, Debye):
    X=              0.4282    Y=              3.1092    Z=             -1.2390  Tot=              3.3742

 Test job not archived.
 1\1\GINC-SE220\SP\RHF\Aug-CC-pVDZ\C5H11N1O1\OHZDE\09-Apr-2025\0\\#t hf
  aug-cc-pvdz iop(5/13=1,5/36=2,99/5=2) pseudo=read geom=check guess=(r
 ead,tcheck) scf=(maxcycle=1)\\title\\0,1\C,0,-2.31391548,0.36615346,-0
 .07461857\C,0,-1.30143153,-0.7686077,-0.05403059\N,0,-0.02950912,-0.54
 349747,0.6200141\C,0,0.27942243,0.68878279,1.06181702\C,0,1.11743828,0
 .1386758,-0.63408791\O,0,0.57793503,0.34004991,-1.69857497\C,0,2.37929
 311,-0.6358167,-0.35594928\H,0,-3.2298241,0.01896526,-0.55498986\H,0,-
 1.95008116,1.22159262,-0.64734106\H,0,-2.58012114,0.70136947,0.9320359

 Normal termination of Gaussian 16 at Wed Apr  9 18:50:10 2025.
