 Gaussian 16, Revision C.01,

 ----------------------------------------------------------------------
 #t hf aug-cc-pvdz symm=none int=(grid=ultrafine) guess=(read,tcheck) s
 table=(opt,rrhf)
 ----------------------------------------------------------------------
 -----
 title
 -----
 Symbolic Z-matrix:
 Charge =  0 Multiplicity = 1

 SCF Done:  E(RHF) =  -324.950716446     A.U. after   14 cycles
 Normal termination of Gaussian 16 at Wed Apr  9 18:51:07 2025.
 Gaussian 16:  ES64L-G16RevC.01  3-Jul-2019

 ----------------------------------------------------------------------
 #t hf aug-cc-pvdz iop(5/13=1,5/36=2,99/5=2) pseudo=read geom=check gue
 ss=(read,tcheck) scf=(maxcycle=1)
 ----------------------------------------------------------------------
 -----
 title
 -----
 Structure from the checkpoint file:  "Grambow2020_wb97xd3_008119_forward_mol1.chk"
 Charge =  0 Multiplicity = 1

                         Standard orientation:
 ---------------------------------------------------------------------
 Center     Atomic      Atomic             Coordinates (Angstroms)
 Number     Number       Type             X           Y           Z
 ---------------------------------------------------------------------
      1          6           0       -2.801133    0.042645   -0.335685
      2          7           0       -1.367302    0.084769   -0.581304
      3          6           0       -0.504411   -0.051596    0.373516
      4          8           0       -0.337482   -0.213659    1.536458
      5          6           0        1.146951    0.074452   -0.588661
      6          6           0        1.804065    1.289853    0.038632
      7          6           0        1.818672   -1.248305   -0.270087
      8          1           0       -3.226800   -0.867630   -0.762521
      9          1           0       -3.276467    0.898644   -0.815643
     10          1           0       -3.026032    0.067628    0.731749
     11          1           0       -0.082040    0.127261   -1.052087
     12          1           0        1.191299    0.208781   -1.693179
     13          1           0        1.783335    1.203503    1.126360
     14          1           0        1.294220    2.213532   -0.240747
     15          1           0        2.847919    1.371400   -0.273821
     16          1           0        2.861885   -1.241241   -0.595047
     17          1           0        1.801194   -1.423608    0.806914
     18          1           0        1.317594   -2.084673   -0.760804
 ---------------------------------------------------------------------

 SCF Done:  E(RHF) =  -325.295266081     A.U. after    2 cycles

 The electronic state is 1-A.
 Alpha  occ. eigenvalues --  -20.54584 -15.49731 -11.39979 -11.26266 -11.26095
 Alpha  occ. eigenvalues --  -11.23575 -11.23561  -1.50022  -1.25057  -1.08903
 Alpha  occ. eigenvalues --   -0.98569  -0.94852  -0.84197  -0.73983  -0.70379
 Alpha  occ. eigenvalues --   -0.68298  -0.64373  -0.64279  -0.59726  -0.58365
 Alpha  occ. eigenvalues --   -0.56947  -0.54749  -0.54318  -0.51707  -0.51032
 Alpha  occ. eigenvalues --   -0.47074  -0.40777  -0.39558
 Alpha virt. eigenvalues --    0.03190   0.03917   0.04118   0.04574   0.05647
 Alpha virt. eigenvalues --    0.05836   0.06374   0.06953   0.07886   0.08496
 Alpha virt. eigenvalues --    0.09257   0.11447   0.12547   0.13735   0.14054

 Mulliken charges:
               1
     1  C   -0.446688
     2  N    0.656237
     3  C   -0.055516
     4  O   -1.080064
     5  C   -1.667035
     6  C    0.042801
     7  C    0.050563
     8  H    0.148342
     9  H    0.120998
    10  H    0.053630
    11  H    0.922625
    12  H    0.214749
    13  H    0.227906
    14  H    0.140758
    15  H    0.147453
    16  H    0.148847
    17  H    0.231965
    18  H    0.142430
 Sum of Mulliken charges =  -0.00000

 Dipole moment (field-independent basis, Debye):
    X=              0.9083    Y=              0.2528    Z=             -2.0329  Tot=              2.2409

 Test job not archived.
 1\1\GINC-SE035\SP\RHF\Aug-CC-pVDZ\C5H11N1O1\OHZDE\09-Apr-2025\0\\#t hf
  aug-cc-pvdz iop(5/13=1,5/36=2,99/5=2) pseudo=read geom=check guess=(r
 ead,tcheck) scf=(maxcycle=1)\\title\\0,1\C,0,2.95425812,0.39051267,-0.
 18043103\N,0,1.5266469,0.23199786,-0.41447181\C,0,0.69289749,0.0229709
 3,0.55301285\O,0,0.5550563,-0.12576651,1.72153402\C,0,-0.96955011,-0.0
 6833799,-0.39387535\C,0,-1.45307495,-1.47196289,-0.07997129\C,0,-1.779
 03648,1.04271557,0.2485236\H,0,3.25216454,1.42301584,-0.3732253\H,0,3.
 50739096,-0.25660512,-0.86184169\H,0,3.22338124,0.13382596,0.84538671\

 Normal termination of Gaussian 16 at Wed Apr  9 18:51:14 2025.
