 Gaussian 16, Revision C.01,

 ----------------------------------------------------------------------
 #t hf aug-cc-pvdz symm=none int=(grid=ultrafine) guess=(read,tcheck) s
 table=(opt,rrhf)
 ----------------------------------------------------------------------
 -----
 title
 -----
 Symbolic Z-matrix:
 Charge =  0 Multiplicity = 1

 SCF Done:  E(RHF) =  -308.914281860     A.U. after   15 cycles

 1\1\GINC-SE232\Stability\RHF\Aug-CC-pVDZ\C6H12O1\OHZDE\09-Apr-2025\0\\
 #t hf aug-cc-pvdz symm=none int=(grid=ultrafine) guess=(read,tcheck) s
 table=(opt,rrhf)\\title\\0,1\C,0,-0.91260647,-1.62386346,-0.77005669\C
 ,0,-0.72190575,-0.15459442,-0.48899276\C,0,-0.88842488,0.34829703,0.82
 457844\C,0,-0.78678635,1.74673319,1.00259547\O,0,1.02446032,1.70216016
 ,-0.30701717\C,0,0.99326858,0.46438032,-0.65986652\C,0,1.92617389,-0.4
 8606047,0.08834907\H,0,-1.95995274,-1.86958108,-0.96076279\H,0,-0.3427
 3783,-1.91922762,-1.65403917\H,0,-0.57023588,-2.23998241,0.06398786\H,

 Normal termination of Gaussian 16 at Wed Apr  9 17:35:13 2025.
 Gaussian 16:  ES64L-G16RevC.01  3-Jul-2019

 ----------------------------------------------------------------------
 #t hf aug-cc-pvdz iop(5/13=1,5/36=2,99/5=2) pseudo=read geom=check gue
 ss=(read,tcheck) scf=(maxcycle=1)
 ----------------------------------------------------------------------
 -----
 title
 -----
 Structure from the checkpoint file:  "Grambow2020_wb97xd3_006728_reverse_mol1.chk"
 Charge =  0 Multiplicity = 1

                         Standard orientation:
 ---------------------------------------------------------------------
 Center     Atomic      Atomic             Coordinates (Angstroms)
 Number     Number       Type             X           Y           Z
 ---------------------------------------------------------------------
      1          6           0        2.085609   -0.802429   -0.155793
      2          6           0        0.603579   -0.697578   -0.414072
      3          6           0       -0.323846   -1.141019    0.560270
      4          6           0       -1.694622   -1.100771    0.218223
      5          8           0       -1.344991    0.943279   -0.616823
      6          6           0       -0.066279    1.005662   -0.480521
      7          6           0        0.457946    1.777986    0.728685
      8          1           0        2.479006   -1.783365   -0.432712
      9          1           0        2.627674   -0.056911   -0.742125
     10          1           0        2.323003   -0.630832    0.896181
     11          1           0        0.318214   -0.968595   -1.428652
     12          1           0       -0.069325   -1.124585    1.615075
     13          1           0       -1.063646   -2.249383    0.415538
     14          1           0       -2.451824   -1.028015    0.987302
     15          1           0       -1.992584   -1.196696   -0.813593
     16          1           0        0.502915    1.268589   -1.392804
     17          1           0       -0.038410    1.443269    1.642070
     18          1           0        1.540469    1.696383    0.852959
     19          1           0        0.210110    2.832797    0.594587
 ---------------------------------------------------------------------

 SCF Done:  E(RHF) =  -309.245791937     A.U. after    2 cycles

 The electronic state is 1-A.
 Alpha  occ. eigenvalues --  -20.43595 -11.31721 -11.31199 -11.27550 -11.23661
 Alpha  occ. eigenvalues --  -11.23364 -11.20352  -1.35654  -1.15605  -1.03736
 Alpha  occ. eigenvalues --   -0.96413  -0.89566  -0.81378  -0.75558  -0.69809
 Alpha  occ. eigenvalues --   -0.65978  -0.62741  -0.60699  -0.57918  -0.57533
 Alpha  occ. eigenvalues --   -0.54722  -0.54099  -0.52121  -0.50605  -0.49856
 Alpha  occ. eigenvalues --   -0.41696  -0.33888  -0.31571
 Alpha virt. eigenvalues --    0.02551   0.03213   0.03377   0.04582   0.05674
 Alpha virt. eigenvalues --    0.05805   0.06128   0.06349   0.07205   0.08930
 Alpha virt. eigenvalues --    0.09145   0.09723   0.10346   0.12150   0.12930

 Mulliken charges:
               1
     1  C   -0.331815
     2  C   -0.362086
     3  C    0.172527
     4  C   -0.157855
     5  O   -1.540703
     6  C    1.153716
     7  C   -0.427710
     8  H    0.106781
     9  H    0.232958
    10  H    0.215783
    11  H    0.093507
    12  H   -0.073783
    13  H    0.391519
    14  H   -0.030393
    15  H    0.013186
    16  H    0.089798
    17  H    0.161702
    18  H    0.171563
    19  H    0.121306
 Sum of Mulliken charges =   0.00000

 Dipole moment (field-independent basis, Debye):
    X=              1.1240    Y=             -4.3392    Z=              1.9789  Tot=              4.8998

 Test job not archived.
 1\1\GINC-SE232\SP\RHF\Aug-CC-pVDZ\C6H12O1\OHZDE\09-Apr-2025\0\\#t hf a
 ug-cc-pvdz iop(5/13=1,5/36=2,99/5=2) pseudo=read geom=check guess=(rea
 d,tcheck) scf=(maxcycle=1)\\title\\0,1\C,0,-0.91260647,-1.62386346,-0.
 77005669\C,0,-0.72190575,-0.15459442,-0.48899276\C,0,-0.88842488,0.348
 29703,0.82457844\C,0,-0.78678635,1.74673319,1.00259547\O,0,1.02446032,
 1.70216016,-0.30701717\C,0,0.99326858,0.46438032,-0.65986652\C,0,1.926
 17389,-0.48606047,0.08834907\H,0,-1.95995274,-1.86958108,-0.96076279\H
 ,0,-0.34273783,-1.91922762,-1.65403917\H,0,-0.57023588,-2.23998241,0.0

 Normal termination of Gaussian 16 at Wed Apr  9 17:35:21 2025.
