 Gaussian 16, Revision C.01,

 ----------------------------------------------------------------------
 #t hf aug-cc-pvdz symm=none int=(grid=ultrafine) guess=(read,tcheck) s
 table=(opt,rrhf)
 ----------------------------------------------------------------------
 -----
 title
 -----
 Symbolic Z-matrix:
 Charge =  0 Multiplicity = 1

 SCF Done:  E(RHF) =  -308.852198685     A.U. after   17 cycles

 1\1\GINC-SE105\Stability\RHF\Aug-CC-pVDZ\C6H12O1\OHZDE\09-Apr-2025\0\\
 #t hf aug-cc-pvdz symm=none int=(grid=ultrafine) guess=(read,tcheck) s
 table=(opt,rrhf)\\title\\0,1\C,0,2.14434202,0.36564629,-0.59405876\C,0
 ,0.90013304,-0.74914886,0.42385992\O,0,1.22892785,-1.03251539,1.695334
 49\C,0,0.47635502,0.55013489,0.02346037\C,0,-0.66078423,0.82265776,-0.
 95322819\C,0,-1.73087398,0.59229903,0.01487059\C,0,-2.08148546,-0.8065
 8402,0.30667962\H,0,2.27594781,1.43280835,-0.78310591\H,0,2.1488411,-0
 .16696262,-1.54055572\H,0,2.97466738,0.03643112,0.03457601\H,0,0.94587

 Normal termination of Gaussian 16 at Wed Apr  9 18:27:14 2025.
 Gaussian 16:  ES64L-G16RevC.01  3-Jul-2019

 ----------------------------------------------------------------------
 #t hf aug-cc-pvdz iop(5/13=1,5/36=2,99/5=2) pseudo=read geom=check gue
 ss=(read,tcheck) scf=(maxcycle=1)
 ----------------------------------------------------------------------
 -----
 title
 -----
 Structure from the checkpoint file:  "Grambow2020_wb97xd3_007570_reverse_mol1.chk"
 Charge =  0 Multiplicity = 1

                         Standard orientation:
 ---------------------------------------------------------------------
 Center     Atomic      Atomic             Coordinates (Angstroms)
 Number     Number       Type             X           Y           Z
 ---------------------------------------------------------------------
      1          6           0        1.989508   -1.004348    0.221767
      2          6           0        0.873117    0.597119    0.348090
      3          8           0        1.311070    1.701835   -0.278687
      4          6           0        0.368946   -0.527801   -0.364942
      5          6           0       -0.850803   -1.338284    0.055298
      6          6           0       -1.832163   -0.376157   -0.441307
      7          6           0       -2.104019    0.799577    0.400535
      8          1           0        2.064176   -1.864902   -0.445889
      9          1           0        1.940825   -1.353661    1.248977
     10          1           0        2.878634   -0.388785    0.068329
     11          1           0        0.899388    0.657995    1.425402
     12          1           0        0.886472    1.753100   -1.143530
     13          1           0        0.510241   -0.496653   -1.439032
     14          1           0       -0.866389   -1.506321    1.137954
     15          1           0       -0.840422   -2.307772   -0.444598
     16          1           0       -2.173090   -0.433788   -1.465049
     17          1           0       -2.739324    1.537011   -0.092715
     18          1           0       -1.152711    1.328632    0.692353
     19          1           0       -2.563870    0.559822    1.370651
 ---------------------------------------------------------------------

 SCF Done:  E(RHF) =  -309.183635716     A.U. after    2 cycles

 The electronic state is 1-A.
 Alpha  occ. eigenvalues --  -20.61937 -11.37513 -11.29090 -11.28958 -11.23418
 Alpha  occ. eigenvalues --  -11.19573 -11.14514  -1.53932  -1.13827  -1.02414
 Alpha  occ. eigenvalues --   -0.92909  -0.92671  -0.85569  -0.75193  -0.73419
 Alpha  occ. eigenvalues --   -0.68633  -0.65087  -0.62168  -0.60853  -0.59775
 Alpha  occ. eigenvalues --   -0.55914  -0.54599  -0.53528  -0.51075  -0.48209
 Alpha  occ. eigenvalues --   -0.46289  -0.44296  -0.18922
 Alpha virt. eigenvalues --    0.02645   0.02826   0.03455   0.04632   0.05822
 Alpha virt. eigenvalues --    0.05985   0.06348   0.06502   0.06627   0.08997
 Alpha virt. eigenvalues --    0.09276   0.09909   0.11048   0.12611   0.13175

 Mulliken charges:
               1
     1  C   -0.386240
     2  C    1.602848
     3  O   -1.398576
     4  C   -0.088504
     5  C   -0.243107
     6  C    0.320909
     7  C   -0.532807
     8  H    0.124254
     9  H    0.132332
    10  H    0.159050
    11  H   -0.072693
    12  H    0.304154
    13  H   -0.129907
    14  H    0.061394
    15  H    0.031480
    16  H   -0.265721
    17  H    0.095471
    18  H    0.099062
    19  H    0.186603
 Sum of Mulliken charges =  -0.00000

 Dipole moment (field-independent basis, Debye):
    X=              5.0502    Y=             -0.2849    Z=             -0.0196  Tot=              5.0583

 Test job not archived.
 1\1\GINC-SE105\SP\RHF\Aug-CC-pVDZ\C6H12O1\OHZDE\09-Apr-2025\0\\#t hf a
 ug-cc-pvdz iop(5/13=1,5/36=2,99/5=2) pseudo=read geom=check guess=(rea
 d,tcheck) scf=(maxcycle=1)\\title\\0,1\C,0,2.14434202,0.36564629,-0.59
 405876\C,0,0.90013304,-0.74914886,0.42385992\O,0,1.22892785,-1.0325153
 9,1.69533449\C,0,0.47635502,0.55013489,0.02346037\C,0,-0.66078423,0.82
 265776,-0.95322819\C,0,-1.73087398,0.59229903,0.01487059\C,0,-2.081485
 46,-0.80658402,0.30667962\H,0,2.27594781,1.43280835,-0.78310591\H,0,2.
 1488411,-0.16696262,-1.54055572\H,0,2.97466738,0.03643112,0.03457601\H

 Normal termination of Gaussian 16 at Wed Apr  9 18:27:22 2025.
