 Gaussian 16, Revision C.01,

 ----------------------------------------------------------------------
 #t hf aug-cc-pvdz symm=none int=(grid=ultrafine) guess=(read,tcheck) s
 table=(opt,rrhf)
 ----------------------------------------------------------------------
 -----
 title
 -----
 Symbolic Z-matrix:
 Charge =  0 Multiplicity = 1

 SCF Done:  E(RHF) =  -309.099257096     A.U. after   12 cycles

 1\1\GINC-SE186\Stability\RHF\Aug-CC-pVDZ\C6H12O1\OHZDE\09-Apr-2025\0\\
 #t hf aug-cc-pvdz symm=none int=(grid=ultrafine) guess=(read,tcheck) s
 table=(opt,rrhf)\\title\\0,1\C,0,1.87155366,-0.76120625,-0.58062983\C,
 0,0.64800065,-0.23851536,0.15386424\O,0,0.91267993,-0.18870196,1.55940
 947\C,0,0.16511992,1.13310481,-0.32926801\C,0,-1.24548455,1.23826858,0
 .24288544\C,0,-1.8191267,-0.17938671,0.07113983\C,0,-0.59689887,-1.122
 11284,-0.00022431\H,0,2.72762489,-0.09706272,-0.42973769\H,0,1.6876253
 1,-0.83034753,-1.65454975\H,0,2.14177269,-1.75127901,-0.20945109\H,0,1

 Normal termination of Gaussian 16 at Wed Apr  9 03:59:05 2025.
 Gaussian 16:  ES64L-G16RevC.01  3-Jul-2019

 ----------------------------------------------------------------------
 #t hf aug-cc-pvdz iop(5/13=1,5/36=2,99/5=2) pseudo=read geom=check gue
 ss=(read,tcheck) scf=(maxcycle=1)
 ----------------------------------------------------------------------
 -----
 title
 -----
 Structure from the checkpoint file:  "Grambow2020_wb97xd3_008664_forward_mol2.chk"
 Charge =  0 Multiplicity = 1

                         Standard orientation:
 ---------------------------------------------------------------------
 Center     Atomic      Atomic             Coordinates (Angstroms)
 Number     Number       Type             X           Y           Z
 ---------------------------------------------------------------------
      1          6           0       -1.998736    0.221929   -0.673669
      2          6           0       -0.659144    0.010571    0.012327
      3          8           0       -0.868235   -0.329574    1.386618
      4          6           0        0.225582   -1.049088   -0.652741
      5          6           0        1.606804   -0.785877   -0.060145
      6          6           0        1.696900    0.749387   -0.003967
      7          6           0        0.237339    1.255702    0.027520
      8          1           0       -2.596419   -0.693948   -0.648017
      9          1           0       -1.866206    0.505132   -1.719683
     10          1           0       -2.562678    1.008299   -0.169063
     11          1           0       -1.348393   -1.160041    1.421693
     12          1           0       -0.145689   -2.063427   -0.481307
     13          1           0        0.234812   -0.881843   -1.734861
     14          1           0        1.653805   -1.201677    0.947663
     15          1           0        2.413122   -1.235057   -0.641591
     16          1           0        2.208356    1.130241   -0.890521
     17          1           0        2.269461    1.088067    0.859500
     18          1           0        0.021920    1.874831   -0.845409
     19          1           0        0.011324    1.850277    0.912697
 ---------------------------------------------------------------------

 SCF Done:  E(RHF) =  -309.434018620     A.U. after    2 cycles

 The electronic state is 1-A.
 Alpha  occ. eigenvalues --  -20.53839 -11.28117 -11.22309 -11.22222 -11.21912
 Alpha  occ. eigenvalues --  -11.21801 -11.21690  -1.44375  -1.11913  -1.00655
 Alpha  occ. eigenvalues --   -0.96702  -0.89885  -0.79071  -0.76063  -0.67001
 Alpha  occ. eigenvalues --   -0.65451  -0.64762  -0.59806  -0.57997  -0.56998
 Alpha  occ. eigenvalues --   -0.53116  -0.50557  -0.49924  -0.48451  -0.47856
 Alpha  occ. eigenvalues --   -0.46074  -0.44955  -0.42648
 Alpha virt. eigenvalues --    0.03482   0.03738   0.03870   0.04437   0.05891
 Alpha virt. eigenvalues --    0.05963   0.06302   0.06527   0.06935   0.09115
 Alpha virt. eigenvalues --    0.09492   0.09809   0.12412   0.14079   0.14403

 Mulliken charges:
               1
     1  C    0.000781
     2  C    0.028208
     3  O   -1.493559
     4  C    0.090504
     5  C   -0.194610
     6  C   -0.144760
     7  C   -0.193996
     8  H    0.171537
     9  H    0.220339
    10  H    0.226111
    11  H    0.246803
    12  H    0.111143
    13  H    0.126425
    14  H    0.127400
    15  H    0.095437
    16  H    0.111464
    17  H    0.144742
    18  H    0.158086
    19  H    0.167946
 Sum of Mulliken charges =  -0.00000

 Dipole moment (field-independent basis, Debye):
    X=             -0.3646    Y=             -0.7640    Z=             -1.2562  Tot=              1.5148

 Test job not archived.
 1\1\GINC-SE186\SP\RHF\Aug-CC-pVDZ\C6H12O1\OHZDE\09-Apr-2025\0\\#t hf a
 ug-cc-pvdz iop(5/13=1,5/36=2,99/5=2) pseudo=read geom=check guess=(rea
 d,tcheck) scf=(maxcycle=1)\\title\\0,1\C,0,1.87155366,-0.76120625,-0.5
 8062983\C,0,0.64800065,-0.23851536,0.15386424\O,0,0.91267993,-0.188701
 96,1.55940947\C,0,0.16511992,1.13310481,-0.32926801\C,0,-1.24548455,1.
 23826858,0.24288544\C,0,-1.8191267,-0.17938671,0.07113983\C,0,-0.59689
 887,-1.12211284,-0.00022431\H,0,2.72762489,-0.09706272,-0.42973769\H,0
 ,1.68762531,-0.83034753,-1.65454975\H,0,2.14177269,-1.75127901,-0.2094

 Normal termination of Gaussian 16 at Wed Apr  9 03:59:14 2025.
