 Gaussian 16, Revision C.01,

 ----------------------------------------------------------------------
 #t hf aug-cc-pvdz symm=none int=(grid=ultrafine) guess=(read,tcheck) s
 table=(opt,rrhf)
 ----------------------------------------------------------------------
 -----
 title
 -----
 Symbolic Z-matrix:
 Charge =  0 Multiplicity = 1

 SCF Done:  E(RHF) =  -269.829120821     A.U. after   15 cycles

 1\1\GINC-SE163\Stability\RHF\Aug-CC-pVDZ\C5H10O1\OHZDE\09-Apr-2025\0\\
 #t hf aug-cc-pvdz symm=none int=(grid=ultrafine) guess=(read,tcheck) s
 table=(opt,rrhf)\\title\\0,1\C,0,2.31634883,0.01326157,0.39189639\O,0,
 1.23695541,-0.73232913,0.53045326\C,0,0.09807053,-0.38895059,0.0155178
 5\C,0,-0.52780974,0.9790686,-0.01772262\C,0,-1.89902157,0.25245873,-0.
 05668628\C,0,-1.20386739,-1.10678232,0.23867131\H,0,2.18997267,1.08729
 999,0.33104051\H,0,1.871596,-0.12039943,-1.47866127\H,0,3.19710589,-0.
 42317446,0.83616958\H,0,1.09541963,-0.29827419,-1.62005635\H,0,-0.3529

 Normal termination of Gaussian 16 at Wed Apr  9 16:58:20 2025.
 Gaussian 16:  ES64L-G16RevC.01  3-Jul-2019

 ----------------------------------------------------------------------
 #t hf aug-cc-pvdz iop(5/13=1,5/36=2,99/5=2) pseudo=read geom=check gue
 ss=(read,tcheck) scf=(maxcycle=1)
 ----------------------------------------------------------------------
 -----
 title
 -----
 Structure from the checkpoint file:  "Grambow2020_wb97xd3_006205_forward_mol1.chk"
 Charge =  0 Multiplicity = 1

                         Standard orientation:
 ---------------------------------------------------------------------
 Center     Atomic      Atomic             Coordinates (Angstroms)
 Number     Number       Type             X           Y           Z
 ---------------------------------------------------------------------
      1          6           0       -2.269293    0.214732   -0.130552
      2          8           0       -1.234233   -0.601447   -0.182491
      3          6           0       -0.045854   -0.221833    0.169323
      4          6           0        0.633988    1.086955   -0.129338
      5          6           0        1.974410    0.310087   -0.032148
      6          6           0        1.205347   -1.040632    0.013803
      7          1           0       -2.096417    1.269490   -0.306144
      8          1           0       -1.684785    0.447324    1.691235
      9          1           0       -3.198655   -0.255296   -0.411528
     10          1           0       -0.907502    0.260302    1.813446
     11          1           0        0.407599    1.434032   -1.147091
     12          1           0        0.487109    1.921611    0.556428
     13          1           0        2.515779    0.517494    0.889263
     14          1           0        2.652073    0.434485   -0.874561
     15          1           0        1.246560   -1.596389   -0.927453
     16          1           0        1.460511   -1.717330    0.829798
 ---------------------------------------------------------------------

 SCF Done:  E(RHF) =  -270.117042875     A.U. after    2 cycles

 The electronic state is 1-A.
 Alpha  occ. eigenvalues --  -20.64508 -11.30861 -11.28179 -11.24638 -11.24529
 Alpha  occ. eigenvalues --  -11.24407  -1.57923  -1.15100  -0.98317  -0.93021
 Alpha  occ. eigenvalues --   -0.85397  -0.76748  -0.71529  -0.70451  -0.68929
 Alpha  occ. eigenvalues --   -0.63569  -0.56515  -0.56075  -0.52107  -0.51338
 Alpha  occ. eigenvalues --   -0.50463  -0.48681  -0.46651  -0.26172
 Alpha virt. eigenvalues --    0.03594   0.03842   0.04002   0.04554   0.05814
 Alpha virt. eigenvalues --    0.06544   0.06942   0.07454   0.07962   0.08467
 Alpha virt. eigenvalues --    0.10567   0.11761   0.12567   0.13338   0.14025

 Mulliken charges:
               1
     1  C    0.257420
     2  O   -1.160882
     3  C    0.769756
     4  C   -0.129143
     5  C   -0.030238
     6  C   -0.244113
     7  H    0.058078
     8  H   -0.011699
     9  H   -0.091355
    10  H    0.174231
    11  H    0.129404
    12  H   -0.012124
    13  H    0.065824
    14  H    0.041284
    15  H    0.109308
    16  H    0.074249
 Sum of Mulliken charges =   0.00000

 Dipole moment (field-independent basis, Debye):
    X=              1.6129    Y=              0.3746    Z=             -1.2505  Tot=              2.0749

 Test job not archived.
 1\1\GINC-SE163\SP\RHF\Aug-CC-pVDZ\C5H10O1\OHZDE\09-Apr-2025\0\\#t hf a
 ug-cc-pvdz iop(5/13=1,5/36=2,99/5=2) pseudo=read geom=check guess=(rea
 d,tcheck) scf=(maxcycle=1)\\title\\0,1\C,0,2.31634883,0.01326157,0.391
 89639\O,0,1.23695541,-0.73232913,0.53045326\C,0,0.09807053,-0.38895059
 ,0.01551785\C,0,-0.52780974,0.9790686,-0.01772262\C,0,-1.89902157,0.25
 245873,-0.05668628\C,0,-1.20386739,-1.10678232,0.23867131\H,0,2.189972
 67,1.08729999,0.33104051\H,0,1.871596,-0.12039943,-1.47866127\H,0,3.19
 710589,-0.42317446,0.83616958\H,0,1.09541963,-0.29827419,-1.62005635\H

 Normal termination of Gaussian 16 at Wed Apr  9 16:58:25 2025.
