 Gaussian 16, Revision C.01,

 ----------------------------------------------------------------------
 #t hf aug-cc-pvdz symm=none int=(grid=ultrafine) guess=(read,tcheck) s
 table=(opt,rrhf)
 ----------------------------------------------------------------------
 -----
 title
 -----
 Symbolic Z-matrix:
 Charge =  0 Multiplicity = 1

 SCF Done:  E(RHF) =  -306.867773947     A.U. after   14 cycles

 1\1\GINC-SE015\Stability\RHF\Aug-CC-pVDZ\C4H10O2\OHZDE\09-Apr-2025\0\\
 #t hf aug-cc-pvdz symm=none int=(grid=ultrafine) guess=(read,tcheck) s
 table=(opt,rrhf)\\title\\0,1\C,0,2.39963535,-0.69247628,-0.28341017\O,
 0,1.75833847,0.58775575,-0.22682277\C,0,0.39216829,0.5673053,-0.607750
 92\C,0,-0.42182409,0.06530539,0.58559682\C,0,-2.28001482,0.40321072,-0
 .08183128\O,0,-0.38734742,-1.23738689,0.88897514\H,0,1.9796845,-1.3939
 1401,0.44844387\H,0,2.30505394,-1.13244555,-1.29195467\H,0,3.45865723,
 -0.50665009,-0.06820396\H,0,0.21332265,-0.0932943,-1.47453899\H,0,0.12

 Normal termination of Gaussian 16 at Wed Apr  9 03:08:01 2025.
 Gaussian 16:  ES64L-G16RevC.01  3-Jul-2019

 ----------------------------------------------------------------------
 #t hf aug-cc-pvdz iop(5/13=1,5/36=2,99/5=2) pseudo=read geom=check gue
 ss=(read,tcheck) scf=(maxcycle=1)
 ----------------------------------------------------------------------
 -----
 title
 -----
 Structure from the checkpoint file:  "Grambow2020_b97d3_006566_forward_mol1.chk"
 Charge =  0 Multiplicity = 1

                         Standard orientation:
 ---------------------------------------------------------------------
 Center     Atomic      Atomic             Coordinates (Angstroms)
 Number     Number       Type             X           Y           Z
 ---------------------------------------------------------------------
      1          6           0        2.271972    0.333394    0.261706
      2          8           0        1.510711   -0.701560   -0.372967
      3          6           0        0.206666   -0.869185    0.159305
      4          6           0       -0.690668    0.212203   -0.444067
      5          6           0       -2.481314   -0.404015    0.208906
      6          8           0       -0.569409    1.470700   -0.006213
      7          1           0        1.837091    1.326046    0.089941
      8          1           0        2.338156    0.158056    1.350080
      9          1           0        3.276209    0.277110   -0.175000
     10          1           0        0.193713   -0.780977    1.260100
     11          1           0       -0.128657   -1.872458   -0.138373
     12          1           0       -0.874346    0.053620   -1.526603
     13          1           0       -3.336803    0.292181    0.174872
     14          1           0       -2.382446   -0.863714    1.197310
     15          1           0       -2.626856   -1.153452   -0.574406
     16          1           0       -1.666408    0.776079    0.260423
 ---------------------------------------------------------------------

 SCF Done:  E(RHF) =  -307.190469384     A.U. after    2 cycles

 The electronic state is 1-A.
 Alpha  occ. eigenvalues --  -20.55460 -20.50091 -11.36858 -11.30378 -11.27634
 Alpha  occ. eigenvalues --  -11.26318  -1.46496  -1.42542  -1.03242  -0.96837
 Alpha  occ. eigenvalues --   -0.90237  -0.81646  -0.70437  -0.68610  -0.65582
 Alpha  occ. eigenvalues --   -0.63986  -0.59314  -0.58046  -0.57932  -0.56749
 Alpha  occ. eigenvalues --   -0.52975  -0.49065  -0.45178  -0.39571  -0.36411
 Alpha virt. eigenvalues --    0.03137   0.03798   0.04140   0.04688   0.06071
 Alpha virt. eigenvalues --    0.06553   0.06982   0.07220   0.09235   0.09400
 Alpha virt. eigenvalues --    0.11762   0.12358   0.13566   0.14205   0.15008

 Mulliken charges:
               1
     1  C    0.116032
     2  O   -1.316737
     3  C    0.630212
     4  C    0.926880
     5  C   -0.685617
     6  O   -1.515033
     7  H    0.191759
     8  H    0.169098
     9  H    0.012227
    10  H    0.212630
    11  H    0.048294
    12  H    0.163903
    13  H    0.040798
    14  H    0.133880
    15  H    0.145158
    16  H    0.726518
 Sum of Mulliken charges =  -0.00000

 Dipole moment (field-independent basis, Debye):
    X=             -1.6216    Y=             -2.1639    Z=              0.5333  Tot=              2.7562

 Test job not archived.
 1\1\GINC-SE015\SP\RHF\Aug-CC-pVDZ\C4H10O2\OHZDE\09-Apr-2025\0\\#t hf a
 ug-cc-pvdz iop(5/13=1,5/36=2,99/5=2) pseudo=read geom=check guess=(rea
 d,tcheck) scf=(maxcycle=1)\\title\\0,1\C,0,2.39963535,-0.69247628,-0.2
 8341017\O,0,1.75833847,0.58775575,-0.22682277\C,0,0.39216829,0.5673053
 ,-0.60775092\C,0,-0.42182409,0.06530539,0.58559682\C,0,-2.28001482,0.4
 0321072,-0.08183128\O,0,-0.38734742,-1.23738689,0.88897514\H,0,1.97968
 45,-1.39391401,0.44844387\H,0,2.30505394,-1.13244555,-1.29195467\H,0,3
 .45865723,-0.50665009,-0.06820396\H,0,0.21332265,-0.0932943,-1.4745389

 Normal termination of Gaussian 16 at Wed Apr  9 03:08:06 2025.
