 Gaussian 16, Revision C.01,

 ----------------------------------------------------------------------
 #t hf aug-cc-pvdz symm=none int=(grid=ultrafine) guess=(read,tcheck) s
 table=(opt,rrhf)
 ----------------------------------------------------------------------
 -----
 title
 -----
 Symbolic Z-matrix:
 Charge =  0 Multiplicity = 1

 SCF Done:  E(RHF) =  -337.467157159     A.U. after   15 cycles
 Normal termination of Gaussian 16 at Wed Apr  9 03:58:23 2025.
 Gaussian 16:  ES64L-G16RevC.01  3-Jul-2019

 ----------------------------------------------------------------------
 #t hf aug-cc-pvdz iop(5/13=1,5/36=2,99/5=2) pseudo=read geom=check gue
 ss=(read,tcheck) scf=(maxcycle=1)
 ----------------------------------------------------------------------
 -----
 title
 -----
 Structure from the checkpoint file:  "Grambow2020_wb97xd3_008690_reverse_mol1.chk"
 Charge =  0 Multiplicity = 1

                         Standard orientation:
 ---------------------------------------------------------------------
 Center     Atomic      Atomic             Coordinates (Angstroms)
 Number     Number       Type             X           Y           Z
 ---------------------------------------------------------------------
      1          8           0        2.452987    0.434158   -0.157079
      2          6           0        1.695528   -0.483248    0.007990
      3          6           0        0.234015   -0.288341    0.146764
      4          6           0       -0.806075   -1.272806   -0.091342
      5          7           0       -1.976757   -0.497879   -0.134082
      6          6           0       -1.650467    0.762554   -0.054425
      7          7           0       -0.333196    0.973909    0.129146
      8          1           0        2.023048   -1.535505    0.050735
      9          1           0       -0.122552   -1.014622    1.088929
     10          1           0       -2.350808    1.587204   -0.109881
     11          1           0        0.158072    1.848495    0.207478
 ---------------------------------------------------------------------

 SCF Done:  E(RHF) =  -337.802474028     A.U. after    2 cycles

 The electronic state is 1-A.
 Alpha  occ. eigenvalues --  -20.57970 -15.58739 -15.50250 -11.37955 -11.35540
 Alpha  occ. eigenvalues --  -11.32573 -11.27616  -1.51534  -1.37875  -1.20344
 Alpha  occ. eigenvalues --   -1.10144  -0.92578  -0.89205  -0.84689  -0.79265
 Alpha  occ. eigenvalues --   -0.71995  -0.68544  -0.67112  -0.65636  -0.57189
 Alpha  occ. eigenvalues --   -0.52249  -0.47231  -0.45782  -0.45511  -0.38088
 Alpha virt. eigenvalues --    0.02276   0.04238   0.04572   0.05181   0.06070
 Alpha virt. eigenvalues --    0.08107   0.08390   0.08838   0.09914   0.11744
 Alpha virt. eigenvalues --    0.12655   0.12871   0.13634   0.14062   0.15039

 Mulliken charges:
               1
     1  O   -1.236040
     2  C    1.580562
     3  C   -0.862954
     4  C   -1.008299
     5  N    0.591887
     6  C   -0.518383
     7  N    0.770370
     8  H    0.160096
     9  H    0.531949
    10  H   -0.028018
    11  H    0.018831
 Sum of Mulliken charges =  -0.00000

 Dipole moment (field-independent basis, Debye):
    X=              0.8579    Y=              3.7871    Z=              1.4760  Tot=              4.1541

 Test job not archived.
 1\1\GINC-SE331\SP\RHF\Aug-CC-pVDZ\C4H4N2O1\OHZDE\09-Apr-2025\0\\#t hf
 aug-cc-pvdz iop(5/13=1,5/36=2,99/5=2) pseudo=read geom=check guess=(re
 ad,tcheck) scf=(maxcycle=1)\\title\\0,1\O,0,-2.24933879,-1.05545468,-0
 .6027198\C,0,-1.81772211,0.01223695,-0.26159517\C,0,-0.38396311,0.2267
 8573,0.04101533\C,0,0.33388452,1.48857083,0.02531139\N,0,1.68065589,1.
 09124805,0.05959537\C,0,1.73789736,-0.2096718,-0.01679001\N,0,0.531912
 89,-0.80897567,-0.01966079\H,0,-2.44575341,0.91368179,-0.1650784\H,0,-
 0.34894477,0.90260558,1.08233213\H,0,2.65371095,-0.78685904,-0.0585197

 Normal termination of Gaussian 16 at Wed Apr  9 03:58:27 2025.
