 Gaussian 16, Revision C.01,

 ----------------------------------------------------------------------
 #t hf aug-cc-pvdz symm=none int=(grid=ultrafine) guess=(read,tcheck) s
 table=(opt,rrhf)
 ----------------------------------------------------------------------
 -----
 title
 -----
 Symbolic Z-matrix:
 Charge =  0 Multiplicity = 1

 SCF Done:  E(RHF) =  -267.616062519     A.U. after   15 cycles
 Normal termination of Gaussian 16 at Wed Apr  9 15:50:41 2025.
 Gaussian 16:  ES64L-G16RevC.01  3-Jul-2019

 ----------------------------------------------------------------------
 #t hf aug-cc-pvdz iop(5/13=1,5/36=2,99/5=2) pseudo=read geom=check gue
 ss=(read,tcheck) scf=(maxcycle=1)
 ----------------------------------------------------------------------
 -----
 title
 -----
 Structure from the checkpoint file:  "Grambow2020_b97d3_006839_reverse_mol2.chk"
 Charge =  0 Multiplicity = 1

                         Standard orientation:
 ---------------------------------------------------------------------
 Center     Atomic      Atomic             Coordinates (Angstroms)
 Number     Number       Type             X           Y           Z
 ---------------------------------------------------------------------
      1          6           0       -3.178947   -0.350378   -0.047983
      2          6           0       -1.905020    0.023345   -0.033635
      3          6           0       -0.685482    0.397458   -0.026985
      4          6           0        0.599420    0.739939   -0.005379
      5          6           0        1.697871   -0.131251    0.562504
      6          8           0        2.703738   -0.406938   -0.415096
      7          1           0       -3.952623    0.278227   -0.494862
      8          1           0        2.249543   -0.836950   -1.164646
      9          1           0       -3.499757   -1.300561    0.385424
     10          1           0        0.921286    1.685126   -0.453780
     11          1           0        1.262015   -1.049807    0.991143
     12          1           0        2.222587    0.404788    1.366363
 ---------------------------------------------------------------------

 SCF Done:  E(RHF) =  -267.890026806     A.U. after    2 cycles

 The electronic state is 1-A.
 Alpha  occ. eigenvalues --  -20.55900 -11.30399 -11.27777 -11.27563 -11.27340
 Alpha  occ. eigenvalues --  -11.27256  -1.45094  -1.10184  -1.03924  -0.94628
 Alpha  occ. eigenvalues --   -0.86984  -0.71404  -0.69906  -0.67338  -0.62621
 Alpha  occ. eigenvalues --   -0.61352  -0.59555  -0.52169  -0.48564  -0.46098
 Alpha  occ. eigenvalues --   -0.38746  -0.34206
 Alpha virt. eigenvalues --    0.03452   0.04007   0.04140   0.04630   0.05455
 Alpha virt. eigenvalues --    0.05828   0.06929   0.09303   0.11381   0.12200
 Alpha virt. eigenvalues --    0.12632   0.13195   0.13316   0.14406   0.14910

 Mulliken charges:
               1
     1  C   -0.373902
     2  C    0.123005
     3  C    0.629353
     4  C   -0.041866
     5  C    0.384896
     6  O   -1.091992
     7  H   -0.013278
     8  H    0.334851
     9  H    0.000126
    10  H   -0.126591
    11  H    0.063865
    12  H    0.111533
 Sum of Mulliken charges =  -0.00000

 Dipole moment (field-independent basis, Debye):
    X=             -1.5693    Y=             -0.3939    Z=             -0.0769  Tot=              1.6198

 Test job not archived.
 1\1\GINC-SE041\SP\RHF\Aug-CC-pVDZ\C5H6O1\OHZDE\09-Apr-2025\0\\#t hf au
 g-cc-pvdz iop(5/13=1,5/36=2,99/5=2) pseudo=read geom=check guess=(read
 ,tcheck) scf=(maxcycle=1)\\title\\0,1\C,0,-2.94139886,0.60063678,0.409
 56858\C,0,-1.63538838,0.51874739,0.1850772\C,0,-0.38244286,0.45012764,
 -0.04447925\C,0,0.9276721,0.34306456,-0.24664056\C,0,1.86424146,-0.422
 24324,0.66176448\O,0,2.56911069,-1.44004676,-0.05287671\H,0,-3.6061724
 3,1.12864301,-0.27796624\H,0,1.89055149,-2.02037945,-0.44759216\H,0,-3
 .39901116,0.14201573,1.28926518\H,0,1.38224235,0.78988092,-1.13644986\

 Normal termination of Gaussian 16 at Wed Apr  9 15:50:44 2025.
