 Gaussian 16, Revision C.01,

 ----------------------------------------------------------------------
 #t hf aug-cc-pvdz symm=none int=(grid=ultrafine) guess=(read,tcheck) s
 table=(opt,rrhf)
 ----------------------------------------------------------------------
 -----
 title
 -----
 Symbolic Z-matrix:
 Charge =  0 Multiplicity = 1

 SCF Done:  E(RHF) =  -338.668458324     A.U. after   15 cycles
 Normal termination of Gaussian 16 at Wed Apr  9 03:40:53 2025.
 Gaussian 16:  ES64L-G16RevC.01  3-Jul-2019

 ----------------------------------------------------------------------
 #t hf aug-cc-pvdz iop(5/13=1,5/36=2,99/5=2) pseudo=read geom=check gue
 ss=(read,tcheck) scf=(maxcycle=1)
 ----------------------------------------------------------------------
 -----
 title
 -----
 Structure from the checkpoint file:  "Grambow2020_wb97xd3_007488_reverse_mol2.chk"
 Charge =  0 Multiplicity = 1

                         Standard orientation:
 ---------------------------------------------------------------------
 Center     Atomic      Atomic             Coordinates (Angstroms)
 Number     Number       Type             X           Y           Z
 ---------------------------------------------------------------------
      1          6           0        1.603181   -1.667965   -0.101868
      2          8           0        1.833227   -0.291670   -0.368488
      3          6           0        0.335738    1.423725    0.124783
      4          6           0        1.202722    0.528972    0.523839
      5          7           0       -2.677388   -1.492078    0.088122
      6          6           0       -2.415925   -0.384676   -0.035885
      7          7           0       -0.569941    2.175689   -0.216123
      8          1           0        1.947271   -1.932580    0.904071
      9          1           0        2.176727   -2.228313   -0.837387
     10          1           0        0.540919   -1.911068   -0.193863
     11          1           0        1.468873    0.463878    1.575556
     12          1           0       -2.146433    0.652399   -0.154819
     13          1           0       -0.276173    3.103438   -0.514861
 ---------------------------------------------------------------------

 SCF Done:  E(RHF) =  -339.008911387     A.U. after    2 cycles

 The electronic state is 1-A.
 Alpha  occ. eigenvalues --  -20.57999 -15.55098 -15.51974 -11.33498 -11.31745
 Alpha  occ. eigenvalues --  -11.29587 -11.27872  -1.50270  -1.27314  -1.23860
 Alpha  occ. eigenvalues --   -1.04739  -0.93612  -0.81954  -0.79322  -0.74892
 Alpha  occ. eigenvalues --   -0.70045  -0.65665  -0.62072  -0.61084  -0.60394
 Alpha  occ. eigenvalues --   -0.54652  -0.52141  -0.51722  -0.51480  -0.47075
 Alpha  occ. eigenvalues --   -0.37173
 Alpha virt. eigenvalues --    0.02755   0.03849   0.04432   0.05679   0.06243
 Alpha virt. eigenvalues --    0.07794   0.08790   0.09754   0.10349   0.11066
 Alpha virt. eigenvalues --    0.11710   0.12322   0.12674   0.14035   0.14175

 Mulliken charges:
               1
     1  C    0.159200
     2  O   -1.346838
     3  C   -2.098797
     4  C    1.804803
     5  N    0.678651
     6  C   -0.850989
     7  N    0.906776
     8  H    0.170586
     9  H    0.018182
    10  H    0.205596
    11  H    0.062315
    12  H    0.189536
    13  H    0.100978
 Sum of Mulliken charges =  -0.00000

 Dipole moment (field-independent basis, Debye):
    X=              2.8256    Y=              2.9573    Z=              0.6118  Tot=              4.1357

 Test job not archived.
 1\1\GINC-SE044\SP\RHF\Aug-CC-pVDZ\C4H6N2O1\OHZDE\09-Apr-2025\0\\#t hf
 aug-cc-pvdz iop(5/13=1,5/36=2,99/5=2) pseudo=read geom=check guess=(re
 ad,tcheck) scf=(maxcycle=1)\\title\\0,1\C,0,-1.87153098,0.2664219,-0.8
 5719185\O,0,-1.58370204,-0.35219673,0.38886702\C,0,0.50644576,-0.35315
 745,1.41825918\C,0,-0.58379713,0.28137448,1.07151976\N,0,2.13573035,0.
 34089492,-2.38251804\C,0,2.30828902,-0.0684808,-1.32766506\N,0,1.58404
 557,-0.89432929,1.63697021\H,0,-2.16790023,1.31139783,-0.71393202\H,0,
 -2.70026242,-0.28580969,-1.29557073\H,0,-1.00422547,0.22678277,-1.5221

 Normal termination of Gaussian 16 at Wed Apr  9 03:40:57 2025.
