 Gaussian 16, Revision C.01,

 ----------------------------------------------------------------------
 #t hf aug-cc-pvdz symm=none int=(grid=ultrafine) guess=(read,tcheck) s
 table=(opt,rrhf)
 ----------------------------------------------------------------------
 -----
 title
 -----
 Symbolic Z-matrix:
 Charge =  0 Multiplicity = 1

 SCF Done:  E(RHF) =  -268.751101031     A.U. after   14 cycles
 Normal termination of Gaussian 16 at Wed Apr  9 03:05:54 2025.
 Gaussian 16:  ES64L-G16RevC.01  3-Jul-2019

 ----------------------------------------------------------------------
 #t hf aug-cc-pvdz iop(5/13=1,5/36=2,99/5=2) pseudo=read geom=check gue
 ss=(read,tcheck) scf=(maxcycle=1)
 ----------------------------------------------------------------------
 -----
 title
 -----
 Structure from the checkpoint file:  "Grambow2020_b97d3_006492_forward_mol1.chk"
 Charge =  0 Multiplicity = 1

                         Standard orientation:
 ---------------------------------------------------------------------
 Center     Atomic      Atomic             Coordinates (Angstroms)
 Number     Number       Type             X           Y           Z
 ---------------------------------------------------------------------
      1          8           0        2.074409    0.077700   -0.220250
      2          6           0        0.828219    0.105910    0.139456
      3          6           0       -0.124779    1.266740    0.279432
      4          6           0       -1.431336    0.620255   -0.280188
      5          6           0       -1.320202   -0.918195   -0.006508
      6          6           0        0.185384   -1.156361    0.117537
      7          1           0       -0.245477    1.516573    1.346128
      8          1           0        0.181259    2.174724   -0.254541
      9          1           0       -2.332584    1.058239    0.167210
     10          1           0       -1.480228    0.800944   -1.362914
     11          1           0       -1.798756   -1.491152   -0.813764
     12          1           0       -1.842352   -1.182434    0.927432
     13          1           0        0.552726   -1.908388    0.821236
     14          1           0        1.546418   -1.100198   -0.567159
 ---------------------------------------------------------------------

 SCF Done:  E(RHF) =  -269.033756341     A.U. after    2 cycles

 The electronic state is 1-A.
 Alpha  occ. eigenvalues --  -20.55271 -11.35396 -11.26129 -11.25232 -11.24443
 Alpha  occ. eigenvalues --  -11.21649  -1.46994  -1.13453  -0.98856  -0.95402
 Alpha  occ. eigenvalues --   -0.82208  -0.73930  -0.67805  -0.66110  -0.64486
 Alpha  occ. eigenvalues --   -0.58452  -0.55494  -0.53821  -0.52505  -0.49948
 Alpha  occ. eigenvalues --   -0.49248  -0.43814  -0.33466
 Alpha virt. eigenvalues --    0.03330   0.03817   0.04079   0.04376   0.06360
 Alpha virt. eigenvalues --    0.06420   0.06857   0.07191   0.09273   0.10364
 Alpha virt. eigenvalues --    0.13523   0.13799   0.14280   0.15250   0.15626

 Mulliken charges:
               1
     1  O   -1.520838
     2  C    1.420775
     3  C   -0.468507
     4  C   -0.257351
     5  C   -0.368257
     6  C   -0.365185
     7  H    0.247685
     8  H    0.165557
     9  H    0.151161
    10  H    0.125087
    11  H    0.177502
    12  H    0.159135
    13  H   -0.038087
    14  H    0.571324
 Sum of Mulliken charges =  -0.00000

 Dipole moment (field-independent basis, Debye):
    X=             -2.4600    Y=              0.5727    Z=              0.7256  Tot=              2.6279

 Test job not archived.
 1\1\GINC-SE036\SP\RHF\Aug-CC-pVDZ\C5H8O1\OHZDE\09-Apr-2025\0\\#t hf au
 g-cc-pvdz iop(5/13=1,5/36=2,99/5=2) pseudo=read geom=check guess=(read
 ,tcheck) scf=(maxcycle=1)\\title\\0,1\O,0,-0.26284837,2.36831836,-0.61
 601824\C,0,-0.21754566,1.19249313,-0.06961334\C,0,-1.30826409,0.175864
 74,0.15869486\C,0,-0.53008789,-1.13999507,-0.15936839\C,0,0.9754318,-0
 .85823299,0.1694165\C,0,1.08925797,0.66366382,0.07055552\H,0,-1.613560
 74,0.19592377,1.21756974\H,0,-2.20230217,0.31966089,-0.46036953\H,0,-0
 .92445175,-1.99783119,0.3999505\H,0,-0.63921675,-1.36621374,-1.2290648

 Normal termination of Gaussian 16 at Wed Apr  9 03:05:59 2025.
