 Gaussian 16, Revision C.01,

 ----------------------------------------------------------------------
 #t hf aug-cc-pvdz symm=none int=(grid=ultrafine) guess=(read,tcheck) s
 table=(opt,rrhf)
 ----------------------------------------------------------------------
 -----
 title
 -----
 Symbolic Z-matrix:
 Charge =  0 Multiplicity = 1

 SCF Done:  E(RHF) =  -359.596623959     A.U. after   16 cycles
 Normal termination of Gaussian 16 at Wed Apr  9 19:21:06 2025.
 Gaussian 16:  ES64L-G16RevC.01  3-Jul-2019

 ----------------------------------------------------------------------
 #t hf aug-cc-pvdz iop(5/13=1,5/36=2,99/5=2) pseudo=read geom=check gue
 ss=(read,tcheck) scf=(maxcycle=1)
 ----------------------------------------------------------------------
 -----
 title
 -----
 Structure from the checkpoint file:  "Grambow2020_wb97xd3_009405_forward_mol1.chk"
 Charge =  0 Multiplicity = 1

                         Standard orientation:
 ---------------------------------------------------------------------
 Center     Atomic      Atomic             Coordinates (Angstroms)
 Number     Number       Type             X           Y           Z
 ---------------------------------------------------------------------
      1          8           0       -1.736583   -0.085496   -0.855755
      2          6           0       -1.090480    0.144842    0.393489
      3          6           0       -0.265278   -1.104835    0.688201
      4          8           0        0.837443   -1.219262   -0.220865
      5          6           0        1.566947   -0.117385   -0.374046
      6          7           0        1.196696    1.041434    0.034713
      7          6           0       -0.186156    1.329450    0.376290
      8          1           0       -1.800435    0.770449   -1.285310
      9          1           0       -1.846393    0.252321    1.181990
     10          1           0        0.116738   -1.067127    1.712597
     11          1           0       -0.845848   -2.013640    0.546866
     12          1           0        2.503039   -0.269078   -0.894219
     13          1           0       -0.241883    2.064957    1.169119
     14          1           0        0.780834    1.897715   -0.564677
 ---------------------------------------------------------------------

 SCF Done:  E(RHF) =  -359.965155369     A.U. after    2 cycles

 The electronic state is 1-A.
 Alpha  occ. eigenvalues --  -20.59864 -20.53653 -15.54528 -11.36213 -11.30118
 Alpha  occ. eigenvalues --  -11.28934 -11.23471  -1.53668  -1.44147  -1.27766
 Alpha  occ. eigenvalues --   -1.06317  -0.95693  -0.91683  -0.77987  -0.75531
 Alpha  occ. eigenvalues --   -0.72537  -0.68096  -0.65657  -0.62856  -0.59961
 Alpha  occ. eigenvalues --   -0.58732  -0.55273  -0.54066  -0.50227  -0.45390
 Alpha  occ. eigenvalues --   -0.43591  -0.28468
 Alpha virt. eigenvalues --    0.03388   0.04149   0.04769   0.04994   0.05512
 Alpha virt. eigenvalues --    0.06401   0.06810   0.08853   0.10125   0.10865
 Alpha virt. eigenvalues --    0.12297   0.13559   0.14568   0.14878   0.15071

 Mulliken charges:
               1
     1  O   -1.335574
     2  C    0.987730
     3  C    0.426570
     4  O   -1.210314
     5  C    0.270297
     6  N    0.611395
     7  C   -0.748535
     8  H    0.314614
     9  H    0.184151
    10  H    0.177459
    11  H    0.038181
    12  H   -0.048643
    13  H   -0.209897
    14  H    0.542565
 Sum of Mulliken charges =  -0.00000

 Dipole moment (field-independent basis, Debye):
    X=              1.2199    Y=              0.0458    Z=              0.6656  Tot=              1.3904

 Test job not archived.
 1\1\GINC-SE098\SP\RHF\Aug-CC-pVDZ\C4H7N1O2\OHZDE\09-Apr-2025\0\\#t hf
 aug-cc-pvdz iop(5/13=1,5/36=2,99/5=2) pseudo=read geom=check guess=(re
 ad,tcheck) scf=(maxcycle=1)\\title\\0,1\O,0,-1.19658178,-0.35624746,1.
 49273351\C,0,-1.02870175,0.10876901,0.15606185\C,0,-0.11401959,1.32797
 004,0.23612703\O,0,1.21766972,0.94840413,0.60764046\C,0,1.7341468,-0.0
 6661136,-0.07994116\N,0,1.04090711,-0.83634684,-0.83754058\C,0,-0.4076
 973,-0.90434392,-0.74357599\H,0,-1.28542791,-1.31016411,1.43454105\H,0
 ,-1.99866968,0.4315157,-0.24354669\H,0,-0.08506942,1.837336,-0.7315779

 Normal termination of Gaussian 16 at Wed Apr  9 19:21:10 2025.
