 Gaussian 16, Revision C.01,

 ----------------------------------------------------------------------
 #t hf aug-cc-pvdz symm=none int=(grid=ultrafine) guess=(read,tcheck) s
 table=(opt,rrhf)
 ----------------------------------------------------------------------
 -----
 title
 -----
 Symbolic Z-matrix:
 Charge =  0 Multiplicity = 1

 SCF Done:  E(RHF) =  -322.674430939     A.U. after   14 cycles
 Normal termination of Gaussian 16 at Wed Apr  9 18:21:14 2025.
 Gaussian 16:  ES64L-G16RevC.01  3-Jul-2019

 ----------------------------------------------------------------------
 #t hf aug-cc-pvdz iop(5/13=1,5/36=2,99/5=2) pseudo=read geom=check gue
 ss=(read,tcheck) scf=(maxcycle=1)
 ----------------------------------------------------------------------
 -----
 title
 -----
 Structure from the checkpoint file:  "Grambow2020_wb97xd3_007346_reverse_mol2.chk"
 Charge =  0 Multiplicity = 1

                         Standard orientation:
 ---------------------------------------------------------------------
 Center     Atomic      Atomic             Coordinates (Angstroms)
 Number     Number       Type             X           Y           Z
 ---------------------------------------------------------------------
      1          8           0       -3.296703   -0.930335    0.440312
      2          6           0       -2.724368   -0.009372    0.035345
      3          6           0       -2.068550    1.024642   -0.419228
      4          7           0        1.134753    0.606120    0.276371
      5          6           0        2.543700    0.375901    0.689417
      6          6           0        2.641895   -0.743495   -0.376708
      7          6           0        1.221929   -0.318850   -0.601376
      8          1           0       -1.089373    1.244519   -0.006801
      9          1           0       -2.515978    1.635134   -1.188150
     10          1           0        2.628167    0.056011    1.728456
     11          1           0        3.175376    1.249749    0.526130
     12          1           0        2.785253   -1.757485   -0.001781
     13          1           0        3.330285   -0.564087   -1.203302
     14          1           0        0.428988   -0.636951   -1.276342
 ---------------------------------------------------------------------

 SCF Done:  E(RHF) =  -323.003932050     A.U. after    2 cycles

 The electronic state is 1-A.
 Alpha  occ. eigenvalues --  -20.60418 -15.50687 -11.37907 -11.29052 -11.27244
 Alpha  occ. eigenvalues --  -11.25332 -11.23084  -1.54814  -1.28967  -1.04612
 Alpha  occ. eigenvalues --   -0.98899  -0.92148  -0.75245  -0.74702  -0.69642
 Alpha  occ. eigenvalues --   -0.67130  -0.66941  -0.64661  -0.63176  -0.62400
 Alpha  occ. eigenvalues --   -0.54869  -0.54196  -0.49402  -0.45394  -0.44976
 Alpha  occ. eigenvalues --   -0.35530
 Alpha virt. eigenvalues --    0.03360   0.04140   0.04362   0.04430   0.05776
 Alpha virt. eigenvalues --    0.06359   0.06842   0.07739   0.09512   0.10395
 Alpha virt. eigenvalues --    0.11182   0.12520   0.13308   0.13907   0.14036

 Mulliken charges:
               1
     1  O   -0.876572
     2  C    0.553777
     3  C    0.293595
     4  N    0.583750
     5  C   -0.046689
     6  C   -0.077978
     7  C   -0.514512
     8  H    0.074119
     9  H   -0.007424
    10  H   -0.013810
    11  H   -0.011546
    12  H    0.083820
    13  H    0.089470
    14  H   -0.130000
 Sum of Mulliken charges =  -0.00000

 Dipole moment (field-independent basis, Debye):
    X=              3.0980    Y=             -0.6351    Z=             -1.6161  Tot=              3.5514

 Test job not archived.
 1\1\GINC-SE162\SP\RHF\Aug-CC-pVDZ\C5H7N1O1\OHZDE\09-Apr-2025\0\\#t hf
 aug-cc-pvdz iop(5/13=1,5/36=2,99/5=2) pseudo=read geom=check guess=(re
 ad,tcheck) scf=(maxcycle=1)\\title\\0,1\O,0,3.23139413,2.31501311,0.80
 612031\C,0,2.9667077,1.19164073,0.89395027\C,0,2.65744082,-0.07375095,
 0.98911932\N,0,-0.5812154,-0.39365228,0.41559344\C,0,-2.05328282,-0.44
 2512,0.21717207\C,0,-1.83134243,-0.12877811,-1.28336932\C,0,-0.4046029
 9,-0.13466878,-0.82349561\H,0,1.62328499,-0.34622752,1.17216776\H,0,3.
 43518295,-0.81466383,0.88763274\H,0,-2.57862388,0.3200692,0.79297778\H

 Normal termination of Gaussian 16 at Wed Apr  9 18:21:18 2025.
