 Gaussian 16, Revision C.01,

 ----------------------------------------------------------------------
 #t hf aug-cc-pvdz symm=none int=(grid=ultrafine) guess=(read,tcheck) s
 table=(opt,rrhf)
 ----------------------------------------------------------------------
 -----
 title
 -----
 Symbolic Z-matrix:
 Charge =  0 Multiplicity = 1

 SCF Done:  E(RHF) =  -268.694694933     A.U. after   16 cycles
 Normal termination of Gaussian 16 at Wed Apr  9 03:21:09 2025.
 Gaussian 16:  ES64L-G16RevC.01  3-Jul-2019

 ----------------------------------------------------------------------
 #t hf aug-cc-pvdz iop(5/13=1,5/36=2,99/5=2) pseudo=read geom=check gue
 ss=(read,tcheck) scf=(maxcycle=1)
 ----------------------------------------------------------------------
 -----
 title
 -----
 Structure from the checkpoint file:  "Grambow2020_wb97xd3_006047_forward_mol1.chk"
 Charge =  0 Multiplicity = 1

                         Standard orientation:
 ---------------------------------------------------------------------
 Center     Atomic      Atomic             Coordinates (Angstroms)
 Number     Number       Type             X           Y           Z
 ---------------------------------------------------------------------
      1          6           0       -0.978087    1.398763   -0.000224
      2          8           0       -1.798681    0.414941    0.000282
      3          6           0       -1.095179   -1.326114    0.000388
      4          6           0        0.249970   -1.124914   -0.001032
      5          6           0        1.074486   -0.175967   -0.000422
      6          6           0        2.490692    0.246895    0.000397
      7          1           0       -0.876938    1.978188   -0.928002
      8          1           0       -0.876991    1.978738    0.927202
      9          1           0        0.266611    0.865778   -0.000018
     10          1           0       -1.574339   -1.656068    0.914435
     11          1           0       -1.576928   -1.656166   -0.912295
     12          1           0        2.719985    0.847076    0.882429
     13          1           0        3.134391   -0.632221    0.002965
     14          1           0        2.722358    0.843171   -0.883609
 ---------------------------------------------------------------------

 SCF Done:  E(RHF) =  -268.977504246     A.U. after    2 cycles

 The electronic state is 1-A.
 Alpha  occ. eigenvalues --  -20.53743 -11.30907 -11.30137 -11.26755 -11.25769
 Alpha  occ. eigenvalues --  -11.22638  -1.43760  -1.09994  -1.01764  -0.93129
 Alpha  occ. eigenvalues --   -0.86453  -0.70965  -0.66460  -0.65683  -0.62502
 Alpha  occ. eigenvalues --   -0.62197  -0.59777  -0.59520  -0.57536  -0.42950
 Alpha  occ. eigenvalues --   -0.41781  -0.38006  -0.35038
 Alpha virt. eigenvalues --    0.03076   0.04156   0.04236   0.04490   0.06223
 Alpha virt. eigenvalues --    0.06311   0.07300   0.08204   0.09444   0.10979
 Alpha virt. eigenvalues --    0.11377   0.12924   0.13680   0.14010   0.14215

 Mulliken charges:
               1
     1  C    0.250417
     2  O   -1.032796
     3  C   -0.114894
     4  C   -0.231998
     5  C    0.373252
     6  C   -0.679826
     7  H    0.152133
     8  H    0.152011
     9  H    0.283804
    10  H    0.083220
    11  H    0.082909
    12  H    0.258325
    13  H    0.164398
    14  H    0.259044
 Sum of Mulliken charges =  -0.00000

 Dipole moment (field-independent basis, Debye):
    X=              1.4846    Y=              0.8358    Z=              0.0021  Tot=              1.7037

 Test job not archived.
 1\1\GINC-SE083\SP\RHF\Aug-CC-pVDZ\C5H8O1\OHZDE\09-Apr-2025\0\\#t hf au
 g-cc-pvdz iop(5/13=1,5/36=2,99/5=2) pseudo=read geom=check guess=(read
 ,tcheck) scf=(maxcycle=1)\\title\\0,1\C,0,-1.67754192,0.38784246,0.100
 07741\O,0,-1.96973987,-0.65065557,-0.59088155\C,0,-0.56543466,-1.60801
 079,-1.38937096\C,0,0.54362477,-0.91426455,-1.01706511\C,0,0.85497616,
 0.1002724,-0.34319285\C,0,1.92859559,0.98019526,0.16427967\H,0,-1.9192
 0978,1.37011981,-0.32824937\H,0,-1.7732059,0.31704911,1.19211569\H,0,-
 0.33013792,0.51487256,0.05868409\H,0,-0.77315499,-2.55848685,-0.912513

 Normal termination of Gaussian 16 at Wed Apr  9 03:21:14 2025.
