 Gaussian 16, Revision C.01,

 ----------------------------------------------------------------------
 #t hf aug-cc-pvdz symm=none int=(grid=ultrafine) guess=(read,tcheck) s
 table=(opt,rrhf)
 ----------------------------------------------------------------------
 -----
 title
 -----
 Symbolic Z-matrix:
 Charge =  0 Multiplicity = 1

 SCF Done:  E(RHF) =  -333.537507445     A.U. after   17 cycles
 Normal termination of Gaussian 16 at Wed Apr  9 03:33:04 2025.
 Gaussian 16:  ES64L-G16RevC.01  3-Jul-2019

 ----------------------------------------------------------------------
 #t hf aug-cc-pvdz iop(5/13=1,5/36=2,99/5=2) pseudo=read geom=check gue
 ss=(read,tcheck) scf=(maxcycle=1)
 ----------------------------------------------------------------------
 -----
 title
 -----
 Structure from the checkpoint file:  "Grambow2020_wb97xd3_006996_forward_mol1.chk"
 Charge =  0 Multiplicity = 1

                         Standard orientation:
 ---------------------------------------------------------------------
 Center     Atomic      Atomic             Coordinates (Angstroms)
 Number     Number       Type             X           Y           Z
 ---------------------------------------------------------------------
      1          7           0        1.466925   -0.407386    0.775729
      2          6           0        0.936308   -0.061510   -0.380579
      3          6           0        0.334051    1.256505   -0.560844
      4          7           0       -0.770898    1.231885    0.094480
      5          6           0       -1.154608    0.032772    0.652901
      6          7           0       -1.021796   -1.072405   -0.217527
      7          7           0        0.102449   -1.108497   -0.784368
      8          1           0        1.966953    0.362371    1.211414
      9          1           0        0.250245   -0.381021    1.274364
     10          1           0        0.686226    2.117040   -1.111928
     11          1           0       -2.034692    0.029831    1.279084
 ---------------------------------------------------------------------

 SCF Done:  E(RHF) =  -333.871990364     A.U. after    2 cycles

 The electronic state is 1-A.
 Alpha  occ. eigenvalues --  -15.59068 -15.57151 -15.56263 -15.55394 -11.37104
 Alpha  occ. eigenvalues --  -11.32194 -11.29958  -1.43174  -1.28846  -1.26236
 Alpha  occ. eigenvalues --   -1.09157  -0.96348  -0.92734  -0.79890  -0.77580
 Alpha  occ. eigenvalues --   -0.75972  -0.72125  -0.66938  -0.59964  -0.58315
 Alpha  occ. eigenvalues --   -0.54407  -0.53844  -0.50003  -0.45178  -0.36462
 Alpha virt. eigenvalues --    0.01424   0.03209   0.03784   0.04864   0.06118
 Alpha virt. eigenvalues --    0.06511   0.07105   0.07726   0.09382   0.09754
 Alpha virt. eigenvalues --    0.11505   0.12105   0.13580   0.14151   0.14666

 Mulliken charges:
               1
     1  N    0.533574
     2  C   -1.674340
     3  C   -0.302408
     4  N    0.818923
     5  C   -0.829986
     6  N    0.076751
     7  N    0.440358
     8  H    0.296353
     9  H    0.750989
    10  H    0.009444
    11  H   -0.119657
 Sum of Mulliken charges =  -0.00000

 Dipole moment (field-independent basis, Debye):
    X=              2.3085    Y=              3.4286    Z=              0.7388  Tot=              4.1989

 Test job not archived.
 1\1\GINC-SE419\SP\RHF\Aug-CC-pVDZ\C3H4N4\OHZDE\09-Apr-2025\0\\#t hf au
 g-cc-pvdz iop(5/13=1,5/36=2,99/5=2) pseudo=read geom=check guess=(read
 ,tcheck) scf=(maxcycle=1)\\title\\0,1\N,0,1.34790104,-0.68727826,-0.51
 912628\C,0,0.61503405,0.39280061,-0.70505559\C,0,0.23613985,1.2406377,
 0.4218793\N,0,-0.65371009,0.58259473,1.0746544\C,0,-1.09532232,-0.6037
 8098,0.53203977\N,0,-1.38867392,-0.52771671,-0.84812658\N,0,-0.4692096
 9,0.02561077,-1.50763597\H,0,2.07254956,-0.54116915,0.17794784\H,0,0.3
 2162646,-1.20069215,0.12337629\H,0,0.58821899,2.22145082,0.70873794\H,

 Normal termination of Gaussian 16 at Wed Apr  9 03:33:08 2025.
