 Gaussian 16, Revision C.01,

 ----------------------------------------------------------------------
 #t hf aug-cc-pvdz symm=none int=(grid=ultrafine) guess=(read,tcheck) s
 table=(opt,rrhf)
 ----------------------------------------------------------------------
 -----
 title
 -----
 Symbolic Z-matrix:
 Charge =  0 Multiplicity = 1

 SCF Done:  E(RHF) =  -268.820305522     A.U. after   14 cycles
 Normal termination of Gaussian 16 at Wed Apr  9 16:00:52 2025.
 Gaussian 16:  ES64L-G16RevC.01  3-Jul-2019

 ----------------------------------------------------------------------
 #t hf aug-cc-pvdz iop(5/13=1,5/36=2,99/5=2) pseudo=read geom=check gue
 ss=(read,tcheck) scf=(maxcycle=1)
 ----------------------------------------------------------------------
 -----
 title
 -----
 Structure from the checkpoint file:  "Grambow2020_b97d3_007086_forward_mol2.chk"
 Charge =  0 Multiplicity = 1

                         Standard orientation:
 ---------------------------------------------------------------------
 Center     Atomic      Atomic             Coordinates (Angstroms)
 Number     Number       Type             X           Y           Z
 ---------------------------------------------------------------------
      1          6           0        1.954401   -0.907131    0.119354
      2          6           0        1.200639    0.334185   -0.365746
      3          6           0       -0.145698    0.536664    0.350090
      4          8           0       -0.669708    1.794146   -0.099450
      5          6           0       -1.084789   -0.566931    0.088446
      6          6           0       -1.884455   -1.458617   -0.131093
      7          1           0        2.158460   -0.851487    1.198913
      8          1           0        2.917009   -1.003234   -0.400631
      9          1           0        1.371975   -1.819235   -0.068734
     10          1           0        1.005125    0.275363   -1.445377
     11          1           0        1.793344    1.242993   -0.187539
     12          1           0        0.045687    0.566629    1.441534
     13          1           0       -1.589765    1.850756    0.219935
     14          1           0       -2.584752   -2.243979   -0.328803
 ---------------------------------------------------------------------

 SCF Done:  E(RHF) =  -269.102881317     A.U. after    2 cycles

 The electronic state is 1-A.
 Alpha  occ. eigenvalues --  -20.56006 -11.32127 -11.25420 -11.25042 -11.23961
 Alpha  occ. eigenvalues --  -11.23049  -1.45395  -1.08361  -1.02418  -0.93512
 Alpha  occ. eigenvalues --   -0.83537  -0.74054  -0.70080  -0.68330  -0.62140
 Alpha  occ. eigenvalues --   -0.59205  -0.55377  -0.52003  -0.50417  -0.49679
 Alpha  occ. eigenvalues --   -0.46730  -0.40810  -0.39927
 Alpha virt. eigenvalues --    0.03327   0.03942   0.04067   0.04665   0.05884
 Alpha virt. eigenvalues --    0.06892   0.07555   0.07769   0.10339   0.11295
 Alpha virt. eigenvalues --    0.12117   0.13138   0.13959   0.14126   0.15473

 Mulliken charges:
               1
     1  C   -0.374538
     2  C   -0.498895
     3  C    0.604304
     4  O   -1.341454
     5  C    0.250370
     6  C    0.325098
     7  H    0.193282
     8  H    0.126154
     9  H    0.205284
    10  H    0.157275
    11  H    0.198731
    12  H    0.221258
    13  H    0.323300
    14  H   -0.390170
 Sum of Mulliken charges =  -0.00000

 Dipole moment (field-independent basis, Debye):
    X=             -0.3746    Y=             -0.9461    Z=              0.7969  Tot=              1.2925

 Test job not archived.
 1\1\GINC-SE100\SP\RHF\Aug-CC-pVDZ\C5H8O1\OHZDE\09-Apr-2025\0\\#t hf au
 g-cc-pvdz iop(5/13=1,5/36=2,99/5=2) pseudo=read geom=check guess=(read
 ,tcheck) scf=(maxcycle=1)\\title\\0,1\C,0,-1.43518525,1.07035201,-0.27
 31692\C,0,-1.01070193,-0.37021702,0.02502696\C,0,0.44229682,-0.4778547
 8,0.51823035\O,0,0.65550434,-1.84816989,0.88526467\C,0,1.40835533,-0.0
 3247429,-0.4999252\C,0,2.22565384,0.31162044,-1.3344241\H,0,-1.3408235
 2,1.70542451,0.62011892\H,0,-2.48259969,1.10508975,-0.60172895\H,0,-0.
 81362867,1.50713874,-1.06652686\H,0,-1.11281455,-1.00056737,-0.8691319

 Normal termination of Gaussian 16 at Wed Apr  9 16:00:56 2025.
