 Gaussian 16, Revision C.01,

 ----------------------------------------------------------------------
 #t hf aug-cc-pvdz symm=none int=(grid=ultrafine) guess=(read,tcheck) s
 table=(opt,rrhf)
 ----------------------------------------------------------------------
 -----
 title
 -----
 Symbolic Z-matrix:
 Charge =  0 Multiplicity = 1

 SCF Done:  E(RHF) =  -286.745863431     A.U. after   16 cycles
 Normal termination of Gaussian 16 at Wed Apr  9 19:08:05 2025.
 Gaussian 16:  ES64L-G16RevC.01  3-Jul-2019

 ----------------------------------------------------------------------
 #t hf aug-cc-pvdz iop(5/13=1,5/36=2,99/5=2) pseudo=read geom=check gue
 ss=(read,tcheck) scf=(maxcycle=1)
 ----------------------------------------------------------------------
 -----
 title
 -----
 Structure from the checkpoint file:  "Grambow2020_wb97xd3_008599_reverse_mol2.chk"
 Charge =  0 Multiplicity = 1

                         Standard orientation:
 ---------------------------------------------------------------------
 Center     Atomic      Atomic             Coordinates (Angstroms)
 Number     Number       Type             X           Y           Z
 ---------------------------------------------------------------------
      1          6           0        0.450974   -1.391693    0.611491
      2          6           0       -0.247898   -0.824356   -0.579461
      3          6           0       -0.990672    0.535344   -0.382336
      4          6           0        0.043865    1.408953    0.334161
      5          6           0        1.400098    0.793507   -0.043251
      6          6           0       -2.048723   -0.050435    0.427066
      7          7           0        1.173242   -0.616327   -0.370412
      8          1           0        0.689328   -2.447862    0.622947
      9          1           0        0.228283   -0.955139    1.577765
     10          1           0       -0.557375   -1.447040   -1.407622
     11          1           0       -1.248020    0.902801   -1.381379
     12          1           0       -0.028473    2.455733    0.037666
     13          1           0       -0.140294    1.359687    1.407909
     14          1           0        1.811052    1.263952   -0.938724
     15          1           0       -2.759981   -0.522395   -0.279833
     16          1           0        2.146921    0.876627    0.748138
 ---------------------------------------------------------------------

 SCF Done:  E(RHF) =  -287.049939636     A.U. after    2 cycles

 The electronic state is 1-A.
 Alpha  occ. eigenvalues --  -15.50866 -11.28357 -11.26885 -11.26843 -11.26210
 Alpha  occ. eigenvalues --  -11.25092 -11.23196  -1.30525  -1.08890  -1.03787
 Alpha  occ. eigenvalues --   -0.90504  -0.85553  -0.80517  -0.75269  -0.71934
 Alpha  occ. eigenvalues --   -0.64944  -0.64034  -0.61807  -0.57956  -0.52779
 Alpha  occ. eigenvalues --   -0.51229  -0.49712  -0.48664  -0.47422  -0.40898
 Alpha  occ. eigenvalues --   -0.35863
 Alpha virt. eigenvalues --    0.03269   0.03813   0.04008   0.04666   0.05426
 Alpha virt. eigenvalues --    0.05702   0.06036   0.06660   0.06983   0.09700
 Alpha virt. eigenvalues --    0.11354   0.11938   0.13001   0.13679   0.13919

 Mulliken charges:
               1
     1  C    0.312094
     2  C   -0.427597
     3  C    0.078018
     4  C   -0.236971
     5  C   -0.207873
     6  C   -0.242715
     7  N    0.655106
     8  H   -0.105513
     9  H   -0.079210
    10  H   -0.245091
    11  H    0.052880
    12  H    0.108882
    13  H    0.157603
    14  H    0.036031
    15  H    0.084613
    16  H    0.059743
 Sum of Mulliken charges =   0.00000

 Dipole moment (field-independent basis, Debye):
    X=             -0.1165    Y=              0.7593    Z=             -1.0976  Tot=              1.3398

 Test job not archived.
 1\1\GINC-SE018\SP\RHF\Aug-CC-pVDZ\C6H9N1\OHZDE\09-Apr-2025\0\\#t hf au
 g-cc-pvdz iop(5/13=1,5/36=2,99/5=2) pseudo=read geom=check guess=(read
 ,tcheck) scf=(maxcycle=1)\\title\\0,1\C,0,1.12016048,1.18814622,-0.318
 19848\C,0,1.00754891,-0.04911036,0.50955483\C,0,-0.42948383,-0.4831665
 8,0.94069934\C,0,-1.23308504,-0.40767387,-0.36135803\C,0,-0.18506014,-
 0.56252927,-1.47412227\C,0,-0.58066973,0.6129932,1.88585399\N,0,1.1030
 9469,-0.11709119,-0.93711894\H,0,2.07260429,1.70122534,-0.36333193\H,0
 ,0.24595027,1.82417611,-0.38946789\H,0,1.83787751,-0.41944118,1.095023

 Normal termination of Gaussian 16 at Wed Apr  9 19:08:11 2025.
