 Gaussian 16, Revision C.01,

 ----------------------------------------------------------------------
 #t hf aug-cc-pvdz symm=none int=(grid=ultrafine) guess=(read,tcheck) s
 table=(opt,rrhf)
 ----------------------------------------------------------------------
 -----
 title
 -----
 Symbolic Z-matrix:
 Charge =  0 Multiplicity = 1

 SCF Done:  E(RHF) =  -302.832097820     A.U. after   14 cycles
 Normal termination of Gaussian 16 at Wed Apr  9 19:17:02 2025.
 Gaussian 16:  ES64L-G16RevC.01  3-Jul-2019

 ----------------------------------------------------------------------
 #t hf aug-cc-pvdz iop(5/13=1,5/36=2,99/5=2) pseudo=read geom=check gue
 ss=(read,tcheck) scf=(maxcycle=1)
 ----------------------------------------------------------------------
 -----
 title
 -----
 Structure from the checkpoint file:  "Grambow2020_wb97xd3_009048_reverse_mol2.chk"
 Charge =  0 Multiplicity = 1

                         Standard orientation:
 ---------------------------------------------------------------------
 Center     Atomic      Atomic             Coordinates (Angstroms)
 Number     Number       Type             X           Y           Z
 ---------------------------------------------------------------------
      1          7           0        0.464072    1.912884    0.081728
      2          6           0        0.402170    0.490154    0.368119
      3          6           0       -0.942727   -0.108324    0.102359
      4          7           0       -2.043500    0.219306   -0.380985
      5          6           0        1.438208   -0.258479   -0.430533
      6          6           0       -1.879285   -1.209095    0.123808
      7          6           0        2.297128   -1.123074    0.079480
      8          1           0       -0.251181    2.405598    0.601507
      9          1           0        0.271259    2.079428   -0.898737
     10          1           0        0.615432    0.336559    1.430704
     11          1           0        1.437048   -0.055603   -1.499151
     12          1           0       -2.409945   -1.465578    1.035950
     13          1           0       -1.832487   -1.988841   -0.630235
     14          1           0        3.013713   -1.640504   -0.545990
     15          1           0        2.319192   -1.343485    1.141354
 ---------------------------------------------------------------------

 SCF Done:  E(RHF) =  -303.152139210     A.U. after    2 cycles

 The electronic state is 1-A.
 Alpha  occ. eigenvalues --  -15.51889 -15.50044 -11.29990 -11.29273 -11.27491
 Alpha  occ. eigenvalues --  -11.25805 -11.24866  -1.31858  -1.21000  -1.07478
 Alpha  occ. eigenvalues --   -0.95848  -0.88733  -0.80731  -0.75469  -0.70672
 Alpha  occ. eigenvalues --   -0.68208  -0.67143  -0.65196  -0.60877  -0.59947
 Alpha  occ. eigenvalues --   -0.54986  -0.52190  -0.47957  -0.44048  -0.41659
 Alpha  occ. eigenvalues --   -0.39486
 Alpha virt. eigenvalues --    0.03624   0.03752   0.03917   0.04510   0.05689
 Alpha virt. eigenvalues --    0.06240   0.06287   0.08650   0.09043   0.09699
 Alpha virt. eigenvalues --    0.11068   0.12628   0.13130   0.13764   0.14434

 Mulliken charges:
               1
     1  N    0.449810
     2  C   -1.530014
     3  C   -0.689638
     4  N    0.686674
     5  C    1.123172
     6  C    0.154599
     7  C   -0.236806
     8  H    0.176384
     9  H    0.213043
    10  H    0.114572
    11  H   -0.181174
    12  H   -0.061371
    13  H   -0.032730
    14  H   -0.099128
    15  H   -0.087391
 Sum of Mulliken charges =   0.00000

 Dipole moment (field-independent basis, Debye):
    X=              1.4876    Y=             -1.6319    Z=              0.9025  Tot=              2.3855

 Test job not archived.
 1\1\GINC-SE029\SP\RHF\Aug-CC-pVDZ\C5H8N2\OHZDE\09-Apr-2025\0\\#t hf au
 g-cc-pvdz iop(5/13=1,5/36=2,99/5=2) pseudo=read geom=check guess=(read
 ,tcheck) scf=(maxcycle=1)\\title\\0,1\N,0,2.00047892,-0.49918446,0.004
 9705\C,0,0.5792558,-0.35448215,0.26802274\C,0,0.1435015,1.07096218,0.3
 9363955\N,0,0.612705,2.2174065,0.25882196\C,0,-0.23209521,-1.02153105,
 -0.81291538\C,0,-0.85011622,2.08512482,0.66473971\C,0,-1.20990553,-1.8
 8229259,-0.59301248\H,0,2.53836328,-0.02675211,0.72052079\H,0,2.239166
 69,-0.05404237,-0.87315439\H,0,0.34682006,-0.84417325,1.21898892\H,0,0

 Normal termination of Gaussian 16 at Wed Apr  9 19:17:07 2025.
