 Gaussian 16, Revision C.01,

 ----------------------------------------------------------------------
 #t hf aug-cc-pvdz symm=none int=(grid=ultrafine) guess=(read,tcheck) s
 table=(opt,rrhf)
 ----------------------------------------------------------------------
 -----
 title
 -----
 Symbolic Z-matrix:
 Charge =  0 Multiplicity = 1

 SCF Done:  E(RHF) =  -343.675057795     A.U. after   13 cycles
 Normal termination of Gaussian 16 at Wed Apr  9 03:28:47 2025.
 Gaussian 16:  ES64L-G16RevC.01  3-Jul-2019

 ----------------------------------------------------------------------
 #t hf aug-cc-pvdz iop(5/13=1,5/36=2,99/5=2) pseudo=read geom=check gue
 ss=(read,tcheck) scf=(maxcycle=1)
 ----------------------------------------------------------------------
 -----
 title
 -----
 Structure from the checkpoint file:  "Grambow2020_wb97xd3_006709_forward_mol2.chk"
 Charge =  0 Multiplicity = 1

                         Standard orientation:
 ---------------------------------------------------------------------
 Center     Atomic      Atomic             Coordinates (Angstroms)
 Number     Number       Type             X           Y           Z
 ---------------------------------------------------------------------
      1          8           0        2.515353    0.157084   -0.212484
      2          6           0        1.408670   -0.703751   -0.059553
      3          6           0        0.266145   -0.000687    0.630370
      4          8           0       -0.211221    1.148651   -0.121196
      5          6           0       -1.547554    0.671897   -0.009111
      6          6           0       -1.717830   -0.612154   -0.733334
      7          6           0       -1.126965   -0.607513    0.654943
      8          1           0        2.212078    0.932094   -0.692852
      9          1           0        1.081058   -1.100796   -1.027442
     10          1           0        1.739054   -1.544170    0.555344
     11          1           0        0.579661    0.339001    1.621853
     12          1           0       -2.328506    1.386535    0.212607
     13          1           0       -1.112585   -0.816742   -1.608082
     14          1           0       -2.732194   -0.989319   -0.777028
     15          1           0       -1.566418   -1.139247    1.485148
 ---------------------------------------------------------------------

 SCF Done:  E(RHF) =  -344.030749928     A.U. after    2 cycles

 The electronic state is 1-A.
 Alpha  occ. eigenvalues --  -20.55041 -20.54500 -11.30181 -11.29774 -11.28350
 Alpha  occ. eigenvalues --  -11.25172 -11.24900  -1.48731  -1.44727  -1.14457
 Alpha  occ. eigenvalues --   -1.01701  -0.89163  -0.83295  -0.76037  -0.73749
 Alpha  occ. eigenvalues --   -0.69751  -0.67361  -0.63520  -0.60478  -0.56996
 Alpha  occ. eigenvalues --   -0.55919  -0.53403  -0.51091  -0.48535  -0.44990
 Alpha  occ. eigenvalues --   -0.41090  -0.39193
 Alpha virt. eigenvalues --    0.03094   0.03713   0.03832   0.04728   0.05982
 Alpha virt. eigenvalues --    0.06315   0.06703   0.07828   0.10029   0.12063
 Alpha virt. eigenvalues --    0.12784   0.13153   0.13786   0.14214   0.14942

 Mulliken charges:
               1
     1  O   -1.186219
     2  C    0.689822
     3  C    0.528165
     4  O   -1.515539
     5  C    1.242052
     6  C    0.170528
     7  C    0.153456
     8  H    0.320512
     9  H    0.107943
    10  H    0.130769
    11  H   -0.020512
    12  H   -0.150707
    13  H   -0.142098
    14  H   -0.098622
    15  H   -0.229551
 Sum of Mulliken charges =   0.00000

 Dipole moment (field-independent basis, Debye):
    X=             -2.6143    Y=             -1.1473    Z=              0.3492  Tot=              2.8762

 Test job not archived.
 1\1\GINC-SE021\SP\RHF\Aug-CC-pVDZ\C5H8O2\OHZDE\09-Apr-2025\0\\#t hf au
 g-cc-pvdz iop(5/13=1,5/36=2,99/5=2) pseudo=read geom=check guess=(read
 ,tcheck) scf=(maxcycle=1)\\title\\0,1\O,0,2.51263451,0.74351412,0.7117
 225\C,0,1.64543433,0.09910622,-0.19485002\C,0,0.42402477,-0.43606885,0
 .51041853\O,0,-0.35496495,0.61573907,1.14333383\C,0,-1.53576721,0.1206
 1114,0.5218853\C,0,-1.45881121,0.25724894,-0.95381397\C,0,-0.78836043,
 -0.91068366,-0.27345576\H,0,2.00729317,1.43165243,1.15270347\H,0,1.349
 84502,0.77471661,-1.00599852\H,0,2.20151423,-0.73232976,-0.63421752\H,

 Normal termination of Gaussian 16 at Wed Apr  9 03:28:52 2025.
