 Gaussian 16, Revision C.01,

 ----------------------------------------------------------------------
 #t hf aug-cc-pvdz symm=none int=(grid=ultrafine) guess=(read,tcheck) s
 table=(opt,rrhf)
 ----------------------------------------------------------------------
 -----
 title
 -----
 Symbolic Z-matrix:
 Charge =  0 Multiplicity = 1

 SCF Done:  E(RHF) =  -344.877594810     A.U. after   14 cycles

 1\1\GINC-SE424\Stability\RHF\Aug-CC-pVDZ\C5H10O2\OHZDE\09-Apr-2025\0\\
 #t hf aug-cc-pvdz symm=none int=(grid=ultrafine) guess=(read,tcheck) s
 table=(opt,rrhf)\\title\\0,1\C,0,-2.16852562,-0.68138781,1.13481951\C,
 0,-1.86529698,0.3695053,0.11437736\O,0,-1.39960723,1.45075897,0.361544
 81\C,0,1.08178761,0.05841707,-1.5098154\C,0,1.87068692,0.81852154,-0.4
 3881617\C,0,1.40480791,-0.30280341,0.49523206\O,0,0.60779862,-0.898984
 39,-0.54501517\H,0,-3.22747107,-0.94756169,1.08298917\H,0,-1.59347175,
 -1.57619578,0.88610612\H,0,-1.91995628,-0.33426294,2.13633402\H,0,-2.1

 Normal termination of Gaussian 16 at Wed Apr  9 03:34:33 2025.
 Gaussian 16:  ES64L-G16RevC.01  3-Jul-2019

 ----------------------------------------------------------------------
 #t hf aug-cc-pvdz iop(5/13=1,5/36=2,99/5=2) pseudo=read geom=check gue
 ss=(read,tcheck) scf=(maxcycle=1)
 ----------------------------------------------------------------------
 -----
 title
 -----
 Structure from the checkpoint file:  "Grambow2020_wb97xd3_007057_reverse_mol2.chk"
 Charge =  0 Multiplicity = 1

                         Standard orientation:
 ---------------------------------------------------------------------
 Center     Atomic      Atomic             Coordinates (Angstroms)
 Number     Number       Type             X           Y           Z
 ---------------------------------------------------------------------
      1          6           0        2.389259   -0.820916   -0.070546
      2          6           0        1.731603    0.457563    0.342501
      3          8           0        1.367723    1.317390   -0.416022
      4          6           0       -1.593964    0.299352    0.921862
      5          6           0       -1.965839    0.539007   -0.544915
      6          6           0       -1.185393   -0.753461   -0.804317
      7          8           0       -0.797386   -0.849513    0.578794
      8          1           0        3.365770   -0.903622    0.413693
      9          1           0        1.775984   -1.651928    0.285175
     10          1           0        2.504362   -0.867349   -1.152170
     11          1           0        1.594422    0.584245    1.435511
     12          1           0       -0.994359    1.079974    1.396198
     13          1           0       -2.422060    0.024858    1.581474
     14          1           0       -3.027879    0.512757   -0.779997
     15          1           0       -1.509130    1.425276   -0.979081
     16          1           0       -0.318426   -0.660343   -1.463151
     17          1           0       -1.785381   -1.616150   -1.107330
 ---------------------------------------------------------------------

 SCF Done:  E(RHF) =  -345.236850553     A.U. after    2 cycles

 The electronic state is 1-A.
 Alpha  occ. eigenvalues --  -20.53719 -20.53681 -11.33729 -11.28385 -11.28285
 Alpha  occ. eigenvalues --  -11.23978 -11.23143  -1.47310  -1.46338  -1.02358
 Alpha  occ. eigenvalues --   -1.01741  -0.93654  -0.79861  -0.77376  -0.69628
 Alpha  occ. eigenvalues --   -0.67926  -0.67289  -0.62294  -0.60187  -0.59619
 Alpha  occ. eigenvalues --   -0.56908  -0.55666  -0.53802  -0.49882  -0.47648
 Alpha  occ. eigenvalues --   -0.46389  -0.41208  -0.40853
 Alpha virt. eigenvalues --    0.03761   0.03818   0.03955   0.04841   0.05704
 Alpha virt. eigenvalues --    0.05940   0.06962   0.07869   0.08030   0.09020
 Alpha virt. eigenvalues --    0.10974   0.12782   0.13023   0.13656   0.13854

 Mulliken charges:
               1
     1  C   -0.596147
     2  C    1.037132
     3  O   -1.145599
     4  C    0.688139
     5  C   -0.346194
     6  C    0.697283
     7  O   -1.274545
     8  H    0.160682
     9  H    0.253773
    10  H    0.158896
    11  H    0.125682
    12  H    0.078532
    13  H   -0.022092
    14  H    0.036003
    15  H    0.075124
    16  H    0.084914
    17  H   -0.011582
 Sum of Mulliken charges =  -0.00000

 Dipole moment (field-independent basis, Debye):
    X=             -0.3392    Y=             -1.0895    Z=              0.5134  Tot=              1.2513

 Test job not archived.
 1\1\GINC-SE424\SP\RHF\Aug-CC-pVDZ\C5H10O2\OHZDE\09-Apr-2025\0\\#t hf a
 ug-cc-pvdz iop(5/13=1,5/36=2,99/5=2) pseudo=read geom=check guess=(rea
 d,tcheck) scf=(maxcycle=1)\\title\\0,1\C,0,-2.16852562,-0.68138781,1.1
 3481951\C,0,-1.86529698,0.3695053,0.11437736\O,0,-1.39960723,1.4507589
 7,0.36154481\C,0,1.08178761,0.05841707,-1.5098154\C,0,1.87068692,0.818
 52154,-0.43881617\C,0,1.40480791,-0.30280341,0.49523206\O,0,0.60779862
 ,-0.89898439,-0.54501517\H,0,-3.22747107,-0.94756169,1.08298917\H,0,-1
 .59347175,-1.57619578,0.88610612\H,0,-1.91995628,-0.33426294,2.1363340

 Normal termination of Gaussian 16 at Wed Apr  9 03:34:39 2025.
