 Gaussian 16, Revision C.01,

 ----------------------------------------------------------------------
 #t hf aug-cc-pvdz symm=none int=(grid=ultrafine) guess=(read,tcheck) s
 table=(opt,rrhf)
 ----------------------------------------------------------------------
 -----
 title
 -----
 Symbolic Z-matrix:
 Charge =  0 Multiplicity = 1

 SCF Done:  E(RHF) =  -302.215987226     A.U. after   17 cycles
 Normal termination of Gaussian 16 at Wed Apr  9 15:43:34 2025.
 Gaussian 16:  ES64L-G16RevC.01  3-Jul-2019

 ----------------------------------------------------------------------
 #t hf aug-cc-pvdz iop(5/13=1,5/36=2,99/5=2) pseudo=read geom=check gue
 ss=(read,tcheck) scf=(maxcycle=1)
 ----------------------------------------------------------------------
 -----
 title
 -----
 Structure from the checkpoint file:  "Grambow2020_b97d3_006711_forward_mol1.chk"
 Charge =  0 Multiplicity = 1

                         Standard orientation:
 ---------------------------------------------------------------------
 Center     Atomic      Atomic             Coordinates (Angstroms)
 Number     Number       Type             X           Y           Z
 ---------------------------------------------------------------------
      1          8           0       -1.791075   -0.806608    0.095486
      2          6           0       -1.427360    0.343667   -0.060983
      3          6           0       -0.041566    0.831721    0.002952
      4          6           0        0.956707    1.625955   -0.158736
      5          6           0        1.207585   -0.280639    0.380854
      6          8           0        1.334753   -1.209870   -0.359186
      7          1           0       -2.133084    1.178146   -0.272585
      8          1           0        1.611468   -0.170538    1.397667
 ---------------------------------------------------------------------

 SCF Done:  E(RHF) =  -302.503578197     A.U. after    2 cycles

 The electronic state is 1-A.
 Alpha  occ. eigenvalues --  -20.61534 -20.58938 -11.42436 -11.40281 -11.33812
 Alpha  occ. eigenvalues --  -11.29897  -1.54127  -1.50910  -1.14281  -0.95111
 Alpha  occ. eigenvalues --   -0.86611  -0.76937  -0.71908  -0.69229  -0.65451
 Alpha  occ. eigenvalues --   -0.58908  -0.57793  -0.51589  -0.46773  -0.45368
 Alpha  occ. eigenvalues --   -0.44488
 Alpha virt. eigenvalues --    0.01053   0.03415   0.03908   0.04306   0.06714
 Alpha virt. eigenvalues --    0.08147   0.09573   0.10144   0.10633   0.12099
 Alpha virt. eigenvalues --    0.12719   0.13697   0.15036   0.15710   0.16260

 Mulliken charges:
               1
     1  O   -1.056692
     2  C    0.882038
     3  C    0.358691
     4  C   -0.351338
     5  C    0.712412
     6  O   -0.965024
     7  H    0.210006
     8  H    0.209906
 Sum of Mulliken charges =  -0.00000

 Dipole moment (field-independent basis, Debye):
    X=             -0.5215    Y=              1.9833    Z=              1.4254  Tot=              2.4975

 Test job not archived.
 1\1\GINC-SE129\SP\RHF\Aug-CC-pVDZ\C4H2O2\OHZDE\09-Apr-2025\0\\#t hf au
 g-cc-pvdz iop(5/13=1,5/36=2,99/5=2) pseudo=read geom=check guess=(read
 ,tcheck) scf=(maxcycle=1)\\title\\0,1\O,0,-1.61852282,0.27184205,1.120
 65038\C,0,-1.39928049,-0.27508518,0.0563636\C,0,-0.10157148,-0.3452604
 5,-0.63192176\C,0,0.79210167,-0.74848223,-1.46394315\C,0,1.24755426,0.
 4474126,0.06954822\O,0,1.56057084,0.09481919,1.16727333\H,0,-2.1891125
 3,-0.79510102,-0.53094084\H,0,1.54426055,1.36958304,-0.45075778\\Versi
 on=ES64L-G16RevC.01\State=1-A\HF=-302.5035782\RMSD=1.056e-02\Dipole=-0

 Normal termination of Gaussian 16 at Wed Apr  9 15:43:37 2025.
