 Gaussian 16, Revision C.01,

 ----------------------------------------------------------------------
 #t hf aug-cc-pvdz symm=none int=(grid=ultrafine) guess=(read,tcheck) s
 table=(opt,rrhf)
 ----------------------------------------------------------------------
 -----
 title
 -----
 Symbolic Z-matrix:
 Charge =  0 Multiplicity = 1

 SCF Done:  E(RHF) =  -374.551367168     A.U. after   15 cycles
 Normal termination of Gaussian 16 at Wed Apr  9 18:20:26 2025.
 Gaussian 16:  ES64L-G16RevC.01  3-Jul-2019

 ----------------------------------------------------------------------
 #t hf aug-cc-pvdz iop(5/13=1,5/36=2,99/5=2) pseudo=read geom=check gue
 ss=(read,tcheck) scf=(maxcycle=1)
 ----------------------------------------------------------------------
 -----
 title
 -----
 Structure from the checkpoint file:  "Grambow2020_wb97xd3_007340_reverse_mol2.chk"
 Charge =  0 Multiplicity = 1

                         Standard orientation:
 ---------------------------------------------------------------------
 Center     Atomic      Atomic             Coordinates (Angstroms)
 Number     Number       Type             X           Y           Z
 ---------------------------------------------------------------------
      1          7           0        2.078589   -0.906092    0.039428
      2          6           0        1.137624    0.097679   -0.018496
      3          6           0       -0.154173   -0.298914    0.628813
      4          8           0       -1.167793    0.775051    0.800809
      5          6           0       -1.424377   -0.182894   -0.064101
      6          8           0       -2.260266   -0.517726   -0.826064
      7          7           0        1.255500    1.257526   -0.506895
      8          1           0        2.877211   -0.823839   -0.565624
      9          1           0        1.763211   -1.848899    0.189730
     10          1           0       -0.079691   -0.950589    1.495324
     11          1           0        2.170672    1.409470   -0.922419
 ---------------------------------------------------------------------

 SCF Done:  E(RHF) =  -374.921214061     A.U. after    2 cycles

 The electronic state is 1-A.
 Alpha  occ. eigenvalues --  -20.62578 -20.56947 -15.55134 -15.49265 -11.42483
 Alpha  occ. eigenvalues --  -11.35522 -11.35216  -1.59464  -1.50518  -1.29530
 Alpha  occ. eigenvalues --   -1.18426  -1.02404  -0.88310  -0.81634  -0.78707
 Alpha  occ. eigenvalues --   -0.77256  -0.71371  -0.69435  -0.66893  -0.61182
 Alpha  occ. eigenvalues --   -0.58125  -0.56143  -0.49715  -0.49100  -0.45460
 Alpha  occ. eigenvalues --   -0.42872
 Alpha virt. eigenvalues --    0.01734   0.03794   0.04478   0.06033   0.07935
 Alpha virt. eigenvalues --    0.09348   0.09871   0.11099   0.11684   0.12558
 Alpha virt. eigenvalues --    0.13030   0.14118   0.14262   0.15776   0.16341

 Mulliken charges:
               1
     1  N    0.551136
     2  C   -2.074251
     3  C    1.374826
     4  O   -1.130957
     5  C    1.149782
     6  O   -1.008255
     7  N    0.864507
     8  H    0.079699
     9  H    0.084288
    10  H    0.022569
    11  H    0.086655
 Sum of Mulliken charges =  -0.00000

 Dipole moment (field-independent basis, Debye):
    X=              4.4180    Y=             -3.6935    Z=              1.1112  Tot=              5.8648

 Test job not archived.
 1\1\GINC-SE135\SP\RHF\Aug-CC-pVDZ\C3H4N2O2\OHZDE\09-Apr-2025\0\\#t hf
 aug-cc-pvdz iop(5/13=1,5/36=2,99/5=2) pseudo=read geom=check guess=(re
 ad,tcheck) scf=(maxcycle=1)\\title\\0,1\N,0,-1.63976381,-0.17613697,-0
 .34444264\C,0,-0.41434179,-0.44221728,0.22465181\C,0,0.46713462,0.7687
 8939,0.26330597\O,0,1.73161093,0.64521035,1.03546972\C,0,1.81567514,0.
 7509075,-0.27347025\O,0,2.62470717,0.783426,-1.13127034\N,0,0.00532401
 ,-1.5299121,0.71298984\H,0,-2.19689553,-0.96384255,-0.6268862\H,0,-1.7
 2632304,0.63130895,-0.93729796\H,0,-0.02983639,1.72270477,0.41865685\H

 Normal termination of Gaussian 16 at Wed Apr  9 18:20:30 2025.
