 Gaussian 16, Revision C.01,

 ----------------------------------------------------------------------
 #t hf aug-cc-pvdz symm=none int=(grid=ultrafine) guess=(read,tcheck) s
 table=(opt,rrhf)
 ----------------------------------------------------------------------
 -----
 title
 -----
 Symbolic Z-matrix:
 Charge =  0 Multiplicity = 1

 SCF Done:  E(RHF) =  -308.893446731     A.U. after   15 cycles

 1\1\GINC-SE103\Stability\RHF\Aug-CC-pVDZ\C6H12O1\OHZDE\09-Apr-2025\0\\
 #t hf aug-cc-pvdz symm=none int=(grid=ultrafine) guess=(read,tcheck) s
 table=(opt,rrhf)\\title\\0,1\C,0,1.8436875,-0.12047643,-1.48876711\C,0
 ,1.0749084,0.33454011,0.52503565\O,0,0.82898268,1.67323755,0.44524979\
 C,0,-0.57392208,1.48056105,0.16764916\C,0,-0.41954088,-0.02555707,0.45
 27029\C,0,-0.88656501,-0.40429586,1.85719277\C,0,-0.97274036,-0.997288
 31,-0.57145321\H,0,2.8875087,0.15669117,-1.63819506\H,0,1.65108838,-1.
 14902415,-1.78603919\H,0,1.18955948,0.58552336,-1.99028459\H,0,1.98213

 Normal termination of Gaussian 16 at Wed Apr  9 17:21:58 2025.
 Gaussian 16:  ES64L-G16RevC.01  3-Jul-2019

 ----------------------------------------------------------------------
 #t hf aug-cc-pvdz iop(5/13=1,5/36=2,99/5=2) pseudo=read geom=check gue
 ss=(read,tcheck) scf=(maxcycle=1)
 ----------------------------------------------------------------------
 -----
 title
 -----
 Structure from the checkpoint file:  "Grambow2020_wb97xd3_006577_reverse_mol1.chk"
 Charge =  0 Multiplicity = 1

                         Standard orientation:
 ---------------------------------------------------------------------
 Center     Atomic      Atomic             Coordinates (Angstroms)
 Number     Number       Type             X           Y           Z
 ---------------------------------------------------------------------
      1          6           0        2.317386    0.588723   -0.232527
      2          6           0        0.474521   -0.481219   -0.791578
      3          8           0        0.501098   -1.558969    0.043110
      4          6           0       -0.383077   -0.940201    1.001071
      5          6           0       -0.632405    0.218458    0.016782
      6          6           0       -1.947925    0.064171   -0.744632
      7          6           0       -0.484772    1.633413    0.541467
      8          1           0        3.225019    0.162453   -0.660556
      9          1           0        2.248776    1.659392   -0.412347
     10          1           0        2.243196    0.339629    0.821175
     11          1           0        1.492766   -0.035016   -1.200258
     12          1           0        0.163109   -0.662733    1.907488
     13          1           0       -1.224121   -1.589739    1.251188
     14          1           0       -2.064630   -0.948004   -1.135159
     15          1           0       -1.976938    0.754385   -1.589708
     16          1           0       -2.796932    0.284248   -0.092006
     17          1           0       -0.397258    2.344965   -0.282371
     18          1           0        0.386379    1.752754    1.184090
     19          1           0       -1.370521    1.909358    1.120089
 ---------------------------------------------------------------------

 SCF Done:  E(RHF) =  -309.224942145     A.U. after    2 cycles

 The electronic state is 1-A.
 Alpha  occ. eigenvalues --  -20.56735 -11.30225 -11.29422 -11.25602 -11.23553
 Alpha  occ. eigenvalues --  -11.23247 -11.23169  -1.50889  -1.09880  -0.96914
 Alpha  occ. eigenvalues --   -0.94733  -0.93091  -0.88276  -0.72460  -0.67497
 Alpha  occ. eigenvalues --   -0.67180  -0.65367  -0.59785  -0.59174  -0.56817
 Alpha  occ. eigenvalues --   -0.56187  -0.55089  -0.54804  -0.50196  -0.49382
 Alpha  occ. eigenvalues --   -0.46733  -0.45261  -0.29181
 Alpha virt. eigenvalues --    0.03227   0.03625   0.03745   0.04392   0.05862
 Alpha virt. eigenvalues --    0.05886   0.06121   0.06804   0.07568   0.09219
 Alpha virt. eigenvalues --    0.09745   0.10100   0.10895   0.12352   0.13832

 Mulliken charges:
               1
     1  C   -0.670385
     2  C    0.940550
     3  O   -1.303809
     4  C    0.880346
     5  C   -1.450760
     6  C   -0.114652
     7  C   -0.238808
     8  H   -0.109232
     9  H    0.086967
    10  H    0.199989
    11  H    0.585086
    12  H    0.055774
    13  H    0.046441
    14  H    0.163212
    15  H    0.206704
    16  H    0.181078
    17  H    0.251019
    18  H    0.126043
    19  H    0.164436
 Sum of Mulliken charges =  -0.00000

 Dipole moment (field-independent basis, Debye):
    X=             -1.2532    Y=              1.5448    Z=              1.4570  Tot=              2.4657

 Test job not archived.
 1\1\GINC-SE103\SP\RHF\Aug-CC-pVDZ\C6H12O1\OHZDE\09-Apr-2025\0\\#t hf a
 ug-cc-pvdz iop(5/13=1,5/36=2,99/5=2) pseudo=read geom=check guess=(rea
 d,tcheck) scf=(maxcycle=1)\\title\\0,1\C,0,1.8436875,-0.12047643,-1.48
 876711\C,0,1.0749084,0.33454011,0.52503565\O,0,0.82898268,1.67323755,0
 .44524979\C,0,-0.57392208,1.48056105,0.16764916\C,0,-0.41954088,-0.025
 55707,0.4527029\C,0,-0.88656501,-0.40429586,1.85719277\C,0,-0.97274036
 ,-0.99728831,-0.57145321\H,0,2.8875087,0.15669117,-1.63819506\H,0,1.65
 108838,-1.14902415,-1.78603919\H,0,1.18955948,0.58552336,-1.99028459\H

 Normal termination of Gaussian 16 at Wed Apr  9 17:22:06 2025.
