 Gaussian 16, Revision C.01,

 ----------------------------------------------------------------------
 #t hf aug-cc-pvdz symm=none int=(grid=ultrafine) guess=(read,tcheck) s
 table=(opt,rrhf)
 ----------------------------------------------------------------------
 -----
 title
 -----
 Symbolic Z-matrix:
 Charge =  0 Multiplicity = 1

 SCF Done:  E(RHF) =  -342.391072824     A.U. after   16 cycles
 Normal termination of Gaussian 16 at Wed Apr  9 03:59:37 2025.
 Gaussian 16:  ES64L-G16RevC.01  3-Jul-2019

 ----------------------------------------------------------------------
 #t hf aug-cc-pvdz iop(5/13=1,5/36=2,99/5=2) pseudo=read geom=check gue
 ss=(read,tcheck) scf=(maxcycle=1)
 ----------------------------------------------------------------------
 -----
 title
 -----
 Structure from the checkpoint file:  "Grambow2020_wb97xd3_008772_forward_mol1.chk"
 Charge =  0 Multiplicity = 1

                         Standard orientation:
 ---------------------------------------------------------------------
 Center     Atomic      Atomic             Coordinates (Angstroms)
 Number     Number       Type             X           Y           Z
 ---------------------------------------------------------------------
      1          8           0       -2.339772   -0.770385    0.100101
      2          6           0       -1.771844    0.392190    0.020511
      3          6           0       -0.311111    0.333893   -0.072939
      4          8           0        0.609616    1.232446    0.240153
      5          6           0        1.643854    0.351082   -0.314739
      6          6           0        1.699137   -0.841823    0.530414
      7          6           0        0.591132   -0.714656   -0.526160
      8          1           0       -1.997443    1.170213    0.797999
      9          1           0       -1.942904    1.016286   -0.933464
     10          1           0        2.374544    0.796593   -0.971002
     11          1           0        2.452520   -1.573454    0.265602
     12          1           0        1.449748   -0.777006    1.581964
     13          1           0        0.397774   -1.453235   -1.285657
 ---------------------------------------------------------------------

 SCF Done:  E(RHF) =  -342.737205915     A.U. after    2 cycles

 The electronic state is 1-A.
 Alpha  occ. eigenvalues --  -20.66683 -20.39753 -11.41784 -11.37906 -11.32123
 Alpha  occ. eigenvalues --  -11.31066 -11.27812  -1.61897  -1.32276  -1.22160
 Alpha  occ. eigenvalues --   -1.04121  -0.93591  -0.89167  -0.80470  -0.76173
 Alpha  occ. eigenvalues --   -0.74482  -0.68864  -0.64277  -0.61409  -0.58303
 Alpha  occ. eigenvalues --   -0.56791  -0.52228  -0.50727  -0.47462  -0.32688
 Alpha  occ. eigenvalues --   -0.31102
 Alpha virt. eigenvalues --    0.01437   0.02654   0.03467   0.04463   0.04947
 Alpha virt. eigenvalues --    0.05901   0.06789   0.08079   0.09119   0.09888
 Alpha virt. eigenvalues --    0.11866   0.12271   0.12609   0.13311   0.14567

 Mulliken charges:
               1
     1  O   -1.375598
     2  C    0.710758
     3  C    0.685556
     4  O   -1.480350
     5  C    1.320352
     6  C    0.128246
     7  C   -0.048029
     8  H    0.187577
     9  H    0.325005
    10  H   -0.110736
    11  H   -0.038153
    12  H   -0.078014
    13  H   -0.226613
 Sum of Mulliken charges =  -0.00000

 Dipole moment (field-independent basis, Debye):
    X=              8.9185    Y=              1.6993    Z=             -1.2386  Tot=              9.1630

 Test job not archived.
 1\1\GINC-SE345\SP\RHF\Aug-CC-pVDZ\C5H6O2\OHZDE\09-Apr-2025\0\\#t hf au
 g-cc-pvdz iop(5/13=1,5/36=2,99/5=2) pseudo=read geom=check guess=(read
 ,tcheck) scf=(maxcycle=1)\\title\\0,1\O,0,1.64301892,1.50248427,-1.498
 44673\C,0,1.89522455,0.52283431,-0.68780642\C,0,0.69994226,-0.06843559
 ,-0.08152812\O,0,0.55108695,-0.75040026,1.04360652\C,0,-0.85298963,-0.
 99873493,0.69538626\C,0,-1.54150579,0.2919809,0.71436639\C,0,-0.692130
 82,-0.09380641,-0.50625773\H,0,2.62058958,0.67774373,0.1551343\H,0,2.3
 1851592,-0.45363832,-1.13069499\H,0,-1.220366,-2.00652031,0.80706276\H

 Normal termination of Gaussian 16 at Wed Apr  9 03:59:41 2025.
