 Gaussian 16, Revision C.01,

 ----------------------------------------------------------------------
 #t hf aug-cc-pvdz symm=none int=(grid=ultrafine) guess=(read,tcheck) s
 table=(opt,rrhf)
 ----------------------------------------------------------------------
 -----
 title
 -----
 Symbolic Z-matrix:
 Charge =  0 Multiplicity = 1

 SCF Done:  E(RHF) =  -287.949455629     A.U. after   15 cycles

 1\1\GINC-SE162\Stability\RHF\Aug-CC-pVDZ\C6H11N1\OHZDE\09-Apr-2025\0\\
 #t hf aug-cc-pvdz symm=none int=(grid=ultrafine) guess=(read,tcheck) s
 table=(opt,rrhf)\\title\\0,1\C,0,-2.82663925,0.20232023,-0.2649801\C,0
 ,-1.41576393,-0.37909764,-0.30323827\C,0,-0.41607953,0.42418411,0.4926
 003\C,0,1.51882927,-0.83713422,0.49358488\C,0,2.60021001,-0.15259594,-
 0.02779364\C,0,0.26876975,1.44953784,-0.05218322\N,0,1.20401323,2.0382
 4562,-0.49724509\H,0,-3.52082945,-0.42381288,-0.82868331\H,0,-2.844424
 35,1.20447005,-0.69653229\H,0,-3.19537982,0.27362148,0.7606562\H,0,-1.

 Normal termination of Gaussian 16 at Wed Apr  9 17:19:48 2025.
 Gaussian 16:  ES64L-G16RevC.01  3-Jul-2019

 ----------------------------------------------------------------------
 #t hf aug-cc-pvdz iop(5/13=1,5/36=2,99/5=2) pseudo=read geom=check gue
 ss=(read,tcheck) scf=(maxcycle=1)
 ----------------------------------------------------------------------
 -----
 title
 -----
 Structure from the checkpoint file:  "Grambow2020_wb97xd3_006567_reverse_mol1.chk"
 Charge =  0 Multiplicity = 1

                         Standard orientation:
 ---------------------------------------------------------------------
 Center     Atomic      Atomic             Coordinates (Angstroms)
 Number     Number       Type             X           Y           Z
 ---------------------------------------------------------------------
      1          6           0       -2.927605    0.015132   -0.092886
      2          6           0       -1.541409   -0.576132   -0.335679
      3          6           0       -0.475418    0.012942    0.555749
      4          6           0        1.412350   -1.262329    0.175206
      5          6           0        2.488798   -0.505929   -0.247797
      6          6           0        0.215821    1.116066    0.205799
      7          7           0        1.146981    1.765736   -0.155042
      8          1           0       -3.670760   -0.458221   -0.737371
      9          1           0       -2.932714    1.087068   -0.297299
     10          1           0       -3.241029   -0.128871    0.943460
     11          1           0       -1.572237   -1.655664   -0.160283
     12          1           0       -1.253488   -0.436319   -1.380644
     13          1           0       -0.602819   -0.133160    1.625227
     14          1           0        1.355758   -1.612994    1.197563
     15          1           0        0.827271   -1.825891   -0.540120
     16          1           0        2.767909   -0.537871   -1.296194
     17          1           0        1.959853    0.854260   -0.279625
     18          1           0        3.298169   -0.310990    0.448228
 ---------------------------------------------------------------------

 SCF Done:  E(RHF) =  -288.260700691     A.U. after    2 cycles

 The electronic state is 1-A.
 Alpha  occ. eigenvalues --  -15.50649 -11.28655 -11.27520 -11.26060 -11.25221
 Alpha  occ. eigenvalues --  -11.23308 -11.22197  -1.24409  -1.08994  -1.04185
 Alpha  occ. eigenvalues --   -0.97581  -0.85221  -0.82063  -0.71669  -0.68421
 Alpha  occ. eigenvalues --   -0.65404  -0.63443  -0.60122  -0.59510  -0.57852
 Alpha  occ. eigenvalues --   -0.55681  -0.52931  -0.51739  -0.50374  -0.47656
 Alpha  occ. eigenvalues --   -0.37986  -0.34915
 Alpha virt. eigenvalues --    0.03129   0.03495   0.03854   0.04252   0.05260
 Alpha virt. eigenvalues --    0.05879   0.06324   0.07191   0.07778   0.08492
 Alpha virt. eigenvalues --    0.08709   0.11001   0.11546   0.12563   0.12882

 Mulliken charges:
               1
     1  C   -0.412307
     2  C   -0.185025
     3  C    0.433276
     4  C    0.326646
     5  C   -0.571780
     6  C   -2.234320
     7  N    1.278667
     8  H    0.128136
     9  H    0.178514
    10  H    0.190186
    11  H    0.141776
    12  H    0.139363
    13  H   -0.084481
    14  H    0.034543
    15  H   -0.038440
    16  H    0.071572
    17  H    0.546831
    18  H    0.056842
 Sum of Mulliken charges =  -0.00000

 Dipole moment (field-independent basis, Debye):
    X=             -1.5798    Y=             -3.4912    Z=              0.6906  Tot=              3.8937

 Test job not archived.
 1\1\GINC-SE162\SP\RHF\Aug-CC-pVDZ\C6H11N1\OHZDE\09-Apr-2025\0\\#t hf a
 ug-cc-pvdz iop(5/13=1,5/36=2,99/5=2) pseudo=read geom=check guess=(rea
 d,tcheck) scf=(maxcycle=1)\\title\\0,1\C,0,-2.82663925,0.20232023,-0.2
 649801\C,0,-1.41576393,-0.37909764,-0.30323827\C,0,-0.41607953,0.42418
 411,0.4926003\C,0,1.51882927,-0.83713422,0.49358488\C,0,2.60021001,-0.
 15259594,-0.02779364\C,0,0.26876975,1.44953784,-0.05218322\N,0,1.20401
 323,2.03824562,-0.49724509\H,0,-3.52082945,-0.42381288,-0.82868331\H,0
 ,-2.84442435,1.20447005,-0.69653229\H,0,-3.19537982,0.27362148,0.76065

 Normal termination of Gaussian 16 at Wed Apr  9 17:19:55 2025.
