 Gaussian 16, Revision C.01,

 ----------------------------------------------------------------------
 #t hf aug-cc-pvdz symm=none int=(grid=ultrafine) guess=(read,tcheck) s
 table=(opt,rrhf)
 ----------------------------------------------------------------------
 -----
 title
 -----
 Symbolic Z-matrix:
 Charge =  0 Multiplicity = 1

 SCF Done:  E(RHF) =  -270.019448387     A.U. after   13 cycles

 1\1\GINC-SE188\Stability\RHF\Aug-CC-pVDZ\C5H10O1\OHZDE\09-Apr-2025\0\\
 #t hf aug-cc-pvdz symm=none int=(grid=ultrafine) guess=(read,tcheck) s
 table=(opt,rrhf)\\title\\0,1\C,0,2.12951138,0.80200758,-1.01126295\C,0
 ,1.75802072,1.43749623,0.10787432\C,0,-0.92328202,-0.49526078,1.475967
 93\O,0,-1.31421541,0.64267937,1.66899236\C,0,-0.92559622,-1.19908018,0
 .13682701\C,0,-1.57080985,-0.40198942,-0.99687865\H,0,1.40367249,0.508
 00712,-1.77153748\H,0,0.12888294,-1.43819557,-0.08951265\H,0,3.1730073
 1,0.5566801,-1.2159777\H,0,2.487179,1.73471129,0.86350756\H,0,0.716329

 Normal termination of Gaussian 16 at Wed Apr  9 03:08:59 2025.
 Gaussian 16:  ES64L-G16RevC.01  3-Jul-2019

 ----------------------------------------------------------------------
 #t hf aug-cc-pvdz iop(5/13=1,5/36=2,99/5=2) pseudo=read geom=check gue
 ss=(read,tcheck) scf=(maxcycle=1)
 ----------------------------------------------------------------------
 -----
 title
 -----
 Structure from the checkpoint file:  "Grambow2020_b97d3_006613_reverse_mol2.chk"
 Charge =  0 Multiplicity = 1

                         Standard orientation:
 ---------------------------------------------------------------------
 Center     Atomic      Atomic             Coordinates (Angstroms)
 Number     Number       Type             X           Y           Z
 ---------------------------------------------------------------------
      1          6           0       -2.598456    0.533570    0.164896
      2          6           0       -2.206906   -0.690586   -0.212526
      3          6           0        1.293524   -0.853719    0.506497
      4          8           0        1.233815   -1.427744   -0.566781
      5          6           0        1.191032    0.643484    0.697663
      6          6           0        1.106317    1.443937   -0.601968
      7          1           0       -2.068666    1.430702   -0.160329
      8          1           0        0.304211    0.814787    1.333694
      9          1           0       -3.467001    0.688927    0.807136
     10          1           0       -2.742209   -1.585150    0.110268
     11          1           0       -1.338517   -0.849015   -0.852057
     12          1           0        1.422801   -1.430739    1.457561
     13          1           0        2.050987    0.957763    1.315341
     14          1           0        0.228942    1.144255   -1.188086
     15          1           0        1.992714    1.271461   -1.225754
     16          1           0        1.033158    2.518839   -0.390892
 ---------------------------------------------------------------------

 SCF Done:  E(RHF) =  -270.305670646     A.U. after    2 cycles

 The electronic state is 1-A.
 Alpha  occ. eigenvalues --  -20.54772 -11.34646 -11.25550 -11.24474 -11.24275
 Alpha  occ. eigenvalues --  -11.23650  -1.46980  -1.06366  -1.03359  -0.91421
 Alpha  occ. eigenvalues --   -0.79408  -0.77757  -0.68461  -0.65353  -0.63333
 Alpha  occ. eigenvalues --   -0.62962  -0.59912  -0.54840  -0.53339  -0.52621
 Alpha  occ. eigenvalues --   -0.51139  -0.48967  -0.41779  -0.38357
 Alpha virt. eigenvalues --    0.03214   0.03614   0.03907   0.04800   0.05869
 Alpha virt. eigenvalues --    0.06147   0.07068   0.07305   0.09064   0.09344
 Alpha virt. eigenvalues --    0.10297   0.11900   0.13280   0.13775   0.14254

 Mulliken charges:
               1
     1  C    0.125546
     2  C    0.087640
     3  C    1.052495
     4  O   -1.139888
     5  C   -0.640059
     6  C   -0.301432
     7  H   -0.066756
     8  H    0.268595
     9  H   -0.055317
    10  H   -0.063465
    11  H   -0.051411
    12  H    0.123098
    13  H    0.203032
    14  H    0.165752
    15  H    0.138890
    16  H    0.153278
 Sum of Mulliken charges =  -0.00000

 Dipole moment (field-independent basis, Debye):
    X=              0.1014    Y=              1.7451    Z=              2.2963  Tot=              2.8860

 Test job not archived.
 1\1\GINC-SE188\SP\RHF\Aug-CC-pVDZ\C5H10O1\OHZDE\09-Apr-2025\0\\#t hf a
 ug-cc-pvdz iop(5/13=1,5/36=2,99/5=2) pseudo=read geom=check guess=(rea
 d,tcheck) scf=(maxcycle=1)\\title\\0,1\C,0,2.12951138,0.80200758,-1.01
 126295\C,0,1.75802072,1.43749623,0.10787432\C,0,-0.92328202,-0.4952607
 8,1.47596793\O,0,-1.31421541,0.64267937,1.66899236\C,0,-0.92559622,-1.
 19908018,0.13682701\C,0,-1.57080985,-0.40198942,-0.99687865\H,0,1.4036
 7249,0.50800712,-1.77153748\H,0,0.12888294,-1.43819557,-0.08951265\H,0
 ,3.17300731,0.5566801,-1.2159777\H,0,2.487179,1.73471129,0.86350756\H,

 Normal termination of Gaussian 16 at Wed Apr  9 03:09:03 2025.
