 Gaussian 16, Revision C.01,

 ----------------------------------------------------------------------
 #t hf aug-cc-pvdz symm=none int=(grid=ultrafine) guess=(read,tcheck) s
 table=(opt,rrhf)
 ----------------------------------------------------------------------
 -----
 title
 -----
 Symbolic Z-matrix:
 Charge =  0 Multiplicity = 1

 SCF Done:  E(RHF) =  -301.995286041     A.U. after   14 cycles
 Normal termination of Gaussian 16 at Wed Apr  9 03:14:58 2025.
 Gaussian 16:  ES64L-G16RevC.01  3-Jul-2019

 ----------------------------------------------------------------------
 #t hf aug-cc-pvdz iop(5/13=1,5/36=2,99/5=2) pseudo=read geom=check gue
 ss=(read,tcheck) scf=(maxcycle=1)
 ----------------------------------------------------------------------
 -----
 title
 -----
 Structure from the checkpoint file:  "Grambow2020_b97d3_006945_reverse_mol2.chk"
 Charge =  0 Multiplicity = 1

                         Standard orientation:
 ---------------------------------------------------------------------
 Center     Atomic      Atomic             Coordinates (Angstroms)
 Number     Number       Type             X           Y           Z
 ---------------------------------------------------------------------
      1          6           0       -1.786417   -1.289034   -0.218269
      2          7           0       -1.716650    0.151205   -0.140868
      3          6           0       -0.851274    0.991355   -0.027709
      4          8           0       -0.136685    1.939119    0.077135
      5          7           0        1.639951   -0.970738   -0.162470
      6          6           0        2.481440   -0.008068   -0.162304
      7          1           0       -2.272550   -1.684089    0.684915
      8          1           0       -0.782164   -1.719295   -0.310272
      9          1           0       -2.396897   -1.576506   -1.085036
     10          1           0        0.266276   -0.952730    2.282063
     11          1           0        2.124596   -1.876448   -0.253169
     12          1           0       -0.042540   -1.025405    2.957260
     13          1           0        3.574928   -0.119757   -0.249123
     14          1           0        2.096226    1.012487   -0.070664
 ---------------------------------------------------------------------

 SCF Done:  E(RHF) =  -302.303781359     A.U. after    2 cycles

 The electronic state is 1-A.
 Alpha  occ. eigenvalues --  -20.58034 -15.51823 -15.51753 -11.40021 -11.30328
 Alpha  occ. eigenvalues --  -11.28515  -1.51318  -1.26107  -1.21884  -0.99833
 Alpha  occ. eigenvalues --   -0.86177  -0.74220  -0.71738  -0.69908  -0.66504
 Alpha  occ. eigenvalues --   -0.65836  -0.62958  -0.58754  -0.58213  -0.57569
 Alpha  occ. eigenvalues --   -0.48849  -0.47539  -0.45282  -0.43031
 Alpha virt. eigenvalues --    0.03189   0.04223   0.05015   0.05408   0.06513
 Alpha virt. eigenvalues --    0.06879   0.07601   0.08348   0.09578   0.10648
 Alpha virt. eigenvalues --    0.11101   0.12594   0.13075   0.15046   0.15434

 Mulliken charges:
               1
     1  C   -0.393318
     2  N    0.785782
     3  C    0.017846
     4  O   -0.862915
     5  N    0.593169
     6  C   -0.666927
     7  H    0.166642
     8  H    0.194003
     9  H    0.108280
    10  H   -0.222475
    11  H    0.032303
    12  H    0.195970
    13  H    0.046869
    14  H    0.004771
 Sum of Mulliken charges =  -0.00000

 Dipole moment (field-independent basis, Debye):
    X=              2.5348    Y=             -2.2260    Z=             -0.3638  Tot=              3.3930

 Test job not archived.
 1\1\GINC-SE069\SP\RHF\Aug-CC-pVDZ\C3H8N2O1\OHZDE\09-Apr-2025\0\\#t hf
 aug-cc-pvdz iop(5/13=1,5/36=2,99/5=2) pseudo=read geom=check guess=(re
 ad,tcheck) scf=(maxcycle=1)\\title\\0,1\C,0,-2.11020271,0.14680765,0.2
 8132164\N,0,-1.55809096,1.02248534,-0.72540921\C,0,-0.4751568,1.218235
 42,-1.23183657\O,0,0.50473517,1.53818147,-1.82960908\N,0,1.08662571,-1
 .12678625,0.22962902\C,0,2.15415502,-0.92430837,-0.4443283\H,0,-2.4059
 1537,0.73585375,1.16093121\H,0,-1.37502843,-0.61012472,0.57912323\H,0,
 -3.00952933,-0.34220652,-0.11703569\H,0,0.58634431,1.13749137,1.806275

 Normal termination of Gaussian 16 at Wed Apr  9 03:15:02 2025.
