 Gaussian 16, Revision C.01,

 ----------------------------------------------------------------------
 #t hf aug-cc-pvdz symm=none int=(grid=ultrafine) guess=(read,tcheck) s
 table=(opt,rrhf)
 ----------------------------------------------------------------------
 -----
 title
 -----
 Symbolic Z-matrix:
 Charge =  0 Multiplicity = 1

 SCF Done:  E(RHF) =  -302.801435198     A.U. after   15 cycles
 Normal termination of Gaussian 16 at Wed Apr  9 19:11:04 2025.
 Gaussian 16:  ES64L-G16RevC.01  3-Jul-2019

 ----------------------------------------------------------------------
 #t hf aug-cc-pvdz iop(5/13=1,5/36=2,99/5=2) pseudo=read geom=check gue
 ss=(read,tcheck) scf=(maxcycle=1)
 ----------------------------------------------------------------------
 -----
 title
 -----
 Structure from the checkpoint file:  "Grambow2020_wb97xd3_008841_reverse_mol2.chk"
 Charge =  0 Multiplicity = 1

                         Standard orientation:
 ---------------------------------------------------------------------
 Center     Atomic      Atomic             Coordinates (Angstroms)
 Number     Number       Type             X           Y           Z
 ---------------------------------------------------------------------
      1          6           0        1.851911    1.371018   -0.116739
      2          6           0        0.279713   -0.596306   -0.639248
      3          6           0       -1.037293   -1.001773   -0.006558
      4          6           0       -1.993950    0.105514   -0.007069
      5          7           0       -2.711061    1.000254    0.038614
      6          6           0        1.454868   -1.158640    0.062069
      7          7           0        1.071602    0.233866    0.355522
      8          1           0        2.195446    1.140909   -1.121777
      9          1           0        1.205964    2.247064   -0.158366
     10          1           0        2.700234    1.553248    0.545606
     11          1           0       -0.966872   -1.365154    1.037781
     12          1           0       -1.460455   -1.821147   -0.590992
     13          1           0        2.399869   -1.265702   -0.461809
     14          1           0        1.367682   -1.801507    0.942098
     15          1           0        0.702840    0.354570    1.293773
 ---------------------------------------------------------------------

 SCF Done:  E(RHF) =  -303.118462301     A.U. after    2 cycles

 The electronic state is 1-A.
 Alpha  occ. eigenvalues --  -15.59918 -15.49469 -11.29304 -11.29012 -11.27640
 Alpha  occ. eigenvalues --  -11.26587 -11.23082  -1.33430  -1.22158  -1.07756
 Alpha  occ. eigenvalues --   -1.01656  -0.92523  -0.83647  -0.76272  -0.69009
 Alpha  occ. eigenvalues --   -0.68128  -0.64550  -0.61091  -0.60073  -0.59443
 Alpha  occ. eigenvalues --   -0.58378  -0.52738  -0.49579  -0.47934  -0.47003
 Alpha  occ. eigenvalues --   -0.32344
 Alpha virt. eigenvalues --    0.02394   0.03560   0.03795   0.04469   0.05466
 Alpha virt. eigenvalues --    0.05682   0.06178   0.07528   0.08830   0.10641
 Alpha virt. eigenvalues --    0.11958   0.12392   0.13511   0.13947   0.14646

 Mulliken charges:
               1
     1  C   -0.381904
     2  C   -0.716396
     3  C    0.030905
     4  C   -1.546094
     5  N    0.917045
     6  C    0.301266
     7  N    0.544083
     8  H    0.126545
     9  H    0.160680
    10  H    0.115492
    11  H    0.194808
    12  H    0.224170
    13  H   -0.128297
    14  H   -0.054893
    15  H    0.212590
 Sum of Mulliken charges =  -0.00000

 Dipole moment (field-independent basis, Debye):
    X=              5.5737    Y=             -2.2325    Z=              2.8690  Tot=              6.6544

 Test job not archived.
 1\1\GINC-SE212\SP\RHF\Aug-CC-pVDZ\C5H8N2\OHZDE\09-Apr-2025\0\\#t hf au
 g-cc-pvdz iop(5/13=1,5/36=2,99/5=2) pseudo=read geom=check guess=(read
 ,tcheck) scf=(maxcycle=1)\\title\\0,1\C,0,-1.70361148,1.04246378,-0.21
 131897\C,0,0.39401609,-0.0372347,0.81308285\C,0,1.69881956,-0.46371659
 ,0.16902866\C,0,2.30905877,0.63480187,-0.58073351\N,0,2.74393794,1.488
 19341,-1.21279135\C,0,-0.64744688,-1.08670788,0.75818036\N,0,-0.694147
 96,-0.00864638,-0.2456537\H,0,-1.86463693,1.31147285,0.82924535\H,0,-1
 .32257541,1.91273706,-0.74411608\H,0,-2.63322406,0.69382751,-0.6650068

 Normal termination of Gaussian 16 at Wed Apr  9 19:11:09 2025.
