 Gaussian 16, Revision C.01,

 ----------------------------------------------------------------------
 #t hf aug-cc-pvdz symm=none int=(grid=ultrafine) guess=(read,tcheck) s
 table=(opt,rrhf)
 ----------------------------------------------------------------------
 -----
 title
 -----
 Symbolic Z-matrix:
 Charge =  0 Multiplicity = 1

 SCF Done:  E(RHF) =  -299.556803715     A.U. after   16 cycles
 Normal termination of Gaussian 16 at Wed Apr  9 16:46:48 2025.
 Gaussian 16:  ES64L-G16RevC.01  3-Jul-2019

 ----------------------------------------------------------------------
 #t hf aug-cc-pvdz iop(5/13=1,5/36=2,99/5=2) pseudo=read geom=check gue
 ss=(read,tcheck) scf=(maxcycle=1)
 ----------------------------------------------------------------------
 -----
 title
 -----
 Structure from the checkpoint file:  "Grambow2020_wb97xd3_006148_reverse_mol2.chk"
 Charge =  0 Multiplicity = 1

                         Standard orientation:
 ---------------------------------------------------------------------
 Center     Atomic      Atomic             Coordinates (Angstroms)
 Number     Number       Type             X           Y           Z
 ---------------------------------------------------------------------
      1          7           0       -1.876309   -0.773580    0.146943
      2          6           0       -0.922797    0.170345   -0.007270
      3          6           0       -0.433632    1.242874   -0.531760
      4          6           0        0.336894    0.647649    0.605234
      5          7           0        1.601426   -0.065986    0.340390
      6          8           0        1.524406   -0.894847   -0.518061
      7          1           0       -1.586512   -1.626733    0.591397
      8          1           0       -2.512862   -0.899637   -0.621503
      9          1           0       -0.446081    2.069333   -1.215335
     10          1           0        0.391605    1.127575    1.581378
 ---------------------------------------------------------------------

 SCF Done:  E(RHF) =  -299.855407365     A.U. after    2 cycles

 The electronic state is 1-A.
 Alpha  occ. eigenvalues --  -20.59930 -15.62323 -15.54171 -11.30972 -11.28552
 Alpha  occ. eigenvalues --  -11.25205  -1.58729  -1.25929  -1.17838  -1.02393
 Alpha  occ. eigenvalues --   -0.82191  -0.81590  -0.75654  -0.73629  -0.71911
 Alpha  occ. eigenvalues --   -0.64979  -0.61514  -0.56013  -0.53373  -0.45521
 Alpha  occ. eigenvalues --   -0.41331  -0.36163
 Alpha virt. eigenvalues --    0.02671   0.04169   0.04675   0.05748   0.07516
 Alpha virt. eigenvalues --    0.08975   0.09898   0.11412   0.11818   0.13121
 Alpha virt. eigenvalues --    0.13574   0.14156   0.15711   0.16443   0.17705

 Mulliken charges:
               1
     1  N    0.777490
     2  C   -1.008085
     3  C    0.582925
     4  C   -0.332037
     5  N    1.023431
     6  O   -1.024408
     7  H    0.088716
     8  H    0.139325
     9  H   -0.182109
    10  H   -0.065245
 Sum of Mulliken charges =  -0.00000

 Dipole moment (field-independent basis, Debye):
    X=             -3.2037    Y=             -0.0337    Z=             -0.3975  Tot=              3.2284

 Test job not archived.
 1\1\GINC-SE113\SP\RHF\Aug-CC-pVDZ\C3H4N2O1\OHZDE\09-Apr-2025\0\\#t hf
 aug-cc-pvdz iop(5/13=1,5/36=2,99/5=2) pseudo=read geom=check guess=(re
 ad,tcheck) scf=(maxcycle=1)\\title\\0,1\N,0,1.57413362,-0.28593872,-0.
 66613342\C,0,0.32713566,0.16286753,-0.4062638\C,0,-0.58758152,1.071797
 79,-0.36350754\C,0,-1.02493517,-0.32654489,-0.0567215\N,0,-1.33250604,
 -0.71025089,1.33490624\O,0,-0.48225303,-0.41576756,2.12245358\H,0,1.83
 067631,-1.15535899,-0.23290684\H,0,2.30617752,0.40360188,-0.68174694\H
 ,0,-0.94942947,2.07570163,-0.47171277\H,0,-1.65641088,-0.89761379,-0.7

 Normal termination of Gaussian 16 at Wed Apr  9 16:46:51 2025.
