 Gaussian 16, Revision C.01,

 ----------------------------------------------------------------------
 #t hf aug-cc-pvdz symm=none int=(grid=ultrafine) guess=(read,tcheck) s
 table=(opt,rrhf)
 ----------------------------------------------------------------------
 -----
 title
 -----
 Symbolic Z-matrix:
 Charge =  0 Multiplicity = 1

 SCF Done:  E(RHF) =  -321.534984693     A.U. after   16 cycles
 Normal termination of Gaussian 16 at Wed Apr  9 03:46:16 2025.
 Gaussian 16:  ES64L-G16RevC.01  3-Jul-2019

 ----------------------------------------------------------------------
 #t hf aug-cc-pvdz iop(5/13=1,5/36=2,99/5=2) pseudo=read geom=check gue
 ss=(read,tcheck) scf=(maxcycle=1)
 ----------------------------------------------------------------------
 -----
 title
 -----
 Structure from the checkpoint file:  "Grambow2020_wb97xd3_007887_reverse_mol2.chk"
 Charge =  0 Multiplicity = 1

                         Standard orientation:
 ---------------------------------------------------------------------
 Center     Atomic      Atomic             Coordinates (Angstroms)
 Number     Number       Type             X           Y           Z
 ---------------------------------------------------------------------
      1          8           0       -2.151162   -0.513900    0.000871
      2          6           0       -1.019574   -0.112635   -0.040449
      3          6           0       -0.542730    1.284695    0.167301
      4          7           0        1.195257   -0.912388    0.734463
      5          6           0        0.214622   -0.928633   -0.365632
      6          6           0        1.338132    0.019202   -0.395106
      7          6           0        0.765916    1.361125   -0.064652
      8          1           0       -1.198646    2.082315    0.485494
      9          1           0        1.825485   -1.699903    0.617091
     10          1           0        0.131791   -1.794691   -1.007605
     11          1           0        2.173153   -0.085641   -1.074784
     12          1           0        1.372507    2.253309    0.022820
 ---------------------------------------------------------------------

 SCF Done:  E(RHF) =  -321.862854110     A.U. after    2 cycles

 The electronic state is 1-A.
 Alpha  occ. eigenvalues --  -20.53894 -15.53161 -11.34249 -11.29416 -11.28419
 Alpha  occ. eigenvalues --  -11.27759 -11.25296  -1.47578  -1.30801  -1.11240
 Alpha  occ. eigenvalues --   -0.95321  -0.92811  -0.80591  -0.76823  -0.75591
 Alpha  occ. eigenvalues --   -0.68460  -0.62660  -0.62107  -0.58211  -0.56823
 Alpha  occ. eigenvalues --   -0.54737  -0.51855  -0.45933  -0.40667  -0.38962
 Alpha virt. eigenvalues --    0.02677   0.03608   0.04332   0.04776   0.05347
 Alpha virt. eigenvalues --    0.07015   0.08806   0.10566   0.11689   0.12181
 Alpha virt. eigenvalues --    0.12915   0.13382   0.14497   0.14908   0.15092

 Mulliken charges:
               1
     1  O   -1.335223
     2  C    0.956696
     3  C    0.343799
     4  N    0.398850
     5  C   -0.236090
     6  C   -0.399480
     7  C    0.566143
     8  H   -0.104545
     9  H    0.175750
    10  H   -0.131523
    11  H   -0.155767
    12  H   -0.078611
 Sum of Mulliken charges =  -0.00000

 Dipole moment (field-independent basis, Debye):
    X=              3.9155    Y=              0.8074    Z=             -1.9106  Tot=              4.4309

 Test job not archived.
 1\1\GINC-SE453\SP\RHF\Aug-CC-pVDZ\C5H5N1O1\OHZDE\09-Apr-2025\0\\#t hf
 aug-cc-pvdz iop(5/13=1,5/36=2,99/5=2) pseudo=read geom=check guess=(re
 ad,tcheck) scf=(maxcycle=1)\\title\\0,1\O,0,-0.55574906,-2.07469614,1.
 40247637\C,0,-0.17676747,-1.1488711,0.73731938\C,0,1.08351883,-1.05390
 531,-0.05371113\N,0,-1.20565001,0.46959203,-0.83352356\C,0,-0.87140905
 ,0.1873905,0.57387242\C,0,0.02444235,1.01925957,-0.24281421\C,0,1.2090
 2324,0.1666271,-0.57018829\H,0,1.75478627,-1.89095144,-0.18186703\H,0,
 -1.92829885,1.18258615,-0.85722935\H,0,-1.49867149,0.5670958,1.3684872

 Normal termination of Gaussian 16 at Wed Apr  9 03:46:20 2025.
