 Gaussian 16, Revision C.01,

 ----------------------------------------------------------------------
 #t hf aug-cc-pvdz symm=none int=(grid=ultrafine) guess=(read,tcheck) s
 table=(opt,rrhf)
 ----------------------------------------------------------------------
 -----
 title
 -----
 Symbolic Z-matrix:
 Charge =  0 Multiplicity = 1

 SCF Done:  E(RHF) =  -265.001622483     A.U. after   15 cycles
 Normal termination of Gaussian 16 at Wed Apr  9 15:41:51 2025.
 Gaussian 16:  ES64L-G16RevC.01  3-Jul-2019

 ----------------------------------------------------------------------
 #t hf aug-cc-pvdz iop(5/13=1,5/36=2,99/5=2) pseudo=read geom=check gue
 ss=(read,tcheck) scf=(maxcycle=1)
 ----------------------------------------------------------------------
 -----
 title
 -----
 Structure from the checkpoint file:  "Grambow2020_b97d3_006636_reverse_mol2.chk"
 Charge =  0 Multiplicity = 1

                         Standard orientation:
 ---------------------------------------------------------------------
 Center     Atomic      Atomic             Coordinates (Angstroms)
 Number     Number       Type             X           Y           Z
 ---------------------------------------------------------------------
      1          6           0        1.917205   -0.859977    0.022494
      2          6           0        1.281297    0.532242   -0.046738
      3          6           0       -0.232029    0.539870   -0.006580
      4          7           0       -0.838808    1.836411   -0.071032
      5          6           0       -0.944522   -0.580974    0.066630
      6          7           0       -1.627242   -1.604897   -0.142150
      7          1           0        1.582513   -1.487562   -0.814527
      8          1           0        1.648669   -1.372233    0.957077
      9          1           0        3.011939   -0.784948   -0.022549
     10          1           0        1.658724    1.151548    0.787777
     11          1           0        1.590123    1.048852   -0.969816
     12          1           0       -1.873002   -2.111575    0.724788
     13          1           0       -1.853329    1.769836   -0.160089
     14          1           0       -0.635002    2.378523    0.774781
 ---------------------------------------------------------------------

 SCF Done:  E(RHF) =  -265.280005830     A.U. after    2 cycles

 The electronic state is 1-A.
 Alpha  occ. eigenvalues --  -15.52053 -15.51327 -11.30211 -11.28137 -11.24882
 Alpha  occ. eigenvalues --  -11.23216  -1.23330  -1.19918  -1.05823  -0.95804
 Alpha  occ. eigenvalues --   -0.86565  -0.76386  -0.71411  -0.69709  -0.63374
 Alpha  occ. eigenvalues --   -0.61510  -0.57442  -0.53640  -0.52080  -0.51313
 Alpha  occ. eigenvalues --   -0.49014  -0.48129  -0.33422
 Alpha virt. eigenvalues --    0.03026   0.04021   0.04036   0.04883   0.05917
 Alpha virt. eigenvalues --    0.06685   0.07454   0.08253   0.10687   0.11107
 Alpha virt. eigenvalues --    0.12165   0.12688   0.14287   0.14693   0.14865

 Mulliken charges:
               1
     1  C   -0.295536
     2  C   -0.322665
     3  C   -0.186232
     4  N    0.544539
     5  C   -2.129439
     6  N    0.968302
     7  H    0.263864
     8  H    0.240612
     9  H    0.053086
    10  H    0.195977
    11  H    0.225349
    12  H    0.176267
    13  H    0.071749
    14  H    0.194127
 Sum of Mulliken charges =  -0.00000

 Dipole moment (field-independent basis, Debye):
    X=              0.7146    Y=              1.0403    Z=              2.5366  Tot=              2.8333

 Test job not archived.
 1\1\GINC-SE129\SP\RHF\Aug-CC-pVDZ\C4H8N2\OHZDE\09-Apr-2025\0\\#t hf au
 g-cc-pvdz iop(5/13=1,5/36=2,99/5=2) pseudo=read geom=check guess=(read
 ,tcheck) scf=(maxcycle=1)\\title\\0,1\C,0,-1.80713649,0.09508025,0.073
 33674\C,0,-0.62616348,-0.79309502,-0.33150209\C,0,0.73304292,-0.140809
 76,-0.19399728\N,0,1.84588784,-0.96150181,-0.57002035\C,0,0.87832054,1
 .11139816,0.23046361\N,0,1.0218435,2.34500859,0.35584216\H,0,-1.839501
 25,1.00855047,-0.53576864\H,0,-1.73405679,0.39499712,1.12816975\H,0,-2
 .75572341,-0.44116217,-0.06351484\H,0,-0.6358423,-1.71772463,0.2746099

 Normal termination of Gaussian 16 at Wed Apr  9 15:41:55 2025.
