 Gaussian 16, Revision C.01,

 ----------------------------------------------------------------------
 #t hf aug-cc-pvdz symm=none int=(grid=ultrafine) guess=(read,tcheck) s
 table=(opt,rrhf)
 ----------------------------------------------------------------------
 -----
 title
 -----
 Symbolic Z-matrix:
 Charge =  0 Multiplicity = 1

 SCF Done:  E(RHF) =  -357.255782403     A.U. after   21 cycles
 Normal termination of Gaussian 16 at Wed Apr  9 03:59:24 2025.
 Gaussian 16:  ES64L-G16RevC.01  3-Jul-2019

 ----------------------------------------------------------------------
 #t hf aug-cc-pvdz iop(5/13=1,5/36=2,99/5=2) pseudo=read geom=check gue
 ss=(read,tcheck) scf=(maxcycle=1)
 ----------------------------------------------------------------------
 -----
 title
 -----
 Structure from the checkpoint file:  "Grambow2020_wb97xd3_008753_forward_mol1.chk"
 Charge =  0 Multiplicity = 1

                         Standard orientation:
 ---------------------------------------------------------------------
 Center     Atomic      Atomic             Coordinates (Angstroms)
 Number     Number       Type             X           Y           Z
 ---------------------------------------------------------------------
      1          8           0        2.460017   -0.724466   -0.200805
      2          6           0        1.942762    0.328453   -0.008587
      3          6           0        0.411736    0.443411    0.028992
      4          7           0       -0.245601    1.483345    0.090110
      5          8           0       -2.467958    0.226477   -0.177447
      6          6           0       -1.759133   -0.746571   -0.028490
      7          6           0       -0.371508   -0.750512    0.280152
      8          1           0        2.491492    1.268544    0.152782
      9          1           0       -2.149679   -1.764715   -0.229266
     10          1           0        0.097781   -1.552017    0.839325
 ---------------------------------------------------------------------

 SCF Done:  E(RHF) =  -357.597553925     A.U. after    2 cycles

 The electronic state is 1-A.
 Alpha  occ. eigenvalues --  -20.60329 -20.55276 -15.59931 -11.39606 -11.35186
 Alpha  occ. eigenvalues --  -11.33743 -11.31086  -1.54039  -1.48103  -1.29188
 Alpha  occ. eigenvalues --   -1.05754  -0.95442  -0.85934  -0.76704  -0.72653
 Alpha  occ. eigenvalues --   -0.70992  -0.67908  -0.65019  -0.63519  -0.60229
 Alpha  occ. eigenvalues --   -0.55627  -0.53134  -0.48648  -0.43977  -0.36860
 Alpha virt. eigenvalues --   -0.04826   0.03082   0.03607   0.04147   0.04917
 Alpha virt. eigenvalues --    0.08001   0.08364   0.09815   0.10445   0.11874
 Alpha virt. eigenvalues --    0.12541   0.12635   0.13747   0.13952   0.14814

 Mulliken charges:
               1
     1  O   -1.072227
     2  C    1.203215
     3  C   -1.436142
     4  N    1.004528
     5  O   -1.139745
     6  C    0.954268
     7  C    0.282513
     8  H    0.165011
     9  H    0.131943
    10  H   -0.093362
 Sum of Mulliken charges =  -0.00000

 Dipole moment (field-independent basis, Debye):
    X=              2.2832    Y=             -2.0628    Z=              0.8650  Tot=              3.1963

 Test job not archived.
 1\1\GINC-SE261\SP\RHF\Aug-CC-pVDZ\C4H3N1O2\OHZDE\09-Apr-2025\0\\#t hf
 aug-cc-pvdz iop(5/13=1,5/36=2,99/5=2) pseudo=read geom=check guess=(re
 ad,tcheck) scf=(maxcycle=1)\\title\\0,1\O,0,-1.87293705,1.29827704,-1.
 00461661\C,0,-1.74573465,0.12139589,-0.89548788\C,0,-0.44640467,-0.467
 29082,-0.32640164\N,0,-0.13815874,-1.65899373,-0.28037711\O,0,2.215121
 59,-1.13163112,0.59947354\C,0,1.75765463,-0.01333349,0.70707688\C,0,0.
 41228127,0.38272293,0.47493361\H,0,-2.51358828,-0.61412887,-1.17889585
 \H,0,2.42164054,0.84982514,0.91572754\H,0,-0.04802564,1.21345904,0.997

 Normal termination of Gaussian 16 at Wed Apr  9 03:59:28 2025.
