 Gaussian 16, Revision C.01,

 ----------------------------------------------------------------------
 #t hf aug-cc-pvdz symm=none int=(grid=ultrafine) guess=(read,tcheck) s
 table=(opt,rrhf)
 ----------------------------------------------------------------------
 -----
 title
 -----
 Symbolic Z-matrix:
 Charge =  0 Multiplicity = 1

 SCF Done:  E(RHF) =  -333.587941816     A.U. after   15 cycles
 Normal termination of Gaussian 16 at Wed Apr  9 03:33:06 2025.
 Gaussian 16:  ES64L-G16RevC.01  3-Jul-2019

 ----------------------------------------------------------------------
 #t hf aug-cc-pvdz iop(5/13=1,5/36=2,99/5=2) pseudo=read geom=check gue
 ss=(read,tcheck) scf=(maxcycle=1)
 ----------------------------------------------------------------------
 -----
 title
 -----
 Structure from the checkpoint file:  "Grambow2020_wb97xd3_006980_reverse_mol1.chk"
 Charge =  0 Multiplicity = 1

                         Standard orientation:
 ---------------------------------------------------------------------
 Center     Atomic      Atomic             Coordinates (Angstroms)
 Number     Number       Type             X           Y           Z
 ---------------------------------------------------------------------
      1          7           0       -2.190852    0.030408    0.000200
      2          6           0       -0.740912   -0.134945    0.000192
      3          6           0       -0.254152    1.182074   -0.000629
      4          7           0        1.075557    1.275593    0.000059
      5          6           0        1.722758    0.099406    0.000270
      6          7           0        1.223200   -1.129374   -0.000210
      7          7           0       -0.105335   -1.262734   -0.000184
      8          1           0       -2.660901   -0.311120   -0.832101
      9          1           0       -2.661008   -0.309188    0.833386
     10          1           0       -1.870095    1.207187   -0.000653
     11          1           0        2.807842    0.136654    0.001311
 ---------------------------------------------------------------------

 SCF Done:  E(RHF) =  -333.922204118     A.U. after    2 cycles

 The electronic state is 1-A.
 Alpha  occ. eigenvalues --  -15.62420 -15.57318 -15.53844 -15.50857 -11.31323
 Alpha  occ. eigenvalues --  -11.30793 -11.25206  -1.37806  -1.30716  -1.23195
 Alpha  occ. eigenvalues --   -1.12146  -0.97005  -0.92820  -0.82597  -0.81172
 Alpha  occ. eigenvalues --   -0.74391  -0.69302  -0.67017  -0.62979  -0.56714
 Alpha  occ. eigenvalues --   -0.52191  -0.47582  -0.47544  -0.41037  -0.36357
 Alpha virt. eigenvalues --    0.00989   0.03475   0.04254   0.05203   0.05416
 Alpha virt. eigenvalues --    0.08607   0.09399   0.09652   0.10497   0.10916
 Alpha virt. eigenvalues --    0.11158   0.12679   0.13874   0.14822   0.15348

 Mulliken charges:
               1
     1  N    0.032892
     2  C   -1.440004
     3  C   -0.819917
     4  N    0.688925
     5  C   -0.306363
     6  N    0.103066
     7  N    0.435014
     8  H    0.362555
     9  H    0.362827
    10  H    0.574647
    11  H    0.006358
 Sum of Mulliken charges =  -0.00000

 Dipole moment (field-independent basis, Debye):
    X=             -5.8566    Y=             -0.3004    Z=              0.0034  Tot=              5.8643

 Test job not archived.
 1\1\GINC-SE132\SP\RHF\Aug-CC-pVDZ\C3H4N4\OHZDE\09-Apr-2025\0\\#t hf au
 g-cc-pvdz iop(5/13=1,5/36=2,99/5=2) pseudo=read geom=check guess=(read
 ,tcheck) scf=(maxcycle=1)\\title\\0,1\N,0,1.81773136,0.10342555,-0.399
 60123\C,0,0.40812236,-0.17677879,-0.14631207\C,0,-0.10889501,1.0600618
 9,0.27129186\N,0,-1.40962253,1.04101077,0.56218425\C,0,-2.00354883,-0.
 15311328,0.40855025\N,0,-1.47658707,-1.30361951,0.01092417\N,0,-0.1758
 8393,-1.32314019,-0.29003953\H,0,2.46724977,-0.37988717,0.21264642\H,0
 ,2.10733422,0.00409025,-1.36750323\H,0,1.46720592,1.21797333,-0.049442

 Normal termination of Gaussian 16 at Wed Apr  9 03:33:11 2025.
