 Gaussian 16, Revision C.01,

 ----------------------------------------------------------------------
 #t hf aug-cc-pvdz symm=none int=(grid=ultrafine) guess=(read,tcheck) s
 table=(opt,rrhf)
 ----------------------------------------------------------------------
 -----
 title
 -----
 Symbolic Z-matrix:
 Charge =  0 Multiplicity = 1

 SCF Done:  E(RHF) =  -358.464227339     A.U. after   15 cycles
 Normal termination of Gaussian 16 at Wed Apr  9 17:44:38 2025.
 Gaussian 16:  ES64L-G16RevC.01  3-Jul-2019

 ----------------------------------------------------------------------
 #t hf aug-cc-pvdz iop(5/13=1,5/36=2,99/5=2) pseudo=read geom=check gue
 ss=(read,tcheck) scf=(maxcycle=1)
 ----------------------------------------------------------------------
 -----
 title
 -----
 Structure from the checkpoint file:  "Grambow2020_wb97xd3_006804_reverse_mol2.chk"
 Charge =  0 Multiplicity = 1

                         Standard orientation:
 ---------------------------------------------------------------------
 Center     Atomic      Atomic             Coordinates (Angstroms)
 Number     Number       Type             X           Y           Z
 ---------------------------------------------------------------------
      1          8           0        2.791945   -0.680222    0.238421
      2          6           0        1.842808   -0.234566   -0.337329
      3          6           0        0.639816    0.308821    0.374078
      4          6           0        0.053413    1.540436   -0.195230
      5          7           0       -0.631196    0.140880   -0.377258
      6          6           0       -1.799418   -0.189235    0.359829
      7          8           0       -2.726615   -0.742419   -0.137471
      8          1           0        1.812740   -0.129377   -1.441793
      9          1           0        0.570344   -0.007728    1.415128
     10          1           0       -0.615448   -0.242058   -1.315465
     11          1           0       -0.545803    2.050523    0.568143
     12          1           0       -1.745813    0.170872    1.399108
 ---------------------------------------------------------------------

 SCF Done:  E(RHF) =  -358.821796584     A.U. after    2 cycles

 The electronic state is 1-A.
 Alpha  occ. eigenvalues --  -20.59469 -20.57273 -15.63116 -11.42208 -11.36651
 Alpha  occ. eigenvalues --  -11.32449 -11.26012  -1.54467  -1.50822  -1.35805
 Alpha  occ. eigenvalues --   -1.07620  -0.94130  -0.92781  -0.82115  -0.77218
 Alpha  occ. eigenvalues --   -0.74885  -0.70131  -0.66973  -0.66695  -0.62450
 Alpha  occ. eigenvalues --   -0.58601  -0.53781  -0.52361  -0.48792  -0.44632
 Alpha  occ. eigenvalues --   -0.36080
 Alpha virt. eigenvalues --    0.02934   0.03509   0.04535   0.05508   0.05782
 Alpha virt. eigenvalues --    0.08233   0.08680   0.09309   0.09787   0.10355
 Alpha virt. eigenvalues --    0.11677   0.12745   0.13382   0.13992   0.14668

 Mulliken charges:
               1
     1  O   -1.091189
     2  C    0.973296
     3  C   -0.227598
     4  C   -0.243590
     5  N    0.716437
     6  C    0.735609
     7  O   -1.008666
     8  H    0.120231
     9  H   -0.217686
    10  H    0.120241
    11  H   -0.003227
    12  H    0.126142
 Sum of Mulliken charges =  -0.00000

 Dipole moment (field-independent basis, Debye):
    X=             -1.4486    Y=             -0.7189    Z=              1.0920  Tot=              1.9513

 Test job not archived.
 1\1\GINC-SE219\SP\RHF\Aug-CC-pVDZ\C4H5N1O2\OHZDE\09-Apr-2025\0\\#t hf
 aug-cc-pvdz iop(5/13=1,5/36=2,99/5=2) pseudo=read geom=check guess=(re
 ad,tcheck) scf=(maxcycle=1)\\title\\0,1\O,0,2.90120105,-0.32427235,-0.
 4346765\C,0,1.80788289,0.06203475,-0.72858112\C,0,0.68934235,0.1737089
 ,0.26386833\C,0,-0.16501179,1.37384131,0.14297333\N,0,-0.65939722,-0.0
 4035432,-0.32201563\C,0,-1.61178989,-0.75829105,0.44904086\O,0,-2.5234
 5006,-1.33619221,-0.0488756\H,0,1.56091254,0.43029451,-1.74602945\H,0,
 0.85881161,-0.39847866,1.17639046\H,0,-0.76003698,-0.16838181,-1.32231

 Normal termination of Gaussian 16 at Wed Apr  9 17:44:42 2025.
