 Gaussian 16, Revision C.01,

 ----------------------------------------------------------------------
 #t hf aug-cc-pvdz symm=none int=(grid=ultrafine) guess=(read,tcheck) s
 table=(opt,rrhf)
 ----------------------------------------------------------------------
 -----
 title
 -----
 Symbolic Z-matrix:
 Charge =  0 Multiplicity = 1

 SCF Done:  E(RHF) =  -355.902788188     A.U. after   14 cycles
 Normal termination of Gaussian 16 at Wed Apr  9 19:15:59 2025.
 Gaussian 16:  ES64L-G16RevC.01  3-Jul-2019

 ----------------------------------------------------------------------
 #t hf aug-cc-pvdz iop(5/13=1,5/36=2,99/5=2) pseudo=read geom=check gue
 ss=(read,tcheck) scf=(maxcycle=1)
 ----------------------------------------------------------------------
 -----
 title
 -----
 Structure from the checkpoint file:  "Grambow2020_wb97xd3_009001_reverse_mol2.chk"
 Charge =  0 Multiplicity = 1

                         Standard orientation:
 ---------------------------------------------------------------------
 Center     Atomic      Atomic             Coordinates (Angstroms)
 Number     Number       Type             X           Y           Z
 ---------------------------------------------------------------------
      1          6           0        2.664540   -0.329928    0.477399
      2          7           0        1.532936   -0.627261   -0.413575
      3          6           0        0.254954    0.340638   -0.158493
      4          8           0        0.563471    1.505941   -0.086712
      5          7           0       -0.759281   -0.454431   -0.109318
      6          6           0       -1.996052    0.144769    0.084196
      7          7           0       -3.050244   -0.555363    0.150826
      8          1           0        2.371008   -0.565997    1.498084
      9          1           0        2.871735    0.735164    0.403183
     10          1           0        3.538637   -0.914264    0.195349
     11          1           0        1.795825   -0.503908   -1.387508
     12          1           0        1.152958   -1.563619   -0.297216
     13          1           0       -1.991161    1.238979    0.172591
     14          1           0       -3.851297    0.052634    0.295058
 ---------------------------------------------------------------------

 SCF Done:  E(RHF) =  -356.268487190     A.U. after    2 cycles

 The electronic state is 1-A.
 Alpha  occ. eigenvalues --  -20.52367 -15.62830 -15.46694 -15.45591 -11.39271
 Alpha  occ. eigenvalues --  -11.31872 -11.28930  -1.48219  -1.31557  -1.23831
 Alpha  occ. eigenvalues --   -1.15892  -1.00309  -0.88775  -0.82122  -0.77948
 Alpha  occ. eigenvalues --   -0.72726  -0.71536  -0.66997  -0.65245  -0.61213
 Alpha  occ. eigenvalues --   -0.60675  -0.59129  -0.50644  -0.48716  -0.45046
 Alpha  occ. eigenvalues --   -0.43046  -0.37236
 Alpha virt. eigenvalues --    0.01358   0.03444   0.04282   0.04518   0.05592
 Alpha virt. eigenvalues --    0.06323   0.07699   0.09396   0.09980   0.11855
 Alpha virt. eigenvalues --    0.12067   0.12815   0.13356   0.13968   0.15190

 Mulliken charges:
               1
     1  C   -0.332944
     2  N    0.093700
     3  C    0.060912
     4  O   -1.175145
     5  N    0.598988
     6  C   -0.842905
     7  N    0.567945
     8  H    0.167560
     9  H    0.170294
    10  H    0.091496
    11  H    0.393611
    12  H    0.316409
    13  H   -0.324595
    14  H    0.214673
 Sum of Mulliken charges =  -0.00000

 Dipole moment (field-independent basis, Debye):
    X=              7.2167    Y=             -0.5228    Z=             -0.6217  Tot=              7.2623

 Test job not archived.
 1\1\GINC-SE159\SP\RHF\Aug-CC-pVDZ\C3H7N3O1\OHZDE\09-Apr-2025\0\\#t hf
 aug-cc-pvdz iop(5/13=1,5/36=2,99/5=2) pseudo=read geom=check guess=(re
 ad,tcheck) scf=(maxcycle=1)\\title\\0,1\C,0,2.29341785,0.4928157,-0.01
 343955\N,0,1.07831456,0.05265061,0.68837723\C,0,-0.08037942,-0.4721317
 8,-0.32016774\O,0,0.34199868,-1.23886226,-1.15202618\N,0,-1.15965405,0
 .10669701,0.08399695\C,0,-2.31690049,-0.20062109,-0.61773441\N,0,-3.42
 557265,0.32284355,-0.29714538\H,0,2.05187839,1.37701126,-0.59956695\H,
 0,2.59529444,-0.30824137,-0.68428722\H,0,3.08569117,0.72074633,0.69747

 Normal termination of Gaussian 16 at Wed Apr  9 19:16:04 2025.
