 Gaussian 16, Revision C.01,

 ----------------------------------------------------------------------
 #t hf aug-cc-pvdz symm=none int=(grid=ultrafine) guess=(read,tcheck) s
 table=(opt,rrhf)
 ----------------------------------------------------------------------
 -----
 title
 -----
 Symbolic Z-matrix:
 Charge =  0 Multiplicity = 1

 SCF Done:  E(RHF) =  -306.551299225     A.U. after   16 cycles
 Normal termination of Gaussian 16 at Wed Apr  9 18:54:51 2025.
 Gaussian 16:  ES64L-G16RevC.01  3-Jul-2019

 ----------------------------------------------------------------------
 #t hf aug-cc-pvdz iop(5/13=1,5/36=2,99/5=2) pseudo=read geom=check gue
 ss=(read,tcheck) scf=(maxcycle=1)
 ----------------------------------------------------------------------
 -----
 title
 -----
 Structure from the checkpoint file:  "Grambow2020_wb97xd3_008208_reverse_mol2.chk"
 Charge =  0 Multiplicity = 1

                         Standard orientation:
 ---------------------------------------------------------------------
 Center     Atomic      Atomic             Coordinates (Angstroms)
 Number     Number       Type             X           Y           Z
 ---------------------------------------------------------------------
      1          6           0       -1.554535    0.353316   -0.807469
      2          8           0       -1.907082   -0.831631   -0.197640
      3          6           0       -1.090102   -0.663785    0.828051
      4          6           0        2.621043   -0.648847   -0.071003
      5          6           0        1.569124    0.019889   -0.515424
      6          6           0        0.803302    1.030601    0.284705
      7          6           0       -0.674881    0.687618    0.393660
      8          1           0        3.007655   -0.498598    0.932330
      9          1           0       -2.397392    0.935740   -1.176250
     10          1           0       -0.622325   -1.514387    1.305718
     11          1           0        3.136959   -1.371000   -0.691763
     12          1           0        1.197713   -0.155154   -1.522343
     13          1           0        1.229600    1.119248    1.287412
     14          1           0        0.889308    2.014718   -0.185944
     15          1           0       -1.228568    1.449729    0.956839
 ---------------------------------------------------------------------

 SCF Done:  E(RHF) =  -306.868130794     A.U. after    2 cycles

 The electronic state is 1-A.
 Alpha  occ. eigenvalues --  -20.65290 -11.32273 -11.26322 -11.26085 -11.25339
 Alpha  occ. eigenvalues --  -11.24274 -11.23305  -1.58372  -1.10908  -1.03580
 Alpha  occ. eigenvalues --   -0.94253  -0.93010  -0.78467  -0.72793  -0.72163
 Alpha  occ. eigenvalues --   -0.68429  -0.67165  -0.62777  -0.60687  -0.58145
 Alpha  occ. eigenvalues --   -0.53540  -0.51501  -0.49651  -0.47848  -0.37700
 Alpha  occ. eigenvalues --   -0.27005
 Alpha virt. eigenvalues --    0.03335   0.03493   0.03798   0.04427   0.05670
 Alpha virt. eigenvalues --    0.05808   0.06328   0.06839   0.08378   0.09168
 Alpha virt. eigenvalues --    0.11626   0.12013   0.12890   0.13890   0.14243

 Mulliken charges:
               1
     1  C    0.612979
     2  O   -1.087329
     3  C    0.797064
     4  C   -0.190980
     5  C    0.909902
     6  C   -0.575967
     7  C   -0.449112
     8  H   -0.076618
     9  H   -0.099896
    10  H   -0.080332
    11  H   -0.094284
    12  H   -0.158203
    13  H    0.105078
    14  H    0.248848
    15  H    0.138851
 Sum of Mulliken charges =  -0.00000

 Dipole moment (field-independent basis, Debye):
    X=              0.7393    Y=              0.6569    Z=              1.8251  Tot=              2.0758

 Test job not archived.
 1\1\GINC-SE162\SP\RHF\Aug-CC-pVDZ\C6H8O1\OHZDE\09-Apr-2025\0\\#t hf au
 g-cc-pvdz iop(5/13=1,5/36=2,99/5=2) pseudo=read geom=check guess=(read
 ,tcheck) scf=(maxcycle=1)\\title\\0,1\C,0,-1.84373387,-0.92511869,0.16
 107353\O,0,-1.48132337,-1.29777817,1.43781275\C,0,-0.70281206,-0.24712
 799,1.63204071\C,0,2.35150365,-0.07735491,-0.65344734\C,0,1.05381141,-
 0.22085757,-0.86943949\C,0,0.02608138,0.84023998,-0.61239563\C,0,-1.06
 515609,0.37489485,0.34006948\H,0,2.76427204,0.84948876,-0.26704827\H,0
 ,-2.90800117,-1.02014744,-0.04852298\H,0,0.18458715,-0.32402423,2.2461

 Normal termination of Gaussian 16 at Wed Apr  9 18:54:56 2025.
