 Gaussian 16, Revision C.01,

 ----------------------------------------------------------------------
 #t hf aug-cc-pvdz symm=none int=(grid=ultrafine) guess=(read,tcheck) s
 table=(opt,rrhf)
 ----------------------------------------------------------------------
 -----
 title
 -----
 Symbolic Z-matrix:
 Charge =  0 Multiplicity = 1

 SCF Done:  E(RHF) =  -316.385389339     A.U. after   19 cycles
 Normal termination of Gaussian 16 at Wed Apr  9 18:16:23 2025.
 Gaussian 16:  ES64L-G16RevC.01  3-Jul-2019

 ----------------------------------------------------------------------
 #t hf aug-cc-pvdz iop(5/13=1,5/36=2,99/5=2) pseudo=read geom=check gue
 ss=(read,tcheck) scf=(maxcycle=1)
 ----------------------------------------------------------------------
 -----
 title
 -----
 Structure from the checkpoint file:  "Grambow2020_wb97xd3_007263_forward_mol1.chk"
 Charge =  0 Multiplicity = 1

                         Standard orientation:
 ---------------------------------------------------------------------
 Center     Atomic      Atomic             Coordinates (Angstroms)
 Number     Number       Type             X           Y           Z
 ---------------------------------------------------------------------
      1          7           0       -2.785792    0.406349    0.249016
      2          6           0       -1.731248    0.003690    0.025555
      3          6           0       -0.422372   -0.400206   -0.226419
      4          7           0        0.248484   -1.397483   -0.445493
      5          6           0        1.344193   -0.817138    0.353399
      6          6           0        1.755535    0.504415    0.167749
      7          7           0        0.878479    1.403307   -0.161749
      8          1           0        1.830774   -1.543939    0.987993
      9          1           0        2.819697    0.722812    0.265653
     10          1           0        1.284685    2.191350   -0.667768
 ---------------------------------------------------------------------

 SCF Done:  E(RHF) =  -316.697882728     A.U. after    2 cycles

 The electronic state is 1-A.
 Alpha  occ. eigenvalues --  -15.58990 -15.56643 -15.51579 -11.39330 -11.32749
 Alpha  occ. eigenvalues --  -11.31111 -11.31027  -1.35757  -1.27664  -1.22391
 Alpha  occ. eigenvalues --   -1.02333  -0.96159  -0.82919  -0.76848  -0.71709
 Alpha  occ. eigenvalues --   -0.66873  -0.65079  -0.64062  -0.59126  -0.56780
 Alpha  occ. eigenvalues --   -0.53245  -0.51875  -0.45215  -0.34240
 Alpha virt. eigenvalues --    0.00100   0.02820   0.03515   0.04085   0.04953
 Alpha virt. eigenvalues --    0.07105   0.08673   0.09538   0.10305   0.10802
 Alpha virt. eigenvalues --    0.11912   0.12671   0.13284   0.14160   0.14628

 Mulliken charges:
               1
     1  N    0.998371
     2  C   -1.550792
     3  C   -0.615061
     4  N    0.933372
     5  C    0.144469
     6  C   -0.499432
     7  N    0.764755
     8  H   -0.165701
     9  H   -0.097738
    10  H    0.087759
 Sum of Mulliken charges =  -0.00000

 Dipole moment (field-independent basis, Debye):
    X=              4.3753    Y=             -0.3975    Z=              0.1203  Tot=              4.3949

 Test job not archived.
 1\1\GINC-SE041\SP\RHF\Aug-CC-pVDZ\C4H3N3\OHZDE\09-Apr-2025\0\\#t hf au
 g-cc-pvdz iop(5/13=1,5/36=2,99/5=2) pseudo=read geom=check guess=(read
 ,tcheck) scf=(maxcycle=1)\\title\\0,1\N,0,3.15444519,-0.98035914,-0.41
 105651\C,0,2.07325736,-0.89295591,-0.02696492\C,0,0.75887734,-0.706917
 52,0.39442994\N,0,-0.16018228,-1.28567928,0.95386294\C,0,-1.11323229,-
 0.61097802,0.05270724\C,0,-1.03520732,0.76234888,-0.18823836\N,0,0.127
 42539,1.34009059,-0.20563807\H,0,-1.90186058,-1.26567019,-0.28957122\H
 ,0,-1.9707128,1.30973881,-0.3103755\H,0,0.084138,2.33233978,0.03023747

 Normal termination of Gaussian 16 at Wed Apr  9 18:16:27 2025.
