 Gaussian 16, Revision C.01,

 ----------------------------------------------------------------------
 #t hf aug-cc-pvdz symm=none int=(grid=ultrafine) guess=(read,tcheck) s
 table=(opt,rrhf)
 ----------------------------------------------------------------------
 -----
 title
 -----
 Symbolic Z-matrix:
 Charge =  0 Multiplicity = 1

 SCF Done:  E(RHF) =  -283.526407169     A.U. after   15 cycles
 Normal termination of Gaussian 16 at Wed Apr  9 17:02:01 2025.
 Gaussian 16:  ES64L-G16RevC.01  3-Jul-2019

 ----------------------------------------------------------------------
 #t hf aug-cc-pvdz iop(5/13=1,5/36=2,99/5=2) pseudo=read geom=check gue
 ss=(read,tcheck) scf=(maxcycle=1)
 ----------------------------------------------------------------------
 -----
 title
 -----
 Structure from the checkpoint file:  "Grambow2020_wb97xd3_006229_forward_mol1.chk"
 Charge =  0 Multiplicity = 1

                         Standard orientation:
 ---------------------------------------------------------------------
 Center     Atomic      Atomic             Coordinates (Angstroms)
 Number     Number       Type             X           Y           Z
 ---------------------------------------------------------------------
      1          8           0       -2.141858   -0.233856   -0.000143
      2          6           0       -0.977770    0.162005   -0.000201
      3          6           0        0.052887   -1.101578    0.000262
      4          6           0        1.357611   -0.507260   -0.000327
      5          6           0        2.163080    0.420468   -0.000382
      6          7           0       -0.369709    1.305777    0.000023
      7          1           0       -0.131752   -1.699118   -0.890576
      8          1           0       -0.131360   -1.695637    0.893583
      9          1           0        2.521167   -0.923952   -0.000430
     10          1           0        2.943364    1.153087    0.001882
     11          1           0       -1.053441    2.054220    0.000412
 ---------------------------------------------------------------------

 SCF Done:  E(RHF) =  -283.813319981     A.U. after    2 cycles

 The electronic state is 1-A.
 Alpha  occ. eigenvalues --  -20.44567 -15.41512 -11.39871 -11.38393 -11.30755
 Alpha  occ. eigenvalues --  -11.27812  -1.39146  -1.22525  -1.13316  -1.03557
 Alpha  occ. eigenvalues --   -0.84983  -0.75193  -0.70500  -0.67387  -0.65409
 Alpha  occ. eigenvalues --   -0.59618  -0.56551  -0.52290  -0.49694  -0.43491
 Alpha  occ. eigenvalues --   -0.35605  -0.34113
 Alpha virt. eigenvalues --    0.00438   0.02045   0.03350   0.04619   0.05335
 Alpha virt. eigenvalues --    0.06935   0.07255   0.09196   0.10508   0.11093
 Alpha virt. eigenvalues --    0.11645   0.12131   0.13900   0.13940   0.14747

 Mulliken charges:
               1
     1  O   -1.303219
     2  C    0.130482
     3  C   -0.552278
     4  C    0.574545
     5  C    0.071688
     6  N    0.499842
     7  H    0.277060
     8  H    0.278709
     9  H    0.269444
    10  H   -0.285567
    11  H    0.039294
 Sum of Mulliken charges =  -0.00000

 Dipole moment (field-independent basis, Debye):
    X=             10.0963    Y=             -2.0980    Z=              0.0038  Tot=             10.3120

 Test job not archived.
 1\1\GINC-SE454\SP\RHF\Aug-CC-pVDZ\C4H5N1O1\OHZDE\09-Apr-2025\0\\#t hf
 aug-cc-pvdz iop(5/13=1,5/36=2,99/5=2) pseudo=read geom=check guess=(re
 ad,tcheck) scf=(maxcycle=1)\\title\\0,1\O,0,-1.64850219,1.91797912,0.0
 9171395\C,0,-0.63027813,1.2295892,0.12556308\C,0,-0.98357693,-0.325878
 57,-0.21295701\C,0,0.27483838,-1.00906643,-0.14109167\C,0,1.48764338,-
 1.10222533,0.03178438\N,0,0.62994536,1.41906992,0.3576976\H,0,-1.42514
 067,-0.37210661,-1.20674859\H,0,-1.69385163,-0.6867425,0.52877194\H,0,
 0.66108827,-2.17320821,-0.29301632\H,0,2.5330508,-1.29022244,0.1635366

 Normal termination of Gaussian 16 at Wed Apr  9 17:02:04 2025.
