 Gaussian 16, Revision C.01,

 ----------------------------------------------------------------------
 #t hf aug-cc-pvdz symm=none int=(grid=ultrafine) guess=(read,tcheck) s
 table=(opt,rrhf)
 ----------------------------------------------------------------------
 -----
 title
 -----
 Symbolic Z-matrix:
 Charge =  0 Multiplicity = 1

 SCF Done:  E(RHF) =  -322.644709856     A.U. after   15 cycles
 Normal termination of Gaussian 16 at Wed Apr  9 18:08:39 2025.
 Gaussian 16:  ES64L-G16RevC.01  3-Jul-2019

 ----------------------------------------------------------------------
 #t hf aug-cc-pvdz iop(5/13=1,5/36=2,99/5=2) pseudo=read geom=check gue
 ss=(read,tcheck) scf=(maxcycle=1)
 ----------------------------------------------------------------------
 -----
 title
 -----
 Structure from the checkpoint file:  "Grambow2020_wb97xd3_007129_reverse_mol2.chk"
 Charge =  0 Multiplicity = 1

                         Standard orientation:
 ---------------------------------------------------------------------
 Center     Atomic      Atomic             Coordinates (Angstroms)
 Number     Number       Type             X           Y           Z
 ---------------------------------------------------------------------
      1          7           0       -2.280202    0.123139   -0.166473
      2          6           0       -1.041667    0.024572    0.037293
      3          8           0       -0.395021   -1.163994   -0.062187
      4          6           0        1.024519   -1.228711    0.146738
      5          6           0        1.905078   -0.110647   -0.119592
      6          6           0        1.171692    1.146178   -0.285457
      7          6           0       -0.198666    1.213128    0.391028
      8          1           0       -2.680720   -0.788109   -0.380961
      9          1           0        1.345917   -2.156295   -0.327505
     10          1           0        1.256931   -1.360832    1.226284
     11          1           0       -0.054996    1.228712    1.476377
     12          1           0        1.056522    1.123864   -1.389773
     13          1           0        1.786827    2.025447   -0.088946
     14          1           0       -0.754636    2.110074    0.127279
 ---------------------------------------------------------------------

 SCF Done:  E(RHF) =  -322.973817625     A.U. after    2 cycles

 The electronic state is 1-A.
 Alpha  occ. eigenvalues --  -20.58839 -15.47518 -11.34734 -11.31858 -11.28592
 Alpha  occ. eigenvalues --  -11.26608 -11.26163  -1.52068  -1.21233  -1.12534
 Alpha  occ. eigenvalues --   -1.03063  -0.93499  -0.84080  -0.74929  -0.71319
 Alpha  occ. eigenvalues --   -0.68484  -0.68268  -0.61505  -0.61048  -0.58541
 Alpha  occ. eigenvalues --   -0.55632  -0.52505  -0.51052  -0.47046  -0.42624
 Alpha  occ. eigenvalues --   -0.37230
 Alpha virt. eigenvalues --    0.03277   0.03830   0.03872   0.04798   0.05919
 Alpha virt. eigenvalues --    0.06305   0.06486   0.06779   0.09087   0.11183
 Alpha virt. eigenvalues --    0.12172   0.13519   0.13957   0.14052   0.14537

 Mulliken charges:
               1
     1  N    0.728736
     2  C    0.171207
     3  O   -1.572547
     4  C    0.577189
     5  C   -0.559512
     6  C   -0.219278
     7  C   -0.659888
     8  H    0.197735
     9  H    0.033308
    10  H    0.324303
    11  H    0.271771
    12  H    0.387865
    13  H    0.119561
    14  H    0.199549
 Sum of Mulliken charges =  -0.00000

 Dipole moment (field-independent basis, Debye):
    X=              1.7356    Y=             -0.1273    Z=              0.5637  Tot=              1.8292

 Test job not archived.
 1\1\GINC-SE229\SP\RHF\Aug-CC-pVDZ\C5H7N1O1\OHZDE\09-Apr-2025\0\\#t hf
 aug-cc-pvdz iop(5/13=1,5/36=2,99/5=2) pseudo=read geom=check guess=(re
 ad,tcheck) scf=(maxcycle=1)\\title\\0,1\N,0,1.71770875,-1.61013468,0.1
 6375615\C,0,0.92893231,-0.67986037,-0.14869364\O,0,1.34527071,0.400849
 13,-0.85542236\C,0,0.40698588,1.42552575,-1.21955392\C,0,-1.00201707,1
 .15911081,-1.4198448\C,0,-1.40063061,-0.146993,-0.8905264\C,0,-0.52210
 581,-0.70971591,0.22819231\H,0,2.65906291,-1.40663573,-0.16674856\H,0,
 0.86918716,1.96111232,-2.04909119\H,0,0.31268733,2.17852274,-0.4065383

 Normal termination of Gaussian 16 at Wed Apr  9 18:08:44 2025.
