 Gaussian 16, Revision C.01,

 ----------------------------------------------------------------------
 #t hf aug-cc-pvdz symm=none int=(grid=ultrafine) guess=(read,tcheck) s
 table=(opt,rrhf)
 ----------------------------------------------------------------------
 -----
 title
 -----
 Symbolic Z-matrix:
 Charge =  0 Multiplicity = 1

 SCF Done:  E(RHF) =  -305.723673361     A.U. after   15 cycles
 Normal termination of Gaussian 16 at Wed Apr  9 16:59:12 2025.
 Gaussian 16:  ES64L-G16RevC.01  3-Jul-2019

 ----------------------------------------------------------------------
 #t hf aug-cc-pvdz iop(5/13=1,5/36=2,99/5=2) pseudo=read geom=check gue
 ss=(read,tcheck) scf=(maxcycle=1)
 ----------------------------------------------------------------------
 -----
 title
 -----
 Structure from the checkpoint file:  "Grambow2020_wb97xd3_006213_forward_mol1.chk"
 Charge =  0 Multiplicity = 1

                         Standard orientation:
 ---------------------------------------------------------------------
 Center     Atomic      Atomic             Coordinates (Angstroms)
 Number     Number       Type             X           Y           Z
 ---------------------------------------------------------------------
      1          6           0        2.188219   -0.179205   -0.150319
      2          8           0        0.869277   -0.604100    0.102878
      3          6           0        0.027538    0.405214    0.571480
      4          6           0       -0.509132    1.366956   -0.439319
      5          6           0       -1.434456   -0.002016    0.513496
      6          8           0       -1.637047   -1.057352   -0.299081
      7          1           0        2.653469    0.219547    0.758043
      8          1           0        2.214749    0.590181   -0.929653
      9          1           0        2.748341   -1.051369   -0.483294
     10          1           0        0.368435    0.829047    1.516035
     11          1           0       -0.353166    1.105907   -1.479086
     12          1           0       -0.540586    2.420916   -0.188760
     13          1           0       -1.799364    1.078787   -0.050047
     14          1           0       -0.782729   -1.447093   -0.545643
 ---------------------------------------------------------------------

 SCF Done:  E(RHF) =  -306.040689277     A.U. after    2 cycles

 The electronic state is 1-A.
 Alpha  occ. eigenvalues --  -20.57180 -20.56240 -11.30513 -11.29976 -11.29606
 Alpha  occ. eigenvalues --  -11.27091  -1.50856  -1.47263  -1.11415  -0.96110
 Alpha  occ. eigenvalues --   -0.85390  -0.82141  -0.73438  -0.71086  -0.66489
 Alpha  occ. eigenvalues --   -0.63052  -0.60855  -0.59492  -0.56726  -0.53933
 Alpha  occ. eigenvalues --   -0.50803  -0.46081  -0.44252  -0.32095
 Alpha virt. eigenvalues --    0.03016   0.03690   0.03868   0.05229   0.06252
 Alpha virt. eigenvalues --    0.06773   0.07551   0.07783   0.11035   0.11473
 Alpha virt. eigenvalues --    0.12697   0.13573   0.14145   0.14706   0.15509

 Mulliken charges:
               1
     1  C    0.113906
     2  O   -1.466943
     3  C    1.312519
     4  C   -0.498327
     5  C    0.490445
     6  O   -1.129110
     7  H    0.156880
     8  H    0.186162
     9  H   -0.013557
    10  H    0.044253
    11  H    0.025487
    12  H    0.000735
    13  H    0.435374
    14  H    0.342176
 Sum of Mulliken charges =  -0.00000

 Dipole moment (field-independent basis, Debye):
    X=              3.6028    Y=              1.8090    Z=             -1.1519  Tot=              4.1928

 Test job not archived.
 1\1\GINC-SE226\SP\RHF\Aug-CC-pVDZ\C4H8O2\OHZDE\09-Apr-2025\0\\#t hf au
 g-cc-pvdz iop(5/13=1,5/36=2,99/5=2) pseudo=read geom=check guess=(read
 ,tcheck) scf=(maxcycle=1)\\title\\0,1\C,0,1.6414862,-0.48051974,-0.947
 20287\O,0,0.43713913,0.24989128,-0.92985595\C,0,-0.58436111,-0.3565285
 7,-0.19799561\C,0,-0.52207632,-0.22993947,1.29021563\C,0,-1.73363745,0
 .59884923,0.07226897\O,0,-1.37905406,1.88587564,-0.10908482\H,0,1.4916
 5446,-1.47441659,-1.38343992\H,0,2.05140423,-0.59422622,0.06228081\H,0
 ,2.34574578,0.07583092,-1.56345919\H,0,-0.85875951,-1.33426835,-0.5939

 Normal termination of Gaussian 16 at Wed Apr  9 16:59:17 2025.
