 Gaussian 16, Revision C.01,

 ----------------------------------------------------------------------
 #t hf aug-cc-pvdz symm=none int=(grid=ultrafine) guess=(read,tcheck) s
 table=(opt,rrhf)
 ----------------------------------------------------------------------
 -----
 title
 -----
 Symbolic Z-matrix:
 Charge =  0 Multiplicity = 1

 SCF Done:  E(RHF) =  -323.692929500     A.U. after   17 cycles
 Normal termination of Gaussian 16 at Wed Apr  9 18:29:36 2025.
 Gaussian 16:  ES64L-G16RevC.01  3-Jul-2019

 ----------------------------------------------------------------------
 #t hf aug-cc-pvdz iop(5/13=1,5/36=2,99/5=2) pseudo=read geom=check gue
 ss=(read,tcheck) scf=(maxcycle=1)
 ----------------------------------------------------------------------
 -----
 title
 -----
 Structure from the checkpoint file:  "Grambow2020_wb97xd3_007620_forward_mol1.chk"
 Charge =  0 Multiplicity = 1

                         Standard orientation:
 ---------------------------------------------------------------------
 Center     Atomic      Atomic             Coordinates (Angstroms)
 Number     Number       Type             X           Y           Z
 ---------------------------------------------------------------------
      1          6           0        1.725712    1.358232    0.122968
      2          6           0        1.477098    0.010634   -0.489413
      3          7           0        1.438758   -1.149840    0.402281
      4          6           0        0.228771   -0.751778   -0.311827
      5          6           0       -0.880609   -0.309184    0.575674
      6          6           0       -1.847460    0.932631   -0.231440
      7          8           0       -2.377086   -0.250495   -0.250444
      8          1           0        1.286312    1.428939    1.118257
      9          1           0        2.797395    1.536762    0.227578
     10          1           0        1.300022    2.144679   -0.501900
     11          1           0        1.959617   -0.139720   -1.451659
     12          1           0        1.864063   -1.968569   -0.012515
     13          1           0       -0.109868   -1.360513   -1.143176
     14          1           0       -0.646066    0.486677    1.299734
     15          1           0       -1.301705   -1.115821    1.182848
     16          1           0       -2.425461    1.597209    0.472643
 ---------------------------------------------------------------------

 SCF Done:  E(RHF) =  -324.030011903     A.U. after    2 cycles

 The electronic state is 1-A.
 Alpha  occ. eigenvalues --  -20.60059 -15.50996 -11.33871 -11.29479 -11.28084
 Alpha  occ. eigenvalues --  -11.27480 -11.23104  -1.50244  -1.28524  -1.02088
 Alpha  occ. eigenvalues --   -1.00404  -0.88079  -0.84169  -0.79256  -0.75296
 Alpha  occ. eigenvalues --   -0.68136  -0.63580  -0.62312  -0.59441  -0.57733
 Alpha  occ. eigenvalues --   -0.56450  -0.54063  -0.52236  -0.50216  -0.48737
 Alpha  occ. eigenvalues --   -0.43102  -0.32206
 Alpha virt. eigenvalues --    0.03209   0.04049   0.04235   0.04697   0.05489
 Alpha virt. eigenvalues --    0.05694   0.06422   0.06799   0.09861   0.09971
 Alpha virt. eigenvalues --    0.11400   0.12972   0.13172   0.13567   0.14207

 Mulliken charges:
               1
     1  C   -0.372355
     2  C   -0.419952
     3  N    0.401712
     4  C    0.185558
     5  C   -0.306725
     6  C    0.358634
     7  O   -0.901276
     8  H    0.229130
     9  H    0.158102
    10  H    0.296410
    11  H   -0.169341
    12  H    0.201144
    13  H   -0.147835
    14  H    0.440705
    15  H    0.041022
    16  H    0.005067
 Sum of Mulliken charges =   0.00000

 Dipole moment (field-independent basis, Debye):
    X=              1.3313    Y=             -0.6697    Z=              0.0306  Tot=              1.4906

 Test job not archived.
 1\1\GINC-SE035\SP\RHF\Aug-CC-pVDZ\C5H9N1O1\OHZDE\09-Apr-2025\0\\#t hf
 aug-cc-pvdz iop(5/13=1,5/36=2,99/5=2) pseudo=read geom=check guess=(re
 ad,tcheck) scf=(maxcycle=1)\\title\\0,1\C,0,-1.37296086,-0.06926848,1.
 28765999\C,0,-1.30823618,0.0544107,-0.2067809\N,0,-0.87842998,1.335752
 92,-0.76955552\C,0,-0.04948846,0.14982079,-0.96676676\C,0,1.28982503,0
 .23299492,-0.32365487\C,0,1.81723676,-1.3737918,0.19442824\O,0,2.35799
 146,-0.96664585,-0.91122455\H,0,-0.59392229,0.52250752,1.76887828\H,0,
 -2.33292635,0.29458327,1.6583343\H,0,-1.25446816,-1.11109473,1.5888718

 Normal termination of Gaussian 16 at Wed Apr  9 18:29:42 2025.
