 Gaussian 16, Revision C.01,

 ----------------------------------------------------------------------
 #t hf aug-cc-pvdz symm=none int=(grid=ultrafine) guess=(read,tcheck) s
 table=(opt,rrhf)
 ----------------------------------------------------------------------
 -----
 title
 -----
 Symbolic Z-matrix:
 Charge =  0 Multiplicity = 1

 SCF Done:  E(RHF) =  -306.952995973     A.U. after   15 cycles

 1\1\GINC-SE163\Stability\RHF\Aug-CC-pVDZ\C4H10O2\OHZDE\09-Apr-2025\0\\
 #t hf aug-cc-pvdz symm=none int=(grid=ultrafine) guess=(read,tcheck) s
 table=(opt,rrhf)\\title\\0,1\C,0,1.32290818,0.81008807,-1.50962747\O,0
 ,0.40677781,-0.2898578,-1.62968091\C,0,0.2782699,-1.05788583,-0.515491
 39\C,0,-0.72289885,-1.94269628,-0.35603788\C,0,-1.77574214,0.89547598,
 0.59494422\O,0,-0.92795089,1.72699907,0.86503261\H,0,2.31094521,0.4654
 5149,-1.16417263\H,0,1.4200177,1.23382137,-2.51465023\H,0,0.92815612,1
 .56638959,-0.81891832\H,0,1.33032581,0.48405168,2.90867889\H,0,1.04347

 Normal termination of Gaussian 16 at Wed Apr  9 15:48:57 2025.
 Gaussian 16:  ES64L-G16RevC.01  3-Jul-2019

 ----------------------------------------------------------------------
 #t hf aug-cc-pvdz iop(5/13=1,5/36=2,99/5=2) pseudo=read geom=check gue
 ss=(read,tcheck) scf=(maxcycle=1)
 ----------------------------------------------------------------------
 -----
 title
 -----
 Structure from the checkpoint file:  "Grambow2020_b97d3_006771_reverse_mol2.chk"
 Charge =  0 Multiplicity = 1

                         Standard orientation:
 ---------------------------------------------------------------------
 Center     Atomic      Atomic             Coordinates (Angstroms)
 Number     Number       Type             X           Y           Z
 ---------------------------------------------------------------------
      1          6           0       -1.247562   -1.627868   -0.038819
      2          8           0       -1.389388   -0.262835   -0.463270
      3          6           0       -0.949001    0.666472    0.425688
      4          6           0       -0.747564    1.953683    0.089288
      5          6           0        1.885793    0.338216   -0.634427
      6          8           0        2.031552   -0.738208   -0.083797
      7          1           0       -1.715560   -1.785985    0.946223
      8          1           0       -1.769617   -2.233076   -0.787306
      9          1           0       -0.187667   -1.910596    0.001033
     10          1           0        1.585185   -0.468439    3.164157
     11          1           0       -0.764830    0.304700    1.442198
     12          1           0       -0.925769    2.308763   -0.924434
     13          1           0       -0.441749    2.669415    0.848020
     14          1           0        1.292391    0.453800   -1.567539
     15          1           0        2.356895    1.270962   -0.249899
     16          1           0        1.783418   -0.584215    2.453695
 ---------------------------------------------------------------------

 SCF Done:  E(RHF) =  -307.272680832     A.U. after    2 cycles

 The electronic state is 1-A.
 Alpha  occ. eigenvalues --  -20.57306 -20.55852 -11.35389 -11.31026 -11.29276
 Alpha  occ. eigenvalues --  -11.22888  -1.49250  -1.47692  -1.04004  -0.93294
 Alpha  occ. eigenvalues --   -0.87129  -0.80170  -0.69570  -0.68624  -0.65871
 Alpha  occ. eigenvalues --   -0.65359  -0.64180  -0.58405  -0.57108  -0.55869
 Alpha  occ. eigenvalues --   -0.52925  -0.50969  -0.49467  -0.42940  -0.34727
 Alpha virt. eigenvalues --    0.03594   0.04044   0.04169   0.05136   0.06061
 Alpha virt. eigenvalues --    0.06655   0.07210   0.07597   0.09133   0.10037
 Alpha virt. eigenvalues --    0.10318   0.12414   0.13162   0.13392   0.14094

 Mulliken charges:
               1
     1  C    0.212607
     2  O   -1.465005
     3  C    1.341642
     4  C   -0.148520
     5  C    0.569273
     6  O   -0.835445
     7  H    0.181176
     8  H    0.005000
     9  H    0.188902
    10  H    0.064264
    11  H   -0.115202
    12  H   -0.108646
    13  H   -0.093521
    14  H    0.137344
    15  H    0.135413
    16  H   -0.069281
 Sum of Mulliken charges =  -0.00000

 Dipole moment (field-independent basis, Debye):
    X=             -0.1043    Y=              0.7889    Z=             -0.2184  Tot=              0.8252

 Test job not archived.
 1\1\GINC-SE163\SP\RHF\Aug-CC-pVDZ\C4H10O2\OHZDE\09-Apr-2025\0\\#t hf a
 ug-cc-pvdz iop(5/13=1,5/36=2,99/5=2) pseudo=read geom=check guess=(rea
 d,tcheck) scf=(maxcycle=1)\\title\\0,1\C,0,1.32290818,0.81008807,-1.50
 962747\O,0,0.40677781,-0.2898578,-1.62968091\C,0,0.2782699,-1.05788583
 ,-0.51549139\C,0,-0.72289885,-1.94269628,-0.35603788\C,0,-1.77574214,0
 .89547598,0.59494422\O,0,-0.92795089,1.72699907,0.86503261\H,0,2.31094
 521,0.46545149,-1.16417263\H,0,1.4200177,1.23382137,-2.51465023\H,0,0.
 92815612,1.56638959,-0.81891832\H,0,1.33032581,0.48405168,2.90867889\H

 Normal termination of Gaussian 16 at Wed Apr  9 15:49:02 2025.
