 Gaussian 16, Revision C.01,

 ----------------------------------------------------------------------
 #t hf aug-cc-pvdz symm=none int=(grid=ultrafine) guess=(read,tcheck) s
 table=(opt,rrhf)
 ----------------------------------------------------------------------
 -----
 title
 -----
 Symbolic Z-matrix:
 Charge =  0 Multiplicity = 1

 SCF Done:  E(RHF) =  -353.454041435     A.U. after   15 cycles
 Normal termination of Gaussian 16 at Wed Apr  9 18:39:13 2025.
 Gaussian 16:  ES64L-G16RevC.01  3-Jul-2019

 ----------------------------------------------------------------------
 #t hf aug-cc-pvdz iop(5/13=1,5/36=2,99/5=2) pseudo=read geom=check gue
 ss=(read,tcheck) scf=(maxcycle=1)
 ----------------------------------------------------------------------
 -----
 title
 -----
 Structure from the checkpoint file:  "Grambow2020_wb97xd3_007943_reverse_mol2.chk"
 Charge =  0 Multiplicity = 1

                         Standard orientation:
 ---------------------------------------------------------------------
 Center     Atomic      Atomic             Coordinates (Angstroms)
 Number     Number       Type             X           Y           Z
 ---------------------------------------------------------------------
      1          8           0        1.797109   -0.377101   -0.326457
      2          6           0        0.545919   -0.104656    0.090572
      3          6           0       -0.315410   -1.249042    0.553594
      4          7           0       -1.343405   -0.973083   -0.149385
      5          7           0       -0.653810    0.154008   -0.829136
      6          6           0       -0.743250    1.319807   -0.016020
      7          7           0        0.305154    1.215515    0.711524
      8          1           0        2.250835    0.451811   -0.507627
      9          1           0       -0.184258   -2.079689    1.234994
     10          1           0       -1.522573    2.072942   -0.015614
 ---------------------------------------------------------------------

 SCF Done:  E(RHF) =  -353.805182367     A.U. after    2 cycles

 The electronic state is 1-A.
 Alpha  occ. eigenvalues --  -20.59965 -15.56886 -15.55842 -15.53047 -11.38854
 Alpha  occ. eigenvalues --  -11.34584 -11.31065  -1.53073  -1.41470  -1.27300
 Alpha  occ. eigenvalues --   -1.08842  -0.97358  -0.86736  -0.79957  -0.75986
 Alpha  occ. eigenvalues --   -0.73223  -0.71617  -0.68407  -0.61266  -0.56784
 Alpha  occ. eigenvalues --   -0.55333  -0.50344  -0.48605  -0.47498  -0.45171
 Alpha virt. eigenvalues --    0.03324   0.03988   0.04721   0.05348   0.07967
 Alpha virt. eigenvalues --    0.08576   0.09099   0.10270   0.10880   0.12022
 Alpha virt. eigenvalues --    0.13150   0.14440   0.14847   0.15455   0.16138

 Mulliken charges:
               1
     1  O   -1.448661
     2  C    0.820543
     3  C   -0.116362
     4  N    0.305671
     5  N    0.095397
     6  C   -0.380343
     7  N    0.499738
     8  H    0.226488
     9  H   -0.013734
    10  H    0.011262
 Sum of Mulliken charges =  -0.00000

 Dipole moment (field-independent basis, Debye):
    X=              0.8602    Y=              0.7680    Z=              0.9307  Tot=              1.4818

 Test job not archived.
 1\1\GINC-SE105\SP\RHF\Aug-CC-pVDZ\C3H3N3O1\OHZDE\09-Apr-2025\0\\#t hf
 aug-cc-pvdz iop(5/13=1,5/36=2,99/5=2) pseudo=read geom=check guess=(re
 ad,tcheck) scf=(maxcycle=1)\\title\\0,1\O,0,1.76608624,-0.3033305,0.54
 091923\C,0,0.54550572,-0.05032943,0.03122465\C,0,0.18939439,1.37671055
 ,-0.28914851\N,0,-0.93303206,1.40361694,0.31627586\N,0,-0.75181865,0.0
 2702892,0.84552379\C,0,-1.16518613,-0.91442982,-0.13988338\N,0,-0.0815
 7056,-1.10418071,-0.79495575\H,0,1.88047143,-1.25595405,0.61309417\H,0
 ,0.6688776,2.18331257,-0.82856514\H,0,-2.15517699,-1.32880148,-0.29077

 Normal termination of Gaussian 16 at Wed Apr  9 18:39:17 2025.
