 Gaussian 16, Revision C.01,

 ----------------------------------------------------------------------
 #t hf aug-cc-pvdz symm=none int=(grid=ultrafine) guess=(read,tcheck) s
 table=(opt,rrhf)
 ----------------------------------------------------------------------
 -----
 title
 -----
 Symbolic Z-matrix:
 Charge =  0 Multiplicity = 1

 SCF Done:  E(RHF) =  -305.356452878     A.U. after   17 cycles
 Normal termination of Gaussian 16 at Wed Apr  9 03:53:38 2025.
 Gaussian 16:  ES64L-G16RevC.01  3-Jul-2019

 ----------------------------------------------------------------------
 #t hf aug-cc-pvdz iop(5/13=1,5/36=2,99/5=2) pseudo=read geom=check gue
 ss=(read,tcheck) scf=(maxcycle=1)
 ----------------------------------------------------------------------
 -----
 title
 -----
 Structure from the checkpoint file:  "Grambow2020_wb97xd3_008342_reverse_mol1.chk"
 Charge =  0 Multiplicity = 1

                         Standard orientation:
 ---------------------------------------------------------------------
 Center     Atomic      Atomic             Coordinates (Angstroms)
 Number     Number       Type             X           Y           Z
 ---------------------------------------------------------------------
      1          8           0       -0.179545    1.473624    0.323741
      2          6           0        0.468602    0.444544    0.710551
      3          6           0       -0.617109   -1.300820    0.543693
      4          6           0       -1.582406   -0.737892   -0.228894
      5          6           0       -2.115968    0.247954   -0.779530
      6          6           0        1.635120    0.033402   -0.062981
      7          6           0        2.603380   -0.291384   -0.689039
      8          1           0       -1.214357    1.074259   -0.356733
      9          1           0        0.561990    0.283257    1.787188
     10          1           0       -0.879590   -1.557573    1.565038
     11          1           0        0.108711   -1.953629    0.073996
     12          1           0       -2.955830    0.554538   -1.371954
     13          1           0        3.465716   -0.564666   -1.250273
 ---------------------------------------------------------------------

 SCF Done:  E(RHF) =  -305.668368708     A.U. after    2 cycles

 The electronic state is 1-A.
 Alpha  occ. eigenvalues --  -20.53126 -11.36348 -11.29261 -11.26935 -11.25441
 Alpha  occ. eigenvalues --  -11.25072 -11.24928  -1.45883  -1.10944  -1.05904
 Alpha  occ. eigenvalues --   -0.98619  -0.90919  -0.74796  -0.73893  -0.70337
 Alpha  occ. eigenvalues --   -0.68607  -0.65340  -0.62903  -0.62497  -0.47477
 Alpha  occ. eigenvalues --   -0.44422  -0.42404  -0.41366  -0.40756  -0.37582
 Alpha virt. eigenvalues --    0.03284   0.03579   0.03782   0.04954   0.05666
 Alpha virt. eigenvalues --    0.06679   0.07748   0.08689   0.09652   0.11104
 Alpha virt. eigenvalues --    0.11599   0.12189   0.13079   0.13840   0.14133

 Mulliken charges:
               1
     1  O   -1.587874
     2  C    0.878840
     3  C   -0.362422
     4  C    0.359513
     5  C   -0.299955
     6  C    0.106415
     7  C    0.415521
     8  H    0.736354
     9  H    0.192650
    10  H    0.070550
    11  H    0.130517
    12  H   -0.233287
    13  H   -0.406822
 Sum of Mulliken charges =  -0.00000

 Dipole moment (field-independent basis, Debye):
    X=             -0.1379    Y=             -2.2638    Z=              0.0523  Tot=              2.2686

 Test job not archived.
 1\1\GINC-SE322\SP\RHF\Aug-CC-pVDZ\C6H6O1\OHZDE\09-Apr-2025\0\\#t hf au
 g-cc-pvdz iop(5/13=1,5/36=2,99/5=2) pseudo=read geom=check guess=(read
 ,tcheck) scf=(maxcycle=1)\\title\\0,1\O,0,-0.22782457,0.23314149,1.650
 58485\C,0,0.37318604,-0.54437304,0.83634963\C,0,-0.61186888,-0.7417519
 1,-0.96465334\C,0,-1.44248107,0.30808905,-0.73336511\C,0,-1.90051623,1
 .20829117,0.00122327\C,0,1.66999689,-0.12717003,0.31445221\C,0,2.74307
 445,0.20905743,-0.09836541\H,0,-1.11351317,0.91688108,0.98618322\H,0,0
 .2799874,-1.61990702,1.00493723\H,0,-1.04248533,-1.73749027,-0.9324309

 Normal termination of Gaussian 16 at Wed Apr  9 03:53:42 2025.
