 Gaussian 16, Revision C.01,

 ----------------------------------------------------------------------
 #t hf aug-cc-pvdz symm=none int=(grid=ultrafine) guess=(read,tcheck) s
 table=(opt,rrhf)
 ----------------------------------------------------------------------
 -----
 title
 -----
 Symbolic Z-matrix:
 Charge =  0 Multiplicity = 1

 SCF Done:  E(RHF) =  -305.876661901     A.U. after   12 cycles
 Normal termination of Gaussian 16 at Wed Apr  9 17:12:18 2025.
 Gaussian 16:  ES64L-G16RevC.01  3-Jul-2019

 ----------------------------------------------------------------------
 #t hf aug-cc-pvdz iop(5/13=1,5/36=2,99/5=2) pseudo=read geom=check gue
 ss=(read,tcheck) scf=(maxcycle=1)
 ----------------------------------------------------------------------
 -----
 title
 -----
 Structure from the checkpoint file:  "Grambow2020_wb97xd3_006280_forward_mol2.chk"
 Charge =  0 Multiplicity = 1

                         Standard orientation:
 ---------------------------------------------------------------------
 Center     Atomic      Atomic             Coordinates (Angstroms)
 Number     Number       Type             X           Y           Z
 ---------------------------------------------------------------------
      1          6           0        2.102932   -0.076807   -0.156646
      2          6           0        0.700247   -0.037195    0.394411
      3          6           0       -0.128970    1.190656    0.005908
      4          8           0       -1.444958    0.689145   -0.161973
      5          6           0       -1.393965   -0.705308    0.040159
      6          8           0       -0.069666   -1.097249   -0.152853
      7          1           0        2.690066    0.753969    0.239414
      8          1           0        2.597476   -1.007896    0.120442
      9          1           0        2.082419   -0.003955   -1.245203
     10          1           0        0.716827   -0.138565    1.489672
     11          1           0       -0.116694    1.964511    0.777554
     12          1           0        0.216672    1.621226   -0.939596
     13          1           0       -1.724570   -0.942525    1.064401
     14          1           0       -2.026679   -1.210012   -0.691066
 ---------------------------------------------------------------------

 SCF Done:  E(RHF) =  -306.194521391     A.U. after    2 cycles

 The electronic state is 1-A.
 Alpha  occ. eigenvalues --  -20.55415 -20.54750 -11.33427 -11.29477 -11.28694
 Alpha  occ. eigenvalues --  -11.23491  -1.52959  -1.42634  -1.06969  -0.95213
 Alpha  occ. eigenvalues --   -0.87497  -0.82677  -0.72341  -0.69788  -0.65769
 Alpha  occ. eigenvalues --   -0.61670  -0.58842  -0.58374  -0.54809  -0.54025
 Alpha  occ. eigenvalues --   -0.50619  -0.48505  -0.43682  -0.41581
 Alpha virt. eigenvalues --    0.03614   0.04065   0.04444   0.04484   0.06436
 Alpha virt. eigenvalues --    0.06749   0.06910   0.07734   0.09807   0.13141
 Alpha virt. eigenvalues --    0.13344   0.14383   0.14721   0.15080   0.15806

 Mulliken charges:
               1
     1  C   -0.425440
     2  C    0.286253
     3  C    0.810070
     4  O   -1.297583
     5  C    1.061644
     6  O   -1.402969
     7  H    0.224444
     8  H    0.164202
     9  H    0.220016
    10  H    0.055072
    11  H    0.100931
    12  H    0.056482
    13  H    0.139750
    14  H    0.007127
 Sum of Mulliken charges =  -0.00000

 Dipole moment (field-independent basis, Debye):
    X=              1.2104    Y=              0.4531    Z=              0.9095  Tot=              1.5803

 Test job not archived.
 1\1\GINC-SE220\SP\RHF\Aug-CC-pVDZ\C4H8O2\OHZDE\09-Apr-2025\0\\#t hf au
 g-cc-pvdz iop(5/13=1,5/36=2,99/5=2) pseudo=read geom=check guess=(read
 ,tcheck) scf=(maxcycle=1)\\title\\0,1\C,0,-1.77296583,0.014588,0.41696
 843\C,0,-0.26613835,0.01248803,0.46415316\C,0,0.42149803,-1.05016729,-
 0.39844447\O,0,1.58812909,-0.40797398,-0.8863808\C,0,1.56510082,0.9216
 0011,-0.41770293\O,0,0.24164218,1.21628625,-0.09173087\H,0,-2.16666794
 ,-0.92179748,0.81691652\H,0,-2.17393752,0.83578235,1.01122445\H,0,-2.1
 176665,0.12866002,-0.61203768\H,0,0.0836405,-0.07436601,1.50350805\H,0

 Normal termination of Gaussian 16 at Wed Apr  9 17:12:22 2025.
