 Gaussian 16, Revision C.01,

 ----------------------------------------------------------------------
 #t hf aug-cc-pvdz symm=none int=(grid=ultrafine) guess=(read,tcheck) s
 table=(opt,rrhf)
 ----------------------------------------------------------------------
 -----
 title
 -----
 Symbolic Z-matrix:
 Charge =  0 Multiplicity = 1

 SCF Done:  E(RHF) =  -305.755830783     A.U. after   14 cycles
 Normal termination of Gaussian 16 at Wed Apr  9 16:01:52 2025.
 Gaussian 16:  ES64L-G16RevC.01  3-Jul-2019

 ----------------------------------------------------------------------
 #t hf aug-cc-pvdz iop(5/13=1,5/36=2,99/5=2) pseudo=read geom=check gue
 ss=(read,tcheck) scf=(maxcycle=1)
 ----------------------------------------------------------------------
 -----
 title
 -----
 Structure from the checkpoint file:  "Grambow2020_b97d3_007090_reverse_mol1.chk"
 Charge =  0 Multiplicity = 1

                         Standard orientation:
 ---------------------------------------------------------------------
 Center     Atomic      Atomic             Coordinates (Angstroms)
 Number     Number       Type             X           Y           Z
 ---------------------------------------------------------------------
      1          6           0        0.887977    1.453545   -0.258982
      2          6           0        0.675480    0.044508    0.281079
      3          6           0        1.927485   -0.819755    0.264532
      4          8           0       -0.301581   -0.669470   -0.606998
      5          6           0       -1.592241   -0.511002   -0.388654
      6          8           0       -1.999065    0.283739    0.583916
      7          1           0        1.649367    1.970595    0.342576
      8          1           0        1.237113    1.414804   -1.299702
      9          1           0       -0.042146    2.031389   -0.214461
     10          1           0        0.235180    0.079645    1.284689
     11          1           0        1.710803   -1.831907    0.629218
     12          1           0        2.693800   -0.372522    0.913071
     13          1           0        2.333730   -0.893901   -0.753213
     14          1           0       -2.804883   -0.316035   -0.105366
 ---------------------------------------------------------------------

 SCF Done:  E(RHF) =  -306.070055639     A.U. after    2 cycles

 The electronic state is 1-A.
 Alpha  occ. eigenvalues --  -20.59943 -20.57538 -11.37479 -11.31316 -11.24203
 Alpha  occ. eigenvalues --  -11.23945  -1.54243  -1.46232  -1.07821  -0.95361
 Alpha  occ. eigenvalues --   -0.85887  -0.78439  -0.75229  -0.67205  -0.65044
 Alpha  occ. eigenvalues --   -0.61633  -0.56919  -0.56824  -0.55754  -0.53033
 Alpha  occ. eigenvalues --   -0.51926  -0.49870  -0.46837  -0.37444
 Alpha virt. eigenvalues --    0.03664   0.04231   0.04418   0.04473   0.06370
 Alpha virt. eigenvalues --    0.07180   0.07384   0.07671   0.10345   0.11349
 Alpha virt. eigenvalues --    0.13039   0.14231   0.14378   0.14886   0.15642

 Mulliken charges:
               1
     1  C   -0.278799
     2  C    0.001682
     3  C   -0.315308
     4  O   -1.052914
     5  C    0.607396
     6  O   -1.064056
     7  H    0.210561
     8  H    0.247809
     9  H    0.119226
    10  H    0.200894
    11  H    0.173998
    12  H    0.220329
    13  H    0.202402
    14  H    0.726782
 Sum of Mulliken charges =  -0.00000

 Dipole moment (field-independent basis, Debye):
    X=              1.5634    Y=              0.4964    Z=              0.5602  Tot=              1.7333

 Test job not archived.
 1\1\GINC-SE009\SP\RHF\Aug-CC-pVDZ\C4H8O2\OHZDE\09-Apr-2025\0\\#t hf au
 g-cc-pvdz iop(5/13=1,5/36=2,99/5=2) pseudo=read geom=check guess=(read
 ,tcheck) scf=(maxcycle=1)\\title\\0,1\C,0,0.23438468,1.39987288,0.0328
 106\C,0,-0.25582805,-0.02449192,-0.19758078\C,0,-1.7339819,-0.22598309
 ,0.10108972\O,0,0.46095424,-0.94005792,0.75165812\C,0,1.64422513,-1.41
 051078,0.40941224\O,0,2.18307202,-1.05304494,-0.74161924\H,0,-0.325978
 47,2.0937283,-0.61021764\H,0,0.07577519,1.69355504,1.07927572\H,0,1.30
 02865,1.48768424,-0.20626696\H,0,-0.0113089,-0.35571746,-1.2138643\H,0

 Normal termination of Gaussian 16 at Wed Apr  9 16:01:56 2025.
