 Gaussian 16, Revision C.01,

 ----------------------------------------------------------------------
 #t hf aug-cc-pvdz symm=none int=(grid=ultrafine) guess=(read,tcheck) s
 table=(opt,rrhf)
 ----------------------------------------------------------------------
 -----
 title
 -----
 Symbolic Z-matrix:
 Charge =  0 Multiplicity = 1

 SCF Done:  E(RHF) =  -358.381092447     A.U. after   15 cycles
 Normal termination of Gaussian 16 at Wed Apr  9 03:34:06 2025.
 Gaussian 16:  ES64L-G16RevC.01  3-Jul-2019

 ----------------------------------------------------------------------
 #t hf aug-cc-pvdz iop(5/13=1,5/36=2,99/5=2) pseudo=read geom=check gue
 ss=(read,tcheck) scf=(maxcycle=1)
 ----------------------------------------------------------------------
 -----
 title
 -----
 Structure from the checkpoint file:  "Grambow2020_wb97xd3_007064_reverse_mol1.chk"
 Charge =  0 Multiplicity = 1

                         Standard orientation:
 ---------------------------------------------------------------------
 Center     Atomic      Atomic             Coordinates (Angstroms)
 Number     Number       Type             X           Y           Z
 ---------------------------------------------------------------------
      1          8           0       -2.214812   -0.232987    0.036187
      2          6           0       -1.041694    0.036414   -0.042956
      3          7           0       -0.471691    1.278935    0.083853
      4          6           0        0.915003    1.149623   -0.161092
      5          6           0        1.305982   -0.289610   -0.418287
      6          8           0        0.994974   -1.091310    0.699954
      7          6           0        0.035721   -1.004403   -0.354379
      8          1           0        0.743507    1.446926    1.073643
      9          1           0        1.655896    1.377602    0.954861
     10          1           0        1.381903    1.943610   -0.746713
     11          1           0        2.172230   -0.558120   -1.009994
     12          1           0       -0.183062   -1.920322   -0.887606
 ---------------------------------------------------------------------

 SCF Done:  E(RHF) =  -358.739315398     A.U. after    2 cycles

 The electronic state is 1-A.
 Alpha  occ. eigenvalues --  -20.60817 -20.50074 -15.48093 -11.38945 -11.34571
 Alpha  occ. eigenvalues --  -11.34406 -11.32723  -1.55522  -1.44803  -1.26511
 Alpha  occ. eigenvalues --   -1.03875  -1.00498  -0.88836  -0.80725  -0.76535
 Alpha  occ. eigenvalues --   -0.74541  -0.68998  -0.64860  -0.61185  -0.59642
 Alpha  occ. eigenvalues --   -0.55438  -0.52926  -0.49364  -0.47149  -0.39799
 Alpha  occ. eigenvalues --   -0.38992
 Alpha virt. eigenvalues --    0.01452   0.02716   0.03671   0.04165   0.05974
 Alpha virt. eigenvalues --    0.08754   0.09294   0.10166   0.10696   0.11270
 Alpha virt. eigenvalues --    0.11761   0.13465   0.13623   0.14403   0.14964

 Mulliken charges:
               1
     1  O   -1.236351
     2  C    0.451121
     3  N    0.506197
     4  C   -1.097198
     5  C    1.144450
     6  O   -1.302621
     7  C    0.644518
     8  H    0.576423
     9  H    0.295209
    10  H    0.038255
    11  H    0.006811
    12  H   -0.026814
 Sum of Mulliken charges =  -0.00000

 Dipole moment (field-independent basis, Debye):
    X=              7.5294    Y=              0.7255    Z=             -1.2603  Tot=              7.6685

 Test job not archived.
 1\1\GINC-SE365\SP\RHF\Aug-CC-pVDZ\C4H5N1O2\OHZDE\09-Apr-2025\0\\#t hf
 aug-cc-pvdz iop(5/13=1,5/36=2,99/5=2) pseudo=read geom=check guess=(re
 ad,tcheck) scf=(maxcycle=1)\\title\\0,1\O,0,0.80942542,2.51751027,0.47
 769235\C,0,0.50356509,1.38652247,0.19070181\N,0,1.3000712,0.44644372,-
 0.4148348\C,0,0.51749191,-0.71014996,-0.63732301\C,0,-0.88610681,-0.54
 894835,-0.09480073\O,0,-0.85243385,-0.31932147,1.2966198\C,0,-0.895079
 43,0.81319405,0.42775505\H,0,1.40638057,-0.9810153,0.24521938\H,0,0.92
 391528,-1.75839438,0.12573196\H,0,0.66756651,-1.22372586,-1.58867916\H

 Normal termination of Gaussian 16 at Wed Apr  9 03:34:10 2025.
