 Gaussian 16, Revision C.01,

 ----------------------------------------------------------------------
 #t hf aug-cc-pvdz symm=none int=(grid=ultrafine) guess=(read,tcheck) s
 table=(opt,rrhf)
 ----------------------------------------------------------------------
 -----
 title
 -----
 Symbolic Z-matrix:
 Charge =  0 Multiplicity = 1

 SCF Done:  E(RHF) =  -360.890687819     A.U. after   13 cycles
 Normal termination of Gaussian 16 at Wed Apr  9 17:40:38 2025.
 Gaussian 16:  ES64L-G16RevC.01  3-Jul-2019

 ----------------------------------------------------------------------
 #t hf aug-cc-pvdz iop(5/13=1,5/36=2,99/5=2) pseudo=read geom=check gue
 ss=(read,tcheck) scf=(maxcycle=1)
 ----------------------------------------------------------------------
 -----
 title
 -----
 Structure from the checkpoint file:  "Grambow2020_wb97xd3_006760_reverse_mol2.chk"
 Charge =  0 Multiplicity = 1

                         Standard orientation:
 ---------------------------------------------------------------------
 Center     Atomic      Atomic             Coordinates (Angstroms)
 Number     Number       Type             X           Y           Z
 ---------------------------------------------------------------------
      1          6           0       -2.496005   -1.174610   -0.001634
      2          7           0       -1.345543   -0.306338    0.001894
      3          6           0       -1.415365    1.034483    0.000088
      4          8           0       -0.458774    1.784044   -0.001391
      5          6           0        2.203259   -0.022187    0.731205
      6          6           0        2.215546   -0.018519   -0.724531
      7          8           0        1.503691   -1.023207   -0.005393
      8          1           0       -2.518107   -1.804527   -0.893698
      9          1           0       -2.510704   -1.819637    0.879549
     10          1           0       -3.403274   -0.569248    0.008037
     11          1           0       -2.454411    1.414771    0.000208
     12          1           0        1.567740    0.696200    1.238301
     13          1           0        3.066201   -0.388777    1.277426
     14          1           0        1.589043    0.702709   -1.238978
     15          1           0        3.087633   -0.381598   -1.258400
     16          1           0       -0.409264   -0.707220   -0.002191
 ---------------------------------------------------------------------

 SCF Done:  E(RHF) =  -361.263074105     A.U. after    2 cycles

 The electronic state is 1-A.
 Alpha  occ. eigenvalues --  -20.56354 -20.50309 -15.51605 -11.34981 -11.28814
 Alpha  occ. eigenvalues --  -11.28726 -11.27891  -1.50015  -1.45150  -1.23950
 Alpha  occ. eigenvalues --   -0.97302  -0.94774  -0.86117  -0.85916  -0.71773
 Alpha  occ. eigenvalues --   -0.70341  -0.69090  -0.66879  -0.64207  -0.59679
 Alpha  occ. eigenvalues --   -0.57131  -0.55139  -0.55010  -0.53796  -0.45862
 Alpha  occ. eigenvalues --   -0.44798  -0.42175  -0.40692
 Alpha virt. eigenvalues --    0.03475   0.04136   0.04609   0.04965   0.05795
 Alpha virt. eigenvalues --    0.05971   0.06872   0.07856   0.09329   0.10450
 Alpha virt. eigenvalues --    0.11678   0.12611   0.12907   0.13741   0.15193

 Mulliken charges:
               1
     1  C   -0.371894
     2  N    0.674106
     3  C    0.409300
     4  O   -1.089963
     5  C    0.562462
     6  C    0.557259
     7  O   -1.189390
     8  H    0.143526
     9  H    0.142163
    10  H    0.058259
    11  H    0.046591
    12  H    0.022110
    13  H   -0.025480
    14  H    0.020584
    15  H   -0.024661
    16  H    0.065028
 Sum of Mulliken charges =  -0.00000

 Dipole moment (field-independent basis, Debye):
    X=             -0.9921    Y=             -1.6896    Z=              0.0069  Tot=              1.9594

 Test job not archived.
 1\1\GINC-SE103\SP\RHF\Aug-CC-pVDZ\C4H9N1O2\OHZDE\09-Apr-2025\0\\#t hf
 aug-cc-pvdz iop(5/13=1,5/36=2,99/5=2) pseudo=read geom=check guess=(re
 ad,tcheck) scf=(maxcycle=1)\\title\\0,1\C,0,2.25394593,-0.37913334,-1.
 34162019\N,0,1.20150043,-0.00600486,-0.43024448\C,0,1.40089817,0.67010
 574,0.71246905\O,0,0.52902779,0.99041971,1.49614676\C,0,-2.36538452,0.
 56188625,-0.02842618\C,0,-2.1990001,-0.69285556,0.69078883\O,0,-1.6814
 6916,-0.53629108,-0.62865962\H,0,2.32378064,-1.46393817,-1.4483216\H,0
 ,2.09797725,0.05784296,-2.33029861\H,0,3.20767799,-0.0144772,-0.958066

 Normal termination of Gaussian 16 at Wed Apr  9 17:40:44 2025.
