 Gaussian 16, Revision C.01,

 ----------------------------------------------------------------------
 #t hf aug-cc-pvdz symm=none int=(grid=ultrafine) guess=(read,tcheck) s
 table=(opt,rrhf)
 ----------------------------------------------------------------------
 -----
 title
 -----
 Symbolic Z-matrix:
 Charge =  0 Multiplicity = 1

 SCF Done:  E(RHF) =  -344.646645345     A.U. after   16 cycles

 1\1\GINC-SE339\Stability\RHF\Aug-CC-pVDZ\C5H10O2\OHZDE\09-Apr-2025\0\\
 #t hf aug-cc-pvdz symm=none int=(grid=ultrafine) guess=(read,tcheck) s
 table=(opt,rrhf)\\title\\0,1\C,0,1.37459332,1.41757554,0.05086025\O,0,
 0.22387244,0.75114953,-0.47732062\C,0,0.29053095,-0.75964199,-0.747959
 01\C,0,0.42227184,-1.61441116,0.50461499\O,0,-0.95575298,-1.98624452,0
 .44445758\C,0,-1.08615817,-1.17934054,-0.75328299\C,0,-1.42816663,1.06
 58789,0.17298161\H,0,1.71240703,0.948394,0.97834571\H,0,2.17672439,1.4
 0176174,-0.68758067\H,0,1.09793842,2.45257419,0.24501291\H,0,0.9953800

 Normal termination of Gaussian 16 at Wed Apr  9 03:27:38 2025.
 Gaussian 16:  ES64L-G16RevC.01  3-Jul-2019

 ----------------------------------------------------------------------
 #t hf aug-cc-pvdz iop(5/13=1,5/36=2,99/5=2) pseudo=read geom=check gue
 ss=(read,tcheck) scf=(maxcycle=1)
 ----------------------------------------------------------------------
 -----
 title
 -----
 Structure from the checkpoint file:  "Grambow2020_wb97xd3_006658_reverse_mol1.chk"
 Charge =  0 Multiplicity = 1

                         Standard orientation:
 ---------------------------------------------------------------------
 Center     Atomic      Atomic             Coordinates (Angstroms)
 Number     Number       Type             X           Y           Z
 ---------------------------------------------------------------------
      1          6           0       -2.099486   -0.793473   -0.148156
      2          8           0       -1.070647    0.061495    0.359562
      3          6           0        0.301201   -0.538460    0.703458
      4          6           0        1.081276   -1.046995   -0.500620
      5          8           0        1.932988    0.099798   -0.483780
      6          6           0        1.198402    0.586357    0.667882
      7          6           0       -0.736419    1.673065   -0.376858
      8          1           0       -1.762568   -1.333105   -1.036842
      9          1           0       -2.400667   -1.501143    0.624795
     10          1           0       -2.953932   -0.168481   -0.402642
     11          1           0        0.091370   -1.173568    1.561897
     12          1           0        0.532283   -1.155558   -1.442289
     13          1           0        1.642776   -1.962634   -0.296411
     14          1           0        1.801024    0.969413    1.485665
     15          1           0       -0.571311    2.462840    0.339541
     16          1           0        0.010928    1.622061   -1.158156
     17          1           0       -1.758473    1.666876   -0.756050
 ---------------------------------------------------------------------

 SCF Done:  E(RHF) =  -345.005372883     A.U. after    2 cycles

 The electronic state is 1-A.
 Alpha  occ. eigenvalues --  -20.60090 -20.50203 -11.32752 -11.30811 -11.27904
 Alpha  occ. eigenvalues --  -11.27583 -11.19537  -1.48858  -1.42701  -1.02463
 Alpha  occ. eigenvalues --   -0.97604  -0.92770  -0.88655  -0.74411  -0.70599
 Alpha  occ. eigenvalues --   -0.67041  -0.66292  -0.64632  -0.61001  -0.59770
 Alpha  occ. eigenvalues --   -0.58920  -0.56292  -0.51639  -0.49518  -0.47332
 Alpha  occ. eigenvalues --   -0.43914  -0.42518  -0.22803
 Alpha virt. eigenvalues --    0.02660   0.03498   0.03950   0.04592   0.05976
 Alpha virt. eigenvalues --    0.06059   0.06658   0.07308   0.07737   0.09189
 Alpha virt. eigenvalues --    0.11490   0.12357   0.12714   0.13477   0.13948

 Mulliken charges:
               1
     1  C    0.222163
     2  O   -1.154074
     3  C    0.729403
     4  C    0.512361
     5  O   -1.384084
     6  C    0.716476
     7  C   -0.051290
     8  H    0.209571
     9  H    0.074691
    10  H    0.025963
    11  H   -0.183520
    12  H    0.059586
    13  H    0.032977
    14  H   -0.237276
    15  H    0.159568
    16  H    0.321943
    17  H   -0.054460
 Sum of Mulliken charges =  -0.00000

 Dipole moment (field-independent basis, Debye):
    X=             -4.8430    Y=             -1.1431    Z=             -0.4666  Tot=              4.9979

 Test job not archived.
 1\1\GINC-SE339\SP\RHF\Aug-CC-pVDZ\C5H10O2\OHZDE\09-Apr-2025\0\\#t hf a
 ug-cc-pvdz iop(5/13=1,5/36=2,99/5=2) pseudo=read geom=check guess=(rea
 d,tcheck) scf=(maxcycle=1)\\title\\0,1\C,0,1.37459332,1.41757554,0.050
 86025\O,0,0.22387244,0.75114953,-0.47732062\C,0,0.29053095,-0.75964199
 ,-0.74795901\C,0,0.42227184,-1.61441116,0.50461499\O,0,-0.95575298,-1.
 98624452,0.44445758\C,0,-1.08615817,-1.17934054,-0.75328299\C,0,-1.428
 16663,1.0658789,0.17298161\H,0,1.71240703,0.948394,0.97834571\H,0,2.17
 672439,1.40176174,-0.68758067\H,0,1.09793842,2.45257419,0.24501291\H,0

 Normal termination of Gaussian 16 at Wed Apr  9 03:27:44 2025.
