 Gaussian 16, Revision C.01,

 ----------------------------------------------------------------------
 #t hf aug-cc-pvdz symm=none int=(grid=ultrafine) guess=(read,tcheck) s
 table=(opt,rrhf)
 ----------------------------------------------------------------------
 -----
 title
 -----
 Symbolic Z-matrix:
 Charge =  0 Multiplicity = 1

 SCF Done:  E(RHF) =  -270.021598605     A.U. after   13 cycles

 1\1\GINC-SE116\Stability\RHF\Aug-CC-pVDZ\C5H10O1\OHZDE\09-Apr-2025\0\\
 #t hf aug-cc-pvdz symm=none int=(grid=ultrafine) guess=(read,tcheck) s
 table=(opt,rrhf)\\title\\0,1\C,0,-2.39549983,0.72844546,0.15679917\C,0
 ,-1.12671875,-0.04246841,-0.2308171\C,0,0.08705402,0.88084498,-0.33937
 803\C,0,2.80892349,-1.48477214,-0.02602079\C,0,1.88479107,-0.54718611,
 0.23440142\O,0,1.27492793,0.18425335,-0.743817\H,0,-3.25925916,0.05411
 655,0.22952942\H,0,-2.27631578,1.22753558,1.12999569\H,0,-2.63426705,1
 .50100237,-0.58895911\H,0,-0.91585104,-0.82447335,0.51482295\H,0,-1.26

 Normal termination of Gaussian 16 at Wed Apr  9 03:09:33 2025.
 Gaussian 16:  ES64L-G16RevC.01  3-Jul-2019

 ----------------------------------------------------------------------
 #t hf aug-cc-pvdz iop(5/13=1,5/36=2,99/5=2) pseudo=read geom=check gue
 ss=(read,tcheck) scf=(maxcycle=1)
 ----------------------------------------------------------------------
 -----
 title
 -----
 Structure from the checkpoint file:  "Grambow2020_b97d3_006642_reverse_mol2.chk"
 Charge =  0 Multiplicity = 1

                         Standard orientation:
 ---------------------------------------------------------------------
 Center     Atomic      Atomic             Coordinates (Angstroms)
 Number     Number       Type             X           Y           Z
 ---------------------------------------------------------------------
      1          6           0       -2.811172   -0.360787    0.099167
      2          6           0       -1.347459   -0.414089   -0.358066
      3          6           0       -0.538614    0.761520    0.190797
      4          6           0        2.841456   -0.496538   -0.117952
      5          6           0        1.642290   -0.140001    0.367630
      6          8           0        0.823288    0.752573   -0.261969
      7          1           0       -3.380603   -1.209259   -0.303242
      8          1           0       -2.887026   -0.395602    1.196182
      9          1           0       -3.300248    0.563798   -0.241357
     10          1           0       -0.881120   -1.354801   -0.027060
     11          1           0       -1.286398   -0.399890   -1.456267
     12          1           0       -0.952931    1.714780   -0.162662
     13          1           0       -0.568429    0.766587    1.295272
     14          1           0        3.204366   -0.113690   -1.070118
     15          1           0        3.478735   -1.167233    0.452874
     16          1           0        1.268348   -0.525901    1.322678
 ---------------------------------------------------------------------

 SCF Done:  E(RHF) =  -270.309932183     A.U. after    2 cycles

 The electronic state is 1-A.
 Alpha  occ. eigenvalues --  -20.56498 -11.30066 -11.29596 -11.23880 -11.23696
 Alpha  occ. eigenvalues --  -11.22103  -1.48494  -1.07064  -1.01964  -0.92327
 Alpha  occ. eigenvalues --   -0.82824  -0.79168  -0.68941  -0.66940  -0.62367
 Alpha  occ. eigenvalues --   -0.61628  -0.58617  -0.54918  -0.54350  -0.51756
 Alpha  occ. eigenvalues --   -0.50245  -0.48256  -0.47674  -0.33886
 Alpha virt. eigenvalues --    0.03502   0.03848   0.04014   0.04518   0.05861
 Alpha virt. eigenvalues --    0.06004   0.06978   0.07294   0.08257   0.08886
 Alpha virt. eigenvalues --    0.11301   0.12472   0.13521   0.14421   0.14846

 Mulliken charges:
               1
     1  C   -0.411893
     2  C   -0.499737
     3  C    0.607674
     4  C   -0.188961
     5  C    1.219535
     6  O   -1.471494
     7  H    0.131504
     8  H    0.169594
     9  H    0.188182
    10  H    0.154301
    11  H    0.173589
    12  H   -0.006806
    13  H    0.229103
    14  H   -0.105167
    15  H   -0.059405
    16  H   -0.130017
 Sum of Mulliken charges =  -0.00000

 Dipole moment (field-independent basis, Debye):
    X=             -1.6904    Y=             -0.4979    Z=              0.8776  Tot=              1.9686

 Test job not archived.
 1\1\GINC-SE116\SP\RHF\Aug-CC-pVDZ\C5H10O1\OHZDE\09-Apr-2025\0\\#t hf a
 ug-cc-pvdz iop(5/13=1,5/36=2,99/5=2) pseudo=read geom=check guess=(rea
 d,tcheck) scf=(maxcycle=1)\\title\\0,1\C,0,-2.39549983,0.72844546,0.15
 679917\C,0,-1.12671875,-0.04246841,-0.2308171\C,0,0.08705402,0.8808449
 8,-0.33937803\C,0,2.80892349,-1.48477214,-0.02602079\C,0,1.88479107,-0
 .54718611,0.23440142\O,0,1.27492793,0.18425335,-0.743817\H,0,-3.259259
 16,0.05411655,0.22952942\H,0,-2.27631578,1.22753558,1.12999569\H,0,-2.
 63426705,1.50100237,-0.58895911\H,0,-0.91585104,-0.82447335,0.51482295

 Normal termination of Gaussian 16 at Wed Apr  9 03:09:37 2025.
