 Gaussian 16, Revision C.01,

 ----------------------------------------------------------------------
 #t hf aug-cc-pvdz symm=none int=(grid=ultrafine) guess=(read,tcheck) s
 table=(opt,rrhf)
 ----------------------------------------------------------------------
 -----
 title
 -----
 Symbolic Z-matrix:
 Charge =  0 Multiplicity = 1

 SCF Done:  E(RHF) =  -323.876775235     A.U. after   14 cycles
 Normal termination of Gaussian 16 at Wed Apr  9 18:05:16 2025.
 Gaussian 16:  ES64L-G16RevC.01  3-Jul-2019

 ----------------------------------------------------------------------
 #t hf aug-cc-pvdz iop(5/13=1,5/36=2,99/5=2) pseudo=read geom=check gue
 ss=(read,tcheck) scf=(maxcycle=1)
 ----------------------------------------------------------------------
 -----
 title
 -----
 Structure from the checkpoint file:  "Grambow2020_wb97xd3_006968_reverse_mol2.chk"
 Charge =  0 Multiplicity = 1

                         Standard orientation:
 ---------------------------------------------------------------------
 Center     Atomic      Atomic             Coordinates (Angstroms)
 Number     Number       Type             X           Y           Z
 ---------------------------------------------------------------------
      1          6           0        3.107737    0.818329   -0.537047
      2          6           0        2.351693    0.069004    0.558871
      3          6           0        0.963278   -0.290970    0.125916
      4          8           0        0.498418   -1.401699    0.166480
      5          6           0       -2.932713    1.357509    0.236348
      6          6           0       -2.625508    0.130124   -0.101602
      7          7           0       -2.420319   -1.015397   -0.443094
      8          1           0        2.560903    1.706233   -0.861696
      9          1           0        4.083193    1.143083   -0.175802
     10          1           0        3.267078    0.183509   -1.410040
     11          1           0        2.246479    0.715132    1.438183
     12          1           0        2.870456   -0.838727    0.868476
     13          1           0        0.349896    0.553253   -0.253145
     14          1           0       -1.474841   -1.372474   -0.277481
     15          1           0       -2.810768    2.161470   -0.474655
     16          1           0       -3.324437    1.565915    1.221055
 ---------------------------------------------------------------------

 SCF Done:  E(RHF) =  -324.215546321     A.U. after    2 cycles

 The electronic state is 1-A.
 Alpha  occ. eigenvalues --  -20.56396 -15.50759 -11.35627 -11.31557 -11.26136
 Alpha  occ. eigenvalues --  -11.25480 -11.23150  -1.49829  -1.24293  -1.08532
 Alpha  occ. eigenvalues --   -1.01778  -0.92080  -0.81434  -0.78736  -0.69719
 Alpha  occ. eigenvalues --   -0.67392  -0.66249  -0.63390  -0.62513  -0.58528
 Alpha  occ. eigenvalues --   -0.57828  -0.55777  -0.53324  -0.51219  -0.48786
 Alpha  occ. eigenvalues --   -0.43651  -0.35782
 Alpha virt. eigenvalues --    0.02791   0.03453   0.03626   0.04531   0.05518
 Alpha virt. eigenvalues --    0.06003   0.07223   0.07525   0.09093   0.09586
 Alpha virt. eigenvalues --    0.10269   0.11912   0.12597   0.13176   0.13345

 Mulliken charges:
               1
     1  C   -0.321513
     2  C   -0.728489
     3  C    1.290188
     4  O   -1.244849
     5  C    0.420707
     6  C   -1.299942
     7  N    0.899313
     8  H    0.156454
     9  H    0.118370
    10  H    0.171620
    11  H    0.279062
    12  H    0.117500
    13  H    0.098971
    14  H    0.112819
    15  H   -0.037857
    16  H   -0.032353
 Sum of Mulliken charges =  -0.00000

 Dipole moment (field-independent basis, Debye):
    X=              3.6176    Y=              3.4907    Z=              0.7746  Tot=              5.0865

 Test job not archived.
 1\1\GINC-SE045\SP\RHF\Aug-CC-pVDZ\C5H9N1O1\OHZDE\09-Apr-2025\0\\#t hf
 aug-cc-pvdz iop(5/13=1,5/36=2,99/5=2) pseudo=read geom=check guess=(re
 ad,tcheck) scf=(maxcycle=1)\\title\\0,1\C,0,2.73751708,0.19508114,0.52
 458233\C,0,1.7495664,-0.9560091,0.34272868\C,0,0.49656211,-0.50607079,
 -0.3444844\O,0,0.03307269,-1.01941882,-1.3309479\C,0,-3.31877264,1.017
 13286,0.67114039\C,0,-2.94423406,0.60761326,-0.51506122\N,0,-2.6680684
 5,0.26324633,-1.64469914\H,0,2.28085548,1.03037588,1.05987769\H,0,3.60
 488515,-0.13172355,1.09759791\H,0,3.09147959,0.56600237,-0.43855369\H,

 Normal termination of Gaussian 16 at Wed Apr  9 18:05:23 2025.
