 Gaussian 16, Revision C.01,

 ----------------------------------------------------------------------
 #t hf aug-cc-pvdz symm=none int=(grid=ultrafine) guess=(read,tcheck) s
 table=(opt,rrhf)
 ----------------------------------------------------------------------
 -----
 title
 -----
 Symbolic Z-matrix:
 Charge =  0 Multiplicity = 1

 SCF Done:  E(RHF) =  -264.847021402     A.U. after   16 cycles
 Normal termination of Gaussian 16 at Wed Apr  9 15:41:53 2025.
 Gaussian 16:  ES64L-G16RevC.01  3-Jul-2019

 ----------------------------------------------------------------------
 #t hf aug-cc-pvdz iop(5/13=1,5/36=2,99/5=2) pseudo=read geom=check gue
 ss=(read,tcheck) scf=(maxcycle=1)
 ----------------------------------------------------------------------
 -----
 title
 -----
 Structure from the checkpoint file:  "Grambow2020_b97d3_006630_forward_mol1.chk"
 Charge =  0 Multiplicity = 1

                         Standard orientation:
 ---------------------------------------------------------------------
 Center     Atomic      Atomic             Coordinates (Angstroms)
 Number     Number       Type             X           Y           Z
 ---------------------------------------------------------------------
      1          6           0        1.996620   -0.713462    0.180212
      2          6           0        1.158246    0.405585   -0.439640
      3          6           0       -0.259631    0.535380    0.093156
      4          7           0       -0.868484    1.774433   -0.045988
      5          6           0       -1.047672   -0.701664    0.006921
      6          7           0       -1.735020   -1.642313   -0.114348
      7          1           0        1.493753   -1.686531    0.096442
      8          1           0        2.181306   -0.515270    1.244245
      9          1           0        2.965151   -0.786566   -0.330575
     10          1           0        1.627597    1.391356   -0.330481
     11          1           0        1.016910    0.240817   -1.521179
     12          1           0        0.100835    0.361370    1.673511
     13          1           0       -1.884250    1.656660    0.061636
     14          1           0       -0.362150    1.258293    1.184857
 ---------------------------------------------------------------------

 SCF Done:  E(RHF) =  -265.120967032     A.U. after    2 cycles

 The electronic state is 1-A.
 Alpha  occ. eigenvalues --  -15.55662 -15.49913 -11.41551 -11.31650 -11.28001
 Alpha  occ. eigenvalues --  -11.25628  -1.27149  -1.23668  -1.08353  -0.95713
 Alpha  occ. eigenvalues --   -0.88365  -0.79275  -0.69249  -0.66603  -0.64219
 Alpha  occ. eigenvalues --   -0.63228  -0.56572  -0.55016  -0.53439  -0.52644
 Alpha  occ. eigenvalues --   -0.52579  -0.49589  -0.38375
 Alpha virt. eigenvalues --    0.02347   0.03275   0.03972   0.04574   0.05785
 Alpha virt. eigenvalues --    0.06712   0.07302   0.08085   0.08443   0.09873
 Alpha virt. eigenvalues --    0.11110   0.12956   0.13534   0.13712   0.14162

 Mulliken charges:
               1
     1  C   -0.306162
     2  C   -0.045803
     3  C   -1.485705
     4  N    0.424515
     5  C   -1.516050
     6  N    0.955577
     7  H    0.233722
     8  H    0.161519
     9  H    0.142903
    10  H    0.204210
    11  H    0.284169
    12  H    0.159484
    13  H    0.148995
    14  H    0.638625
 Sum of Mulliken charges =  -0.00000

 Dipole moment (field-independent basis, Debye):
    X=              3.0437    Y=              0.5185    Z=              1.0052  Tot=              3.2470

 Test job not archived.
 1\1\GINC-SE037\SP\RHF\Aug-CC-pVDZ\C4H8N2\OHZDE\09-Apr-2025\0\\#t hf au
 g-cc-pvdz iop(5/13=1,5/36=2,99/5=2) pseudo=read geom=check guess=(read
 ,tcheck) scf=(maxcycle=1)\\title\\0,1\C,0,-1.71029651,0.17986526,0.332
 72292\C,0,-0.60867142,-0.62110647,-0.36313612\C,0,0.80829317,-0.115947
 43,-0.14377656\N,0,1.83292497,-1.03628088,-0.31239188\C,0,1.00254614,1
 .29645351,-0.49889783\N,0,1.22011776,2.39495009,-0.84232435\H,0,-1.665
 38758,1.24391749,0.06340348\H,0,-1.61722688,0.09980434,1.42381586\H,0,
 -2.6966294,-0.20292246,0.04131108\H,0,-0.6140404,-1.67994384,-0.075413

 Normal termination of Gaussian 16 at Wed Apr  9 15:41:57 2025.
