 Gaussian 16, Revision C.01,

 ----------------------------------------------------------------------
 #t hf aug-cc-pvdz symm=none int=(grid=ultrafine) guess=(read,tcheck) s
 table=(opt,rrhf)
 ----------------------------------------------------------------------
 -----
 title
 -----
 Symbolic Z-matrix:
 Charge =  0 Multiplicity = 1

 SCF Done:  E(RHF) =  -309.073838628     A.U. after   14 cycles

 1\1\GINC-SE103\Stability\RHF\Aug-CC-pVDZ\C6H12O1\OHZDE\09-Apr-2025\0\\
 #t hf aug-cc-pvdz symm=none int=(grid=ultrafine) guess=(read,tcheck) s
 table=(opt,rrhf)\\title\\0,1\C,0,-1.36084335,-1.20195508,-1.03009819\C
 ,0,-0.24171024,-0.64628632,-0.1930298\C,0,-0.67524861,0.17520481,0.994
 8535\C,0,-1.01636697,1.61293197,0.59996726\O,0,0.08999852,2.29959361,0
 .05760157\C,0,1.03251913,-0.86129472,-0.5225292\C,0,2.2628853,-0.40434
 452,0.1998207\H,0,-2.04712646,-0.41327061,-1.35147952\H,0,-0.98633636,
 -1.70793412,-1.91991634\H,0,-1.95364637,-1.91674385,-0.45187597\H,0,0.

 Normal termination of Gaussian 16 at Wed Apr  9 17:34:07 2025.
 Gaussian 16:  ES64L-G16RevC.01  3-Jul-2019

 ----------------------------------------------------------------------
 #t hf aug-cc-pvdz iop(5/13=1,5/36=2,99/5=2) pseudo=read geom=check gue
 ss=(read,tcheck) scf=(maxcycle=1)
 ----------------------------------------------------------------------
 -----
 title
 -----
 Structure from the checkpoint file:  "Grambow2020_wb97xd3_006724_reverse_mol2.chk"
 Charge =  0 Multiplicity = 1

                         Standard orientation:
 ---------------------------------------------------------------------
 Center     Atomic      Atomic             Coordinates (Angstroms)
 Number     Number       Type             X           Y           Z
 ---------------------------------------------------------------------
      1          6           0       -0.519639    2.111054   -0.350876
      2          6           0       -0.536846    0.684736    0.125810
      3          6           0        0.642153    0.276539    0.972691
      4          6           0        1.859420   -0.083949    0.119658
      5          8           0        1.615079   -1.182509   -0.730737
      6          6           0       -1.526233   -0.140814   -0.217759
      7          6           0       -1.712742   -1.573676    0.177858
      8          1           0        0.413398    2.345763   -0.871113
      9          1           0       -1.346979    2.319856   -1.029078
     10          1           0       -0.587578    2.799376    0.496636
     11          1           0        0.814680   -0.991458   -1.228838
     12          1           0        0.399197   -0.575460    1.608402
     13          1           0        0.918572    1.104113    1.633948
     14          1           0        2.689610   -0.376004    0.764727
     15          1           0        2.186879    0.790238   -0.459752
     16          1           0       -2.314880    0.267262   -0.847036
     17          1           0       -0.884079   -1.964968    0.765097
     18          1           0       -2.633196   -1.694343    0.755705
     19          1           0       -1.812939   -2.207645   -0.707084
 ---------------------------------------------------------------------

 SCF Done:  E(RHF) =  -309.407657959     A.U. after    2 cycles

 The electronic state is 1-A.
 Alpha  occ. eigenvalues --  -20.53888 -11.28102 -11.24055 -11.23286 -11.23241
 Alpha  occ. eigenvalues --  -11.23224 -11.22932  -1.44431  -1.11224  -1.01550
 Alpha  occ. eigenvalues --   -0.98146  -0.89327  -0.85284  -0.71626  -0.69215
 Alpha  occ. eigenvalues --   -0.65254  -0.62599  -0.61727  -0.58453  -0.57370
 Alpha  occ. eigenvalues --   -0.56561  -0.53636  -0.53044  -0.51519  -0.50118
 Alpha  occ. eigenvalues --   -0.46668  -0.43616  -0.35100
 Alpha virt. eigenvalues --    0.03446   0.03537   0.03776   0.04500   0.05526
 Alpha virt. eigenvalues --    0.05960   0.06041   0.07036   0.07510   0.09113
 Alpha virt. eigenvalues --    0.09547   0.10215   0.12243   0.13221   0.13347

 Mulliken charges:
               1
     1  C   -0.712191
     2  C    0.674735
     3  C   -0.526578
     4  C    0.757969
     5  O   -1.215002
     6  C    0.031780
     7  C   -0.655953
     8  H    0.190876
     9  H    0.071125
    10  H    0.248145
    11  H    0.430216
    12  H    0.163992
    13  H    0.169352
    14  H    0.035503
    15  H    0.103603
    16  H   -0.258712
    17  H    0.052371
    18  H    0.206148
    19  H    0.232621
 Sum of Mulliken charges =  -0.00000

 Dipole moment (field-independent basis, Debye):
    X=             -1.0482    Y=              1.3920    Z=              0.4319  Tot=              1.7953

 Test job not archived.
 1\1\GINC-SE103\SP\RHF\Aug-CC-pVDZ\C6H12O1\OHZDE\09-Apr-2025\0\\#t hf a
 ug-cc-pvdz iop(5/13=1,5/36=2,99/5=2) pseudo=read geom=check guess=(rea
 d,tcheck) scf=(maxcycle=1)\\title\\0,1\C,0,-1.36084335,-1.20195508,-1.
 03009819\C,0,-0.24171024,-0.64628632,-0.1930298\C,0,-0.67524861,0.1752
 0481,0.9948535\C,0,-1.01636697,1.61293197,0.59996726\O,0,0.08999852,2.
 29959361,0.05760157\C,0,1.03251913,-0.86129472,-0.5225292\C,0,2.262885
 3,-0.40434452,0.1998207\H,0,-2.04712646,-0.41327061,-1.35147952\H,0,-0
 .98633636,-1.70793412,-1.91991634\H,0,-1.95364637,-1.91674385,-0.45187

 Normal termination of Gaussian 16 at Wed Apr  9 17:34:15 2025.
