 Gaussian 16, Revision C.01,

 ----------------------------------------------------------------------
 #t hf aug-cc-pvdz symm=none int=(grid=ultrafine) guess=(read,tcheck) s
 table=(opt,rrhf)
 ----------------------------------------------------------------------
 -----
 title
 -----
 Symbolic Z-matrix:
 Charge =  0 Multiplicity = 1

 SCF Done:  E(RHF) =  -279.812230075     A.U. after   15 cycles
 Normal termination of Gaussian 16 at Wed Apr  9 15:58:44 2025.
 Gaussian 16:  ES64L-G16RevC.01  3-Jul-2019

 ----------------------------------------------------------------------
 #t hf aug-cc-pvdz iop(5/13=1,5/36=2,99/5=2) pseudo=read geom=check gue
 ss=(read,tcheck) scf=(maxcycle=1)
 ----------------------------------------------------------------------
 -----
 title
 -----
 Structure from the checkpoint file:  "Grambow2020_b97d3_007058_reverse_mol2.chk"
 Charge =  0 Multiplicity = 1

                         Standard orientation:
 ---------------------------------------------------------------------
 Center     Atomic      Atomic             Coordinates (Angstroms)
 Number     Number       Type             X           Y           Z
 ---------------------------------------------------------------------
      1          7           0       -1.856649   -0.711762    0.070492
      2          6           0       -0.748319    0.119328   -0.036794
      3          6           0        0.546371   -0.609226   -0.221939
      4          6           0        1.761131    0.149364   -0.451123
      5          7           0        1.715240   -0.248238    0.745899
      6          7           0       -0.719885    1.406823    0.044789
      7          1           0       -1.769981   -1.666046   -0.264457
      8          1           0       -2.767654   -0.296663   -0.097204
      9          1           0        0.494579   -1.666421   -0.500703
     10          1           0        2.380017    0.756824   -1.108590
     11          1           0       -1.662998    1.787755    0.201830
 ---------------------------------------------------------------------

 SCF Done:  E(RHF) =  -280.096265528     A.U. after    2 cycles

 The electronic state is 1-A.
 Alpha  occ. eigenvalues --  -15.54349 -15.53194 -15.47125 -11.32986 -11.31158
 Alpha  occ. eigenvalues --  -11.29415  -1.31866  -1.25553  -1.14945  -0.95117
 Alpha  occ. eigenvalues --   -0.81753  -0.80442  -0.74587  -0.74267  -0.67084
 Alpha  occ. eigenvalues --   -0.63173  -0.58999  -0.56132  -0.48231  -0.45929
 Alpha  occ. eigenvalues --   -0.44742  -0.40499
 Alpha virt. eigenvalues --    0.02564   0.04092   0.04335   0.05549   0.07000
 Alpha virt. eigenvalues --    0.08574   0.09479   0.10973   0.11577   0.12334
 Alpha virt. eigenvalues --    0.13217   0.13855   0.14492   0.14849   0.15924

 Mulliken charges:
               1
     1  N    0.574614
     2  C   -1.897938
     3  C    0.170118
     4  C    0.009795
     5  N    0.476199
     6  N    0.755766
     7  H    0.061135
     8  H    0.064120
     9  H   -0.224528
    10  H   -0.048871
    11  H    0.059590
 Sum of Mulliken charges =  -0.00000

 Dipole moment (field-independent basis, Debye):
    X=             -2.1906    Y=             -2.2156    Z=             -3.5242  Tot=              4.7039

 Test job not archived.
 1\1\GINC-SE163\SP\RHF\Aug-CC-pVDZ\C3H5N3\OHZDE\09-Apr-2025\0\\#t hf au
 g-cc-pvdz iop(5/13=1,5/36=2,99/5=2) pseudo=read geom=check guess=(read
 ,tcheck) scf=(maxcycle=1)\\title\\0,1\N,0,-1.71273688,-0.09319962,0.27
 622751\C,0,-0.43108621,0.34399168,-0.03498301\C,0,0.64326232,-0.658214
 65,0.25250517\C,0,2.01133119,-0.36042743,-0.12609139\N,0,1.85384438,-0
 .18229292,1.11347274\N,0,-0.0836474,1.49958233,-0.49215299\H,0,-1.8627
 1904,-1.09173591,0.38010297\H,0,-2.48953238,0.39819737,-0.15444198\H,0
 ,0.3328964,-1.69212711,0.43348022\H,0,2.76969984,-0.24840637,-0.898502

 Normal termination of Gaussian 16 at Wed Apr  9 15:58:47 2025.
