 Gaussian 16, Revision C.01,

 ----------------------------------------------------------------------
 #t hf aug-cc-pvdz symm=none int=(grid=ultrafine) guess=(read,tcheck) s
 table=(opt,rrhf)
 ----------------------------------------------------------------------
 -----
 title
 -----
 Symbolic Z-matrix:
 Charge =  0 Multiplicity = 1

 SCF Done:  E(RHF) =  -342.353121902     A.U. after   18 cycles
 Normal termination of Gaussian 16 at Wed Apr  9 03:59:39 2025.
 Gaussian 16:  ES64L-G16RevC.01  3-Jul-2019

 ----------------------------------------------------------------------
 #t hf aug-cc-pvdz iop(5/13=1,5/36=2,99/5=2) pseudo=read geom=check gue
 ss=(read,tcheck) scf=(maxcycle=1)
 ----------------------------------------------------------------------
 -----
 title
 -----
 Structure from the checkpoint file:  "Grambow2020_wb97xd3_008761_forward_mol1.chk"
 Charge =  0 Multiplicity = 1

                         Standard orientation:
 ---------------------------------------------------------------------
 Center     Atomic      Atomic             Coordinates (Angstroms)
 Number     Number       Type             X           Y           Z
 ---------------------------------------------------------------------
      1          8           0       -2.583660    0.446015   -0.123070
      2          6           0       -1.753303   -0.417219    0.038067
      3          6           0       -0.337923   -0.135841    0.198772
      4          8           0        0.520683   -1.164129    0.094115
      5          6           0        1.702441   -0.646526   -0.296195
      6          6           0        1.874755    0.749935    0.154684
      7          6           0        0.429455    1.067082   -0.165793
      8          1           0       -2.010285   -1.491517    0.086622
      9          1           0       -0.168340    0.758747    1.060717
     10          1           0        2.438036   -1.368826   -0.616371
     11          1           0        2.187046    0.893235    1.210395
     12          1           0        2.573000    1.302449   -0.472735
     13          1           0       -0.008184    1.946243   -0.614195
 ---------------------------------------------------------------------

 SCF Done:  E(RHF) =  -342.698026281     A.U. after    2 cycles

 The electronic state is 1-A.
 Alpha  occ. eigenvalues --  -20.64240 -20.54690 -11.35349 -11.33545 -11.31655
 Alpha  occ. eigenvalues --  -11.29143 -11.27333  -1.58356  -1.47989  -1.13138
 Alpha  occ. eigenvalues --   -1.06492  -0.90604  -0.86162  -0.78409  -0.74546
 Alpha  occ. eigenvalues --   -0.72445  -0.68194  -0.63808  -0.62469  -0.59781
 Alpha  occ. eigenvalues --   -0.57943  -0.55499  -0.52810  -0.44556  -0.43425
 Alpha  occ. eigenvalues --   -0.24399
 Alpha virt. eigenvalues --    0.03192   0.03368   0.03952   0.04243   0.04634
 Alpha virt. eigenvalues --    0.05860   0.07109   0.09182   0.09694   0.11019
 Alpha virt. eigenvalues --    0.12253   0.12463   0.13048   0.14163   0.15191

 Mulliken charges:
               1
     1  O   -1.233945
     2  C    1.046292
     3  C    0.725661
     4  O   -1.326701
     5  C    0.718464
     6  C   -0.301463
     7  C   -0.330585
     8  H    0.117558
     9  H    0.661808
    10  H   -0.097100
    11  H    0.066770
    12  H    0.136930
    13  H   -0.183689
 Sum of Mulliken charges =  -0.00000

 Dipole moment (field-independent basis, Debye):
    X=              2.9470    Y=             -0.3324    Z=              0.6913  Tot=              3.0452

 Test job not archived.
 1\1\GINC-SE453\SP\RHF\Aug-CC-pVDZ\C5H6O2\OHZDE\09-Apr-2025\0\\#t hf au
 g-cc-pvdz iop(5/13=1,5/36=2,99/5=2) pseudo=read geom=check guess=(read
 ,tcheck) scf=(maxcycle=1)\\title\\0,1\O,0,2.24128052,1.33119486,-1.437
 00744\C,0,2.06139809,0.46284647,-0.61588452\C,0,0.74237786,-0.02169334
 ,-0.25022448\O,0,0.63765055,-0.77881151,0.85491667\C,0,-0.621672,-0.62
 919407,1.31156503\C,0,-1.57444411,-0.31877377,0.22576933\C,0,-0.575465
 05,0.61040607,-0.43061974\H,0,2.89176456,-0.03908507,-0.08572621\H,0,0
 .07778723,-0.28969048,-1.2790556\H,0,-0.80075717,-1.01646125,2.3031715

 Normal termination of Gaussian 16 at Wed Apr  9 03:59:44 2025.
