 Gaussian 16, Revision C.01,

 ----------------------------------------------------------------------
 #t hf aug-cc-pvdz symm=none int=(grid=ultrafine) guess=(read,tcheck) s
 table=(opt,rrhf)
 ----------------------------------------------------------------------
 -----
 title
 -----
 Symbolic Z-matrix:
 Charge =  0 Multiplicity = 1

 SCF Done:  E(RHF) =  -359.694338964     A.U. after   15 cycles
 Normal termination of Gaussian 16 at Wed Apr  9 19:18:05 2025.
 Gaussian 16:  ES64L-G16RevC.01  3-Jul-2019

 ----------------------------------------------------------------------
 #t hf aug-cc-pvdz iop(5/13=1,5/36=2,99/5=2) pseudo=read geom=check gue
 ss=(read,tcheck) scf=(maxcycle=1)
 ----------------------------------------------------------------------
 -----
 title
 -----
 Structure from the checkpoint file:  "Grambow2020_wb97xd3_009254_reverse_mol1.chk"
 Charge =  0 Multiplicity = 1

                         Standard orientation:
 ---------------------------------------------------------------------
 Center     Atomic      Atomic             Coordinates (Angstroms)
 Number     Number       Type             X           Y           Z
 ---------------------------------------------------------------------
      1          6           0        0.269715    1.899172    0.436426
      2          6           0        0.296674    0.607061   -0.393194
      3          6           0        1.641284   -0.068469   -0.244223
      4          8           0        1.841314   -1.196474    0.110009
      5          6           0       -0.897558   -0.248901   -0.097705
      6          8           0       -2.090780    0.213099   -0.231235
      7          7           0       -0.991463   -1.475702    0.305012
      8          1           0        0.317162    1.675724    1.503142
      9          1           0        1.117179    2.536917    0.179224
     10          1           0       -0.650602    2.445193    0.240294
     11          1           0        0.218818    0.893352   -1.450001
     12          1           0        2.493719    0.597450   -0.493552
     13          1           0       -0.191915   -2.066373    0.477435
     14          1           0       -2.229083   -1.018528    0.170365
 ---------------------------------------------------------------------

 SCF Done:  E(RHF) =  -360.058012836     A.U. after    2 cycles

 The electronic state is 1-A.
 Alpha  occ. eigenvalues --  -20.57368 -20.53375 -15.49656 -11.36845 -11.36495
 Alpha  occ. eigenvalues --  -11.29016 -11.26417  -1.51033  -1.48901  -1.19932
 Alpha  occ. eigenvalues --   -1.11600  -0.93754  -0.87534  -0.81665  -0.73739
 Alpha  occ. eigenvalues --   -0.71575  -0.66952  -0.64147  -0.62260  -0.59184
 Alpha  occ. eigenvalues --   -0.58625  -0.56143  -0.52792  -0.52086  -0.46434
 Alpha  occ. eigenvalues --   -0.44108  -0.41927
 Alpha virt. eigenvalues --    0.02796   0.03875   0.04273   0.04551   0.06505
 Alpha virt. eigenvalues --    0.06942   0.07307   0.09277   0.10566   0.11865
 Alpha virt. eigenvalues --    0.12136   0.12956   0.13893   0.14315   0.14610

 Mulliken charges:
               1
     1  C   -0.110251
     2  C   -0.967359
     3  C    1.367216
     4  O   -1.241151
     5  C   -0.015975
     6  O   -1.415895
     7  N    0.781434
     8  H    0.240919
     9  H    0.119663
    10  H    0.170350
    11  H    0.377212
    12  H    0.108760
    13  H    0.093283
    14  H    0.491795
 Sum of Mulliken charges =  -0.00000

 Dipole moment (field-independent basis, Debye):
    X=              2.1983    Y=              2.5851    Z=             -0.6288  Tot=              3.4512

 Test job not archived.
 1\1\GINC-SE037\SP\RHF\Aug-CC-pVDZ\C4H7N1O2\OHZDE\09-Apr-2025\0\\#t hf
 aug-cc-pvdz iop(5/13=1,5/36=2,99/5=2) pseudo=read geom=check guess=(re
 ad,tcheck) scf=(maxcycle=1)\\title\\0,1\C,0,-1.16360301,-1.10383847,-0
 .35974242\C,0,-0.44568115,0.25200762,-0.2903556\C,0,-0.96970958,1.0487
 8424,0.88312349\O,0,-0.32206876,1.52246253,1.77423455\C,0,1.0418987,0.
 07836955,-0.34629493\O,0,1.597599,-0.5481992,-1.32285128\N,0,1.9783372
 6,0.46205317,0.46111502\H,0,-0.90152881,-1.72530534,0.497672\H,0,-2.24
 59344,-0.96392012,-0.36679697\H,0,-0.87340887,-1.62971849,-1.26684103\

 Normal termination of Gaussian 16 at Wed Apr  9 19:18:09 2025.
