 Gaussian 16, Revision C.01,

 ----------------------------------------------------------------------
 #t hf aug-cc-pvdz symm=none int=(grid=ultrafine) guess=(read,tcheck) s
 table=(opt,rrhf)
 ----------------------------------------------------------------------
 -----
 title
 -----
 Symbolic Z-matrix:
 Charge =  0 Multiplicity = 1

 SCF Done:  E(RHF) =  -344.789261631     A.U. after   15 cycles

 1\1\GINC-SE329\Stability\RHF\Aug-CC-pVDZ\C5H10O2\OHZDE\09-Apr-2025\0\\
 #t hf aug-cc-pvdz symm=none int=(grid=ultrafine) guess=(read,tcheck) s
 table=(opt,rrhf)\\title\\0,1\C,0,1.89293511,1.11541246,-0.1810246\O,0,
 0.52538307,0.90886047,0.06494175\C,0,0.00612079,-0.31817643,-0.4040931
 7\C,0,0.48018158,-1.53943349,0.39694517\O,0,-0.21735531,-1.6819603,1.6
 1249993\C,0,-1.44764862,-0.37296716,-0.58127361\C,0,-2.13491703,0.8976
 8755,-0.41418337\H,0,2.53088975,0.46745154,0.43001241\H,0,2.13734216,0
 .95223165,-1.2391432\H,0,2.1123712,2.15166852,0.07307029\H,0,0.3119358

 Normal termination of Gaussian 16 at Wed Apr  9 03:27:32 2025.
 Gaussian 16:  ES64L-G16RevC.01  3-Jul-2019

 ----------------------------------------------------------------------
 #t hf aug-cc-pvdz iop(5/13=1,5/36=2,99/5=2) pseudo=read geom=check gue
 ss=(read,tcheck) scf=(maxcycle=1)
 ----------------------------------------------------------------------
 -----
 title
 -----
 Structure from the checkpoint file:  "Grambow2020_wb97xd3_006652_reverse_mol2.chk"
 Charge =  0 Multiplicity = 1

                         Standard orientation:
 ---------------------------------------------------------------------
 Center     Atomic      Atomic             Coordinates (Angstroms)
 Number     Number       Type             X           Y           Z
 ---------------------------------------------------------------------
      1          6           0        2.176438   -0.832287   -0.110372
      2          8           0        0.796986   -0.795455   -0.373278
      3          6           0        0.028556   -0.038179    0.538476
      4          6           0        0.236684    1.478239    0.415894
      5          8           0       -0.470962    2.026258   -0.671928
      6          6           0       -1.404581   -0.342383    0.576120
      7          6           0       -1.807277   -1.500269   -0.206157
      8          1           0        2.665221    0.129142   -0.302598
      9          1           0        2.377146   -1.126991    0.928301
     10          1           0        2.610751   -1.577413   -0.775731
     11          1           0        0.288720   -0.319654    1.585487
     12          1           0        1.289367    1.705259    0.244829
     13          1           0       -0.063063    1.940224    1.361844
     14          1           0       -1.406160    1.974210   -0.452224
     15          1           0       -1.060738   -2.284718   -0.361084
     16          1           0       -2.794714   -1.887986    0.038122
     17          1           0       -1.893637   -0.989225   -1.189055
 ---------------------------------------------------------------------

 SCF Done:  E(RHF) =  -345.146758643     A.U. after    2 cycles

 The electronic state is 1-A.
 Alpha  occ. eigenvalues --  -20.55048 -20.54777 -11.29575 -11.29007 -11.28858
 Alpha  occ. eigenvalues --  -11.26896 -11.23701  -1.47706  -1.45114  -1.08656
 Alpha  occ. eigenvalues --   -0.99913  -0.93941  -0.87132  -0.73929  -0.70957
 Alpha  occ. eigenvalues --   -0.68424  -0.65137  -0.64545  -0.61585  -0.58937
 Alpha  occ. eigenvalues --   -0.58117  -0.56039  -0.52894  -0.50355  -0.48818
 Alpha  occ. eigenvalues --   -0.45791  -0.41409  -0.35951
 Alpha virt. eigenvalues --    0.03389   0.03938   0.04123   0.04630   0.05919
 Alpha virt. eigenvalues --    0.06354   0.06623   0.06988   0.07823   0.08416
 Alpha virt. eigenvalues --    0.09398   0.11736   0.12582   0.13803   0.14064

 Mulliken charges:
               1
     1  C    0.078192
     2  O   -1.515222
     3  C    0.776685
     4  C    0.809501
     5  O   -1.124367
     6  C   -0.521974
     7  C   -0.365753
     8  H    0.143964
     9  H    0.146736
    10  H   -0.030285
    11  H    0.433829
    12  H    0.003583
    13  H    0.176876
    14  H    0.315416
    15  H    0.212376
    16  H    0.122054
    17  H    0.338388
 Sum of Mulliken charges =  -0.00000

 Dipole moment (field-independent basis, Debye):
    X=              1.2592    Y=             -1.3857    Z=              1.0664  Tot=              2.1547

 Test job not archived.
 1\1\GINC-SE329\SP\RHF\Aug-CC-pVDZ\C5H10O2\OHZDE\09-Apr-2025\0\\#t hf a
 ug-cc-pvdz iop(5/13=1,5/36=2,99/5=2) pseudo=read geom=check guess=(rea
 d,tcheck) scf=(maxcycle=1)\\title\\0,1\C,0,1.89293511,1.11541246,-0.18
 10246\O,0,0.52538307,0.90886047,0.06494175\C,0,0.00612079,-0.31817643,
 -0.40409317\C,0,0.48018158,-1.53943349,0.39694517\O,0,-0.21735531,-1.6
 819603,1.61249993\C,0,-1.44764862,-0.37296716,-0.58127361\C,0,-2.13491
 703,0.89768755,-0.41418337\H,0,2.53088975,0.46745154,0.43001241\H,0,2.
 13734216,0.95223165,-1.2391432\H,0,2.1123712,2.15166852,0.07307029\H,0

 Normal termination of Gaussian 16 at Wed Apr  9 03:27:37 2025.
