 Gaussian 16, Revision C.01,

 ----------------------------------------------------------------------
 #t hf aug-cc-pvdz symm=none int=(grid=ultrafine) guess=(read,tcheck) s
 table=(opt,rrhf)
 ----------------------------------------------------------------------
 -----
 title
 -----
 Symbolic Z-matrix:
 Charge =  0 Multiplicity = 1

 SCF Done:  E(RHF) =  -320.503769085     A.U. after   17 cycles
 Normal termination of Gaussian 16 at Wed Apr  9 16:09:42 2025.
 Gaussian 16:  ES64L-G16RevC.01  3-Jul-2019

 ----------------------------------------------------------------------
 #t hf aug-cc-pvdz iop(5/13=1,5/36=2,99/5=2) pseudo=read geom=check gue
 ss=(read,tcheck) scf=(maxcycle=1)
 ----------------------------------------------------------------------
 -----
 title
 -----
 Structure from the checkpoint file:  "Grambow2020_b97d3_007145_forward_mol1.chk"
 Charge =  0 Multiplicity = 1

                         Standard orientation:
 ---------------------------------------------------------------------
 Center     Atomic      Atomic             Coordinates (Angstroms)
 Number     Number       Type             X           Y           Z
 ---------------------------------------------------------------------
      1          8           0        1.642200    0.131473    0.507318
      2          6           0        0.767669    0.238234   -0.454022
      3          7           0       -0.262000    1.195993   -0.340294
      4          6           0       -1.435386    0.368908    0.206788
      5          6           0       -0.753749   -0.964763    0.410755
      6          8           0        0.217801   -0.996043   -0.646272
      7          1           0        0.030587    1.934424    0.302222
      8          1           0       -1.883031    0.779364    1.121199
      9          1           0       -2.197432    0.350160   -0.587644
     10          1           0       -1.354670   -1.874426    0.495248
     11          1           0        0.887329   -0.499181    1.181540
 ---------------------------------------------------------------------

 SCF Done:  E(RHF) =  -320.822058934     A.U. after    2 cycles

 The electronic state is 1-A.
 Alpha  occ. eigenvalues --  -20.60526 -20.60263 -15.54870 -11.44914 -11.30025
 Alpha  occ. eigenvalues --  -11.29777  -1.58541  -1.46701  -1.24382  -1.01845
 Alpha  occ. eigenvalues --   -0.86666  -0.84368  -0.75674  -0.74446  -0.66788
 Alpha  occ. eigenvalues --   -0.65425  -0.62194  -0.59445  -0.56143  -0.52829
 Alpha  occ. eigenvalues --   -0.50457  -0.47548  -0.30147
 Alpha virt. eigenvalues --    0.00483   0.03377   0.04543   0.04954   0.05545
 Alpha virt. eigenvalues --    0.06921   0.08706   0.09687   0.10528   0.11950
 Alpha virt. eigenvalues --    0.13899   0.14216   0.14799   0.15529   0.16958

 Mulliken charges:
               1
     1  O   -1.144618
     2  C    1.268061
     3  N    0.415371
     4  C   -0.469018
     5  C    0.301152
     6  O   -1.194810
     7  H    0.290347
     8  H    0.107200
     9  H    0.099013
    10  H   -0.050349
    11  H    0.377653
 Sum of Mulliken charges =  -0.00000

 Dipole moment (field-independent basis, Debye):
    X=             -1.9412    Y=              1.1770    Z=              0.7211  Tot=              2.3820

 Test job not archived.
 1\1\GINC-SE114\SP\RHF\Aug-CC-pVDZ\C3H5N1O2\OHZDE\09-Apr-2025\0\\#t hf
 aug-cc-pvdz iop(5/13=1,5/36=2,99/5=2) pseudo=read geom=check guess=(re
 ad,tcheck) scf=(maxcycle=1)\\title\\0,1\O,0,1.75970642,0.27045432,-1.0
 8636957\C,0,1.33193483,0.24598451,0.1452104\N,0,0.65887655,-0.90190582
 ,0.61403469\C,0,-0.8197013,-0.52166022,0.44250029\C,0,-0.6761883,0.819
 50045,-0.23985027\O,0,0.53705777,1.34088872,0.32440192\H,0,0.92516691,
 -1.70767943,0.0452341\H,0,-1.40388848,-1.24967512,-0.13519059\H,0,-1.2
 4025279,-0.44975064,1.45746485\H,0,-1.51269144,1.52374849,-0.23450584\

 Normal termination of Gaussian 16 at Wed Apr  9 16:09:46 2025.
