 Gaussian 16, Revision C.01,

 ----------------------------------------------------------------------
 #t hf aug-cc-pvdz symm=none int=(grid=ultrafine) guess=(read,tcheck) s
 table=(opt,rrhf)
 ----------------------------------------------------------------------
 -----
 title
 -----
 Symbolic Z-matrix:
 Charge =  0 Multiplicity = 1

 SCF Done:  E(RHF) =  -321.328282248     A.U. after   17 cycles
 Normal termination of Gaussian 16 at Wed Apr  9 18:22:05 2025.
 Gaussian 16:  ES64L-G16RevC.01  3-Jul-2019

 ----------------------------------------------------------------------
 #t hf aug-cc-pvdz iop(5/13=1,5/36=2,99/5=2) pseudo=read geom=check gue
 ss=(read,tcheck) scf=(maxcycle=1)
 ----------------------------------------------------------------------
 -----
 title
 -----
 Structure from the checkpoint file:  "Grambow2020_wb97xd3_007496_forward_mol1.chk"
 Charge =  0 Multiplicity = 1

                         Standard orientation:
 ---------------------------------------------------------------------
 Center     Atomic      Atomic             Coordinates (Angstroms)
 Number     Number       Type             X           Y           Z
 ---------------------------------------------------------------------
      1          8           0       -0.204039    1.807245   -0.023470
      2          6           0       -0.713382    0.742209   -0.012665
      3          6           0       -1.982030    0.110680   -0.080011
      4          6           0       -1.922061   -1.189667    0.007915
      5          6           0        0.572715   -0.493683    0.096437
      6          6           0        1.854422   -0.431038   -0.702778
      7          7           0        1.707060   -0.387022    0.724862
      8          1           0       -2.713612   -1.927696    0.009309
      9          1           0       -0.829866   -1.582297    0.103171
     10          1           0        2.037224    0.496024   -1.237475
     11          1           0        2.291749   -1.333550   -1.110817
     12          1           0        2.039412    0.167708    1.496149
 ---------------------------------------------------------------------

 SCF Done:  E(RHF) =  -321.652279836     A.U. after    2 cycles

 The electronic state is 1-A.
 Alpha  occ. eigenvalues --  -20.58179 -15.59557 -11.38756 -11.36212 -11.32946
 Alpha  occ. eigenvalues --  -11.25093 -11.19958  -1.52782  -1.38542  -1.07799
 Alpha  occ. eigenvalues --   -0.98870  -0.89657  -0.85894  -0.78174  -0.71726
 Alpha  occ. eigenvalues --   -0.70904  -0.65451  -0.63675  -0.59435  -0.57458
 Alpha  occ. eigenvalues --   -0.54796  -0.51256  -0.43136  -0.37807  -0.31790
 Alpha virt. eigenvalues --    0.01521   0.02671   0.03719   0.04314   0.04986
 Alpha virt. eigenvalues --    0.06907   0.07614   0.08837   0.10070   0.10723
 Alpha virt. eigenvalues --    0.11113   0.12349   0.13551   0.14031   0.15061

 Mulliken charges:
               1
     1  O   -1.126856
     2  C    1.041371
     3  C   -0.288264
     4  C    0.202633
     5  C   -1.488583
     6  C    0.477626
     7  N    0.980147
     8  H   -0.119829
     9  H    0.227632
    10  H    0.016310
    11  H   -0.011213
    12  H    0.089028
 Sum of Mulliken charges =  -0.00000

 Dipole moment (field-independent basis, Debye):
    X=              5.5700    Y=             -2.4762    Z=              0.4215  Tot=              6.1101

 Test job not archived.
 1\1\GINC-SE104\SP\RHF\Aug-CC-pVDZ\C5H5N1O1\OHZDE\09-Apr-2025\0\\#t hf
 aug-cc-pvdz iop(5/13=1,5/36=2,99/5=2) pseudo=read geom=check guess=(re
 ad,tcheck) scf=(maxcycle=1)\\title\\0,1\O,0,0.09357948,-0.22794987,2.1
 3613262\C,0,0.7455297,-0.11776552,1.15803827\C,0,2.08388749,-0.1957576
 2,0.69376699\C,0,2.20975431,0.06233385,-0.57893664\C,0,-0.34879989,0.2
 4227956,-0.20804668\C,0,-1.66866685,-0.46290948,-0.42275534\N,0,-1.450
 80967,0.93274694,-0.16490002\H,0,3.09488789,0.10072568,-1.20047196\H,0
 ,1.18944691,0.28642315,-1.09360123\H,0,-2.0073068,-1.09733943,0.390621

 Normal termination of Gaussian 16 at Wed Apr  9 18:22:10 2025.
