 Gaussian 16, Revision C.01,

 ----------------------------------------------------------------------
 #t hf aug-cc-pvdz symm=none int=(grid=ultrafine) guess=(read,tcheck) s
 table=(opt,rrhf)
 ----------------------------------------------------------------------
 -----
 title
 -----
 Symbolic Z-matrix:
 Charge =  0 Multiplicity = 1

 SCF Done:  E(RHF) =  -322.665922644     A.U. after   13 cycles
 Normal termination of Gaussian 16 at Wed Apr  9 17:32:29 2025.
 Gaussian 16:  ES64L-G16RevC.01  3-Jul-2019

 ----------------------------------------------------------------------
 #t hf aug-cc-pvdz iop(5/13=1,5/36=2,99/5=2) pseudo=read geom=check gue
 ss=(read,tcheck) scf=(maxcycle=1)
 ----------------------------------------------------------------------
 -----
 title
 -----
 Structure from the checkpoint file:  "Grambow2020_wb97xd3_006622_reverse_mol2.chk"
 Charge =  0 Multiplicity = 1

                         Standard orientation:
 ---------------------------------------------------------------------
 Center     Atomic      Atomic             Coordinates (Angstroms)
 Number     Number       Type             X           Y           Z
 ---------------------------------------------------------------------
      1          8           0        0.777859    0.873483   -0.829175
      2          6           0        1.248294   -0.364286   -0.328248
      3          6           0        0.683071   -0.191202    1.012023
      4          6           0        0.002650    1.042843    0.396539
      5          6           0       -1.409204    0.600038    0.088032
      6          6           0       -1.161251   -0.854481   -0.369216
      7          7           0        0.177864   -1.230376    0.120094
      8          1           0        2.159178   -0.772753   -0.744110
      9          1           0        1.011595   -0.391074    2.021423
     10          1           0        0.151665    2.026839    0.835544
     11          1           0       -1.862653    1.213202   -0.691347
     12          1           0       -2.035671    0.650293    0.982321
     13          1           0       -1.186457   -0.947844   -1.454892
     14          1           0       -1.886936   -1.551368    0.049025
 ---------------------------------------------------------------------

 SCF Done:  E(RHF) =  -323.000768130     A.U. after    2 cycles

 The electronic state is 1-A.
 Alpha  occ. eigenvalues --  -20.54848 -15.50465 -11.32116 -11.30024 -11.26645
 Alpha  occ. eigenvalues --  -11.25939 -11.23676  -1.49668  -1.27327  -1.06719
 Alpha  occ. eigenvalues --   -0.99568  -0.86677  -0.81697  -0.76864  -0.74804
 Alpha  occ. eigenvalues --   -0.69318  -0.65540  -0.61102  -0.58090  -0.55164
 Alpha  occ. eigenvalues --   -0.53671  -0.50515  -0.47848  -0.46277  -0.44675
 Alpha  occ. eigenvalues --   -0.39549
 Alpha virt. eigenvalues --    0.03371   0.04093   0.04397   0.04559   0.05371
 Alpha virt. eigenvalues --    0.05944   0.06812   0.09382   0.10048   0.11827
 Alpha virt. eigenvalues --    0.13205   0.13322   0.14179   0.14577   0.15090

 Mulliken charges:
               1
     1  O   -1.535471
     2  C    1.048489
     3  C   -0.350989
     4  C    0.904536
     5  C   -0.259133
     6  C   -0.308997
     7  N    0.561950
     8  H   -0.158620
     9  H   -0.319010
    10  H    0.004853
    11  H    0.142540
    12  H    0.148323
    13  H    0.089340
    14  H    0.032191
 Sum of Mulliken charges =  -0.00000

 Dipole moment (field-independent basis, Debye):
    X=             -0.7333    Y=              0.9304    Z=              1.3376  Tot=              1.7867

 Test job not archived.
 1\1\GINC-SE135\SP\RHF\Aug-CC-pVDZ\C5H7N1O1\OHZDE\09-Apr-2025\0\\#t hf
 aug-cc-pvdz iop(5/13=1,5/36=2,99/5=2) pseudo=read geom=check guess=(re
 ad,tcheck) scf=(maxcycle=1)\\title\\0,1\O,0,1.52126469,0.13370264,0.51
 853259\C,0,0.84354394,1.33280832,0.19119538\C,0,0.21668632,0.80638427,
 -1.02358476\C,0,0.78282936,-0.54095026,-0.54521708\C,0,-0.38274927,-1.
 24690328,0.10872559\C,0,-1.09573372,-0.05676416,0.78799241\N,0,-0.5938
 947,1.16658356,0.13566899\H,0,1.28510371,2.27126175,0.49750539\H,0,0.0
 2109664,1.18139437,-2.01750381\H,0,1.44145456,-1.11858309,-1.1899903\H

 Normal termination of Gaussian 16 at Wed Apr  9 17:32:34 2025.
