 Gaussian 16, Revision C.01,

 ----------------------------------------------------------------------
 #t hf aug-cc-pvdz symm=none int=(grid=ultrafine) guess=(read,tcheck) s
 table=(opt,rrhf)
 ----------------------------------------------------------------------
 -----
 title
 -----
 Symbolic Z-matrix:
 Charge =  0 Multiplicity = 1

 SCF Done:  E(RHF) =  -374.443316316     A.U. after   17 cycles
 Normal termination of Gaussian 16 at Wed Apr  9 19:21:48 2025.
 Gaussian 16:  ES64L-G16RevC.01  3-Jul-2019

 ----------------------------------------------------------------------
 #t hf aug-cc-pvdz iop(5/13=1,5/36=2,99/5=2) pseudo=read geom=check gue
 ss=(read,tcheck) scf=(maxcycle=1)
 ----------------------------------------------------------------------
 -----
 title
 -----
 Structure from the checkpoint file:  "Grambow2020_wb97xd3_009449_forward_mol1.chk"
 Charge =  0 Multiplicity = 1

                         Standard orientation:
 ---------------------------------------------------------------------
 Center     Atomic      Atomic             Coordinates (Angstroms)
 Number     Number       Type             X           Y           Z
 ---------------------------------------------------------------------
      1          8           0        2.329160   -0.645131   -0.157823
      2          6           0        1.085769   -0.231635    0.087472
      3          7           0       -0.081850   -0.964061    0.010271
      4          6           0       -1.071002   -0.094682   -0.029383
      5          8           0       -2.364723   -0.444369   -0.011284
      6          6           0       -0.614828    1.224596   -0.040535
      7          7           0        0.720203    1.127446    0.011083
      8          1           0        1.582424   -0.442962    1.115239
      9          1           0       -2.401174   -1.406212   -0.016029
     10          1           0       -1.155287    2.154731    0.012787
     11          1           0        1.390433    1.877076   -0.013943
 ---------------------------------------------------------------------

 SCF Done:  E(RHF) =  -374.815893111     A.U. after    2 cycles

 The electronic state is 1-A.
 Alpha  occ. eigenvalues --  -20.60402 -20.49855 -15.60624 -15.53195 -11.35722
 Alpha  occ. eigenvalues --  -11.35419 -11.33052  -1.53193  -1.42675  -1.34863
 Alpha  occ. eigenvalues --   -1.22271  -1.03533  -0.90726  -0.87004  -0.81843
 Alpha  occ. eigenvalues --   -0.73535  -0.72196  -0.68679  -0.63962  -0.60759
 Alpha  occ. eigenvalues --   -0.58743  -0.53749  -0.53011  -0.45203  -0.43138
 Alpha  occ. eigenvalues --   -0.29812
 Alpha virt. eigenvalues --   -0.00391   0.02403   0.04114   0.04345   0.05583
 Alpha virt. eigenvalues --    0.09313   0.09369   0.10261   0.10991   0.11141
 Alpha virt. eigenvalues --    0.12902   0.13456   0.13550   0.15444   0.16057

 Mulliken charges:
               1
     1  O   -1.293318
     2  C    0.084456
     3  N    0.860956
     4  C    0.303329
     5  O   -1.371093
     6  C    0.223102
     7  N    0.436682
     8  H    0.406820
     9  H    0.311082
    10  H   -0.064349
    11  H    0.102332
 Sum of Mulliken charges =  -0.00000

 Dipole moment (field-independent basis, Debye):
    X=             -2.7024    Y=              4.0163    Z=              1.3381  Tot=              5.0224

 Test job not archived.
 1\1\GINC-SE131\SP\RHF\Aug-CC-pVDZ\C3H4N2O2\OHZDE\09-Apr-2025\0\\#t hf
 aug-cc-pvdz iop(5/13=1,5/36=2,99/5=2) pseudo=read geom=check guess=(re
 ad,tcheck) scf=(maxcycle=1)\\title\\0,1\O,0,-2.3429753,0.81127932,-0.9
 4995911\C,0,-1.1339163,0.41566693,-0.55141709\N,0,0.02887631,1.1583816
 6,-0.50635968\C,0,1.02261643,0.29862286,-0.41091658\O,0,2.30241357,0.6
 6192449,-0.24826812\C,0,0.58131415,-1.02524344,-0.44755074\N,0,-0.7512
 2665,-0.94083932,-0.5553493\H,0,-1.74980445,0.64258918,0.40608806\H,0,
 2.33160855,1.62379975,-0.26916339\H,0,1.11902571,-1.94848933,-0.311264

 Normal termination of Gaussian 16 at Wed Apr  9 19:21:52 2025.
