 Gaussian 16, Revision C.01,

 ----------------------------------------------------------------------
 #t hf aug-cc-pvdz symm=none int=(grid=ultrafine) guess=(read,tcheck) s
 table=(opt,rrhf)
 ----------------------------------------------------------------------
 -----
 title
 -----
 Symbolic Z-matrix:
 Charge =  0 Multiplicity = 1

 SCF Done:  E(RHF) =  -302.842727253     A.U. after   14 cycles
 Normal termination of Gaussian 16 at Wed Apr  9 19:10:59 2025.
 Gaussian 16:  ES64L-G16RevC.01  3-Jul-2019

 ----------------------------------------------------------------------
 #t hf aug-cc-pvdz iop(5/13=1,5/36=2,99/5=2) pseudo=read geom=check gue
 ss=(read,tcheck) scf=(maxcycle=1)
 ----------------------------------------------------------------------
 -----
 title
 -----
 Structure from the checkpoint file:  "Grambow2020_wb97xd3_008851_reverse_mol2.chk"
 Charge =  0 Multiplicity = 1

                         Standard orientation:
 ---------------------------------------------------------------------
 Center     Atomic      Atomic             Coordinates (Angstroms)
 Number     Number       Type             X           Y           Z
 ---------------------------------------------------------------------
      1          6           0       -2.186423   -0.474042   -0.478283
      2          6           0       -0.843558   -0.112254    0.060144
      3          6           0        0.254708   -1.084112    0.514628
      4          6           0        1.266245   -0.089659   -0.050910
      5          7           0        2.503276   -0.195067   -0.236735
      6          6           0        0.173756    0.864621   -0.434716
      7          7           0       -0.594431    1.110933    0.815522
      8          1           0       -2.100998   -1.245295   -1.245458
      9          1           0       -2.829180   -0.858946    0.317045
     10          1           0       -2.680038    0.393224   -0.922268
     11          1           0        0.277837   -2.019113   -0.047054
     12          1           0        0.298351   -1.279725    1.585477
     13          1           0        0.138656    1.570454   -1.254551
     14          1           0        2.867210    0.619977   -0.728125
     15          1           0       -1.322128    1.781031    0.578245
 ---------------------------------------------------------------------

 SCF Done:  E(RHF) =  -303.163448099     A.U. after    2 cycles

 The electronic state is 1-A.
 Alpha  occ. eigenvalues --  -15.51705 -15.48414 -11.29266 -11.28590 -11.27729
 Alpha  occ. eigenvalues --  -11.25032 -11.24162  -1.31057  -1.20684  -1.05104
 Alpha  occ. eigenvalues --   -1.00791  -0.90312  -0.80997  -0.75651  -0.72060
 Alpha  occ. eigenvalues --   -0.67549  -0.64234  -0.61280  -0.58156  -0.57228
 Alpha  occ. eigenvalues --   -0.53789  -0.53184  -0.49991  -0.45942  -0.43453
 Alpha  occ. eigenvalues --   -0.39224
 Alpha virt. eigenvalues --    0.02833   0.03579   0.04112   0.04356   0.05665
 Alpha virt. eigenvalues --    0.06226   0.06834   0.07682   0.09431   0.10947
 Alpha virt. eigenvalues --    0.12364   0.13424   0.13722   0.13765   0.14124

 Mulliken charges:
               1
     1  C   -0.591280
     2  C   -0.691561
     3  C   -0.372349
     4  C   -1.311794
     5  N    0.904217
     6  C    0.482128
     7  N    0.589604
     8  H    0.239157
     9  H    0.241275
    10  H    0.121187
    11  H    0.180426
    12  H    0.185752
    13  H   -0.227755
    14  H    0.126398
    15  H    0.124594
 Sum of Mulliken charges =  -0.00000

 Dipole moment (field-independent basis, Debye):
    X=             -3.6531    Y=              0.8940    Z=             -2.2100  Tot=              4.3622

 Test job not archived.
 1\1\GINC-SE105\SP\RHF\Aug-CC-pVDZ\C5H8N2\OHZDE\09-Apr-2025\0\\#t hf au
 g-cc-pvdz iop(5/13=1,5/36=2,99/5=2) pseudo=read geom=check guess=(read
 ,tcheck) scf=(maxcycle=1)\\title\\0,1\C,0,-1.34005541,1.26497076,-0.66
 986178\C,0,-0.39032952,0.15531034,-0.3686062\C,0,1.09221913,0.08478932
 ,-0.76145299\C,0,1.33618821,-0.61833393,0.57199139\N,0,2.40574356,-0.9
 1638029,1.15774373\C,0,-0.12670383,-0.5830748,0.90394564\N,0,-0.809540
 34,-1.23675837,-0.24510103\H,0,-0.89590736,2.23150328,-0.42648\H,0,-1.
 60093468,1.27106825,-1.73086982\H,0,-2.26299798,1.16110427,-0.09512856

 Normal termination of Gaussian 16 at Wed Apr  9 19:11:05 2025.
