 Gaussian 16, Revision C.01,

 ----------------------------------------------------------------------
 #t hf aug-cc-pvdz symm=none int=(grid=ultrafine) guess=(read,tcheck) s
 table=(opt,rrhf)
 ----------------------------------------------------------------------
 -----
 title
 -----
 Symbolic Z-matrix:
 Charge =  0 Multiplicity = 1

 SCF Done:  E(RHF) =  -359.594909568     A.U. after   16 cycles
 Normal termination of Gaussian 16 at Wed Apr  9 04:05:45 2025.
 Gaussian 16:  ES64L-G16RevC.01  3-Jul-2019

 ----------------------------------------------------------------------
 #t hf aug-cc-pvdz iop(5/13=1,5/36=2,99/5=2) pseudo=read geom=check gue
 ss=(read,tcheck) scf=(maxcycle=1)
 ----------------------------------------------------------------------
 -----
 title
 -----
 Structure from the checkpoint file:  "Grambow2020_wb97xd3_009246_forward_mol1.chk"
 Charge =  0 Multiplicity = 1

                         Standard orientation:
 ---------------------------------------------------------------------
 Center     Atomic      Atomic             Coordinates (Angstroms)
 Number     Number       Type             X           Y           Z
 ---------------------------------------------------------------------
      1          6           0        0.606374    1.668134    0.010004
      2          6           0        0.187602    0.254478   -0.135650
      3          6           0        1.224063   -0.815280    0.135269
      4          8           0        2.369066   -0.671761   -0.180610
      5          6           0       -1.210054   -0.154097    0.090686
      6          8           0       -1.202122   -0.185320    1.349891
      7          7           0       -1.968855   -0.371022   -0.916162
      8          1           0        0.631280    1.886371    1.080722
      9          1           0        1.616325    1.794600   -0.380143
     10          1           0       -0.095030    2.344864   -0.473420
     11          1           0        0.175313    0.130880   -1.831451
     12          1           0        0.833820   -1.724949    0.618385
     13          1           0       -0.641610   -0.062018   -1.850209
     14          1           0       -2.921578   -0.635359   -0.706854
 ---------------------------------------------------------------------

 SCF Done:  E(RHF) =  -359.955731740     A.U. after    2 cycles

 The electronic state is 1-A.
 Alpha  occ. eigenvalues --  -20.60609 -20.52033 -15.48255 -11.39555 -11.39466
 Alpha  occ. eigenvalues --  -11.35454 -11.28770  -1.53834  -1.45643  -1.21173
 Alpha  occ. eigenvalues --   -1.12992  -0.98280  -0.88230  -0.79094  -0.73645
 Alpha  occ. eigenvalues --   -0.71317  -0.70306  -0.65962  -0.64257  -0.61071
 Alpha  occ. eigenvalues --   -0.58745  -0.56794  -0.56519  -0.49359  -0.46700
 Alpha  occ. eigenvalues --   -0.41444  -0.41015
 Alpha virt. eigenvalues --    0.00400   0.03430   0.04154   0.04642   0.05011
 Alpha virt. eigenvalues --    0.06112   0.07238   0.08683   0.09443   0.10058
 Alpha virt. eigenvalues --    0.10540   0.12959   0.13794   0.14150   0.14827

 Mulliken charges:
               1
     1  C   -0.286457
     2  C   -0.843108
     3  C    1.246101
     4  O   -1.137054
     5  C    0.308878
     6  O   -1.273000
     7  N    0.564241
     8  H    0.319877
     9  H    0.202486
    10  H    0.226177
    11  H    0.239139
    12  H    0.144119
    13  H    0.226611
    14  H    0.061990
 Sum of Mulliken charges =  -0.00000

 Dipole moment (field-independent basis, Debye):
    X=              1.4412    Y=              1.5243    Z=             -0.8745  Tot=              2.2728

 Test job not archived.
 1\1\GINC-SE457\SP\RHF\Aug-CC-pVDZ\C4H7N1O2\OHZDE\09-Apr-2025\0\\#t hf
 aug-cc-pvdz iop(5/13=1,5/36=2,99/5=2) pseudo=read geom=check guess=(re
 ad,tcheck) scf=(maxcycle=1)\\title\\0,1\C,0,-0.82787582,-1.10717336,0.
 7393999\C,0,-0.20967518,0.06178543,0.0712899\C,0,-1.0512638,1.31169183
 ,-0.07531771\O,0,-2.22314692,1.25337718,-0.30919141\C,0,1.2457238,0.28
 739076,0.12148172\O,0,1.32600609,0.78317438,1.27663864\N,0,1.96034269,
 -0.01261976,-0.89630663\H,0,-0.8147261,-0.90635717,1.81373049\H,0,-1.8
 6890039,-1.19976237,0.4297175\H,0,-0.27103789,-2.02090627,0.54279175\H

 Normal termination of Gaussian 16 at Wed Apr  9 04:05:49 2025.
