 Gaussian 16, Revision C.01,

 ----------------------------------------------------------------------
 #t hf aug-cc-pvdz symm=none int=(grid=ultrafine) guess=(read,tcheck) s
 table=(opt,rrhf)
 ----------------------------------------------------------------------
 -----
 title
 -----
 Symbolic Z-matrix:
 Charge =  0 Multiplicity = 1

 SCF Done:  E(RHF) =  -268.662666467     a.u. after    9 cycles
 Normal termination of Gaussian 16 at Wed Apr  9 16:01:26 2025.
 Gaussian 16:  ES64L-G16RevC.01  3-Jul-2019

 ----------------------------------------------------------------------
 #t hf aug-cc-pvdz iop(5/13=1,5/36=2,99/5=2) pseudo=read geom=check gue
 ss=(read,tcheck) scf=(maxcycle=1)
 ----------------------------------------------------------------------
 -----
 title
 -----
 Structure from the checkpoint file:  "Grambow2020_b97d3_007072_reverse_mol2.chk"
 Charge =  0 Multiplicity = 1

                         Standard orientation:
 ---------------------------------------------------------------------
 Center     Atomic      Atomic             Coordinates (Angstroms)
 Number     Number       Type             X           Y           Z
 ---------------------------------------------------------------------
      1          6           0       -2.202124   -0.010374    0.013998
      2          6           0       -0.717109    0.019027   -0.087567
      3          6           0        0.137308    1.251709   -0.018824
      4          6           0        1.516286    0.666162    0.134447
      5          8           0        1.515916   -0.708024   -0.043295
      6          6           0        0.158186   -1.187285    0.015588
      7          1           0       -2.615347   -0.967661   -0.338242
      8          1           0       -2.661858    0.795367   -0.579692
      9          1           0       -2.552234    0.128215    1.056359
     10          1           0        0.020460    1.883112   -0.927160
     11          1           0       -0.144123    1.908521    0.830306
     12          1           0        2.440867    1.135306   -0.196172
     13          1           0        0.011630   -1.744476    0.963948
     14          1           0        0.017987   -1.909626   -0.808840
 ---------------------------------------------------------------------

 SCF Done:  E(RHF) =  -268.942686377     A.U. after    2 cycles

 The electronic state is 1-A.
 Alpha  occ. eigenvalues --  -20.61120 -11.36031 -11.29871 -11.25125 -11.23065
 Alpha  occ. eigenvalues --  -11.21446  -1.51076  -1.07387  -1.01200  -0.94121
 Alpha  occ. eigenvalues --   -0.81954  -0.76402  -0.69614  -0.66726  -0.61637
 Alpha  occ. eigenvalues --   -0.57873  -0.57129  -0.55270  -0.53627  -0.52193
 Alpha  occ. eigenvalues --   -0.49120  -0.48096  -0.18909
 Alpha virt. eigenvalues --    0.00678   0.03579   0.03940   0.04509   0.04744
 Alpha virt. eigenvalues --    0.05986   0.06550   0.07435   0.07664   0.09918
 Alpha virt. eigenvalues --    0.11642   0.12972   0.13392   0.14711   0.15385

 Mulliken charges:
               1
     1  C   -0.490178
     2  C    0.072287
     3  C   -0.912715
     4  C    0.960095
     5  O   -1.212790
     6  C    0.327862
     7  H    0.140857
     8  H    0.169536
     9  H    0.259311
    10  H    0.148089
    11  H    0.191333
    12  H   -0.002031
    13  H    0.188723
    14  H    0.159622
 Sum of Mulliken charges =  -0.00000

 Dipole moment (field-independent basis, Debye):
    X=              0.7106    Y=              0.1358    Z=              0.0474  Tot=              0.7250

 Test job not archived.
 1\1\GINC-SE162\SP\RHF\Aug-CC-pVDZ\C5H8O1\OHZDE\09-Apr-2025\0\\#t hf au
 g-cc-pvdz iop(5/13=1,5/36=2,99/5=2) pseudo=read geom=check guess=(read
 ,tcheck) scf=(maxcycle=1)\\title\\0,1\C,0,-1.77357889,0.42926691,-0.32
 19983\C,0,-0.35445407,0.0201463,-0.13450145\C,0,0.8309083,0.9407991,-0
 .17417451\C,0,1.92539764,0.0623671,0.37207559\O,0,1.51220436,-1.253395
 86,0.50630919\C,0,0.07586754,-1.30589411,0.40253619\H,0,-2.42270547,-0
 .43535674,-0.52763463\H,0,-1.88052962,1.13879693,-1.15756447\H,0,-2.18
 427813,0.93515253,0.57449776\H,0,1.02931816,1.3100753,-1.20454609\H,0,

 Normal termination of Gaussian 16 at Wed Apr  9 16:01:30 2025.
