 Gaussian 16, Revision C.01,

 ----------------------------------------------------------------------
 #t hf aug-cc-pvdz symm=none int=(grid=ultrafine) guess=(read,tcheck) s
 table=(opt,rrhf)
 ----------------------------------------------------------------------
 -----
 title
 -----
 Symbolic Z-matrix:
 Charge =  0 Multiplicity = 1

 SCF Done:  E(RHF) =  -344.656060511     A.U. after   16 cycles

 1\1\GINC-SE345\Stability\RHF\Aug-CC-pVDZ\C5H10O2\OHZDE\09-Apr-2025\0\\
 #t hf aug-cc-pvdz symm=none int=(grid=ultrafine) guess=(read,tcheck) s
 table=(opt,rrhf)\\title\\0,1\C,0,2.08743897,1.11545447,-0.57385631\O,0
 ,0.70285685,0.93424407,-0.7069797\C,0,0.31964113,-0.42659252,-0.672182
 01\C,0,0.16858021,-1.02802373,0.72972765\O,0,-1.26412808,-1.1713597,0.
 62584589\C,0,-1.16989484,-0.60839572,-0.86628738\C,0,-2.07898843,0.408
 76633,0.65431939\H,0,2.46327027,0.74107766,0.38844078\H,0,2.63660926,0
 .60708232,-1.37770622\H,0,2.28615516,2.18485619,-0.63277682\H,0,0.9804

 Normal termination of Gaussian 16 at Wed Apr  9 03:27:35 2025.
 Gaussian 16:  ES64L-G16RevC.01  3-Jul-2019

 ----------------------------------------------------------------------
 #t hf aug-cc-pvdz iop(5/13=1,5/36=2,99/5=2) pseudo=read geom=check gue
 ss=(read,tcheck) scf=(maxcycle=1)
 ----------------------------------------------------------------------
 -----
 title
 -----
 Structure from the checkpoint file:  "Grambow2020_wb97xd3_006659_forward_mol1.chk"
 Charge =  0 Multiplicity = 1

                         Standard orientation:
 ---------------------------------------------------------------------
 Center     Atomic      Atomic             Coordinates (Angstroms)
 Number     Number       Type             X           Y           Z
 ---------------------------------------------------------------------
      1          6           0       -2.542625    0.213132   -0.272469
      2          8           0       -1.289364    0.639945    0.190988
      3          6           0       -0.435664   -0.432947    0.537458
      4          6           0        0.319870   -1.072095   -0.633246
      5          8           0        1.609933   -0.594424   -0.195574
      6          6           0        0.893243    0.043857    1.081619
      7          6           0        1.751861    1.166954   -0.393082
      8          1           0       -2.462151   -0.390109   -1.187371
      9          1           0       -3.068040   -0.382598    0.485984
     10          1           0       -3.131938    1.102395   -0.492700
     11          1           0       -0.998588   -1.144782    1.155154
     12          1           0        0.055815   -0.702029   -1.627342
     13          1           0        0.347541   -2.163145   -0.636802
     14          1           0        1.252025   -0.522313    1.944027
     15          1           0        0.867048    1.788901   -0.399058
     16          1           0        2.512267    1.540490    0.276325
     17          1           0        2.141352    0.995617   -1.403212
 ---------------------------------------------------------------------

 SCF Done:  E(RHF) =  -345.014941024     A.U. after    2 cycles

 The electronic state is 1-A.
 Alpha  occ. eigenvalues --  -20.56870 -20.53813 -11.33469 -11.29234 -11.27919
 Alpha  occ. eigenvalues --  -11.27642 -11.21760  -1.47488  -1.45202  -1.02436
 Alpha  occ. eigenvalues --   -0.97102  -0.91724  -0.89242  -0.75900  -0.70310
 Alpha  occ. eigenvalues --   -0.66151  -0.64615  -0.63420  -0.61377  -0.60551
 Alpha  occ. eigenvalues --   -0.58271  -0.56666  -0.52108  -0.48469  -0.47234
 Alpha  occ. eigenvalues --   -0.45912  -0.40252  -0.27525
 Alpha virt. eigenvalues --    0.03474   0.03677   0.04154   0.04375   0.05943
 Alpha virt. eigenvalues --    0.06269   0.06441   0.06885   0.08615   0.09289
 Alpha virt. eigenvalues --    0.11177   0.12172   0.13001   0.13553   0.14343

 Mulliken charges:
               1
     1  C    0.153920
     2  O   -1.483642
     3  C    1.006262
     4  C    0.477647
     5  O   -1.263832
     6  C    0.255131
     7  C   -0.010994
     8  H    0.164214
     9  H    0.154334
    10  H   -0.032350
    11  H    0.073704
    12  H    0.117248
    13  H    0.011573
    14  H   -0.169009
    15  H    0.317413
    16  H    0.165903
    17  H    0.062479
 Sum of Mulliken charges =  -0.00000

 Dipole moment (field-independent basis, Debye):
    X=             -0.6671    Y=             -0.6798    Z=             -2.0415  Tot=              2.2527

 Test job not archived.
 1\1\GINC-SE345\SP\RHF\Aug-CC-pVDZ\C5H10O2\OHZDE\09-Apr-2025\0\\#t hf a
 ug-cc-pvdz iop(5/13=1,5/36=2,99/5=2) pseudo=read geom=check guess=(rea
 d,tcheck) scf=(maxcycle=1)\\title\\0,1\C,0,2.08743897,1.11545447,-0.57
 385631\O,0,0.70285685,0.93424407,-0.7069797\C,0,0.31964113,-0.42659252
 ,-0.67218201\C,0,0.16858021,-1.02802373,0.72972765\O,0,-1.26412808,-1.
 1713597,0.62584589\C,0,-1.16989484,-0.60839572,-0.86628738\C,0,-2.0789
 8843,0.40876633,0.65431939\H,0,2.46327027,0.74107766,0.38844078\H,0,2.
 63660926,0.60708232,-1.37770622\H,0,2.28615516,2.18485619,-0.63277682\

 Normal termination of Gaussian 16 at Wed Apr  9 03:27:41 2025.
