 Gaussian 16, Revision C.01,

 ----------------------------------------------------------------------
 #t hf aug-cc-pvdz symm=none int=(grid=ultrafine) guess=(read,tcheck) s
 table=(opt,rrhf)
 ----------------------------------------------------------------------
 -----
 title
 -----
 Symbolic Z-matrix:
 Charge =  0 Multiplicity = 1

 SCF Done:  E(RHF) =  -338.427467738     A.U. after   17 cycles
 Normal termination of Gaussian 16 at Wed Apr  9 19:05:52 2025.
 Gaussian 16:  ES64L-G16RevC.01  3-Jul-2019

 ----------------------------------------------------------------------
 #t hf aug-cc-pvdz iop(5/13=1,5/36=2,99/5=2) pseudo=read geom=check gue
 ss=(read,tcheck) scf=(maxcycle=1)
 ----------------------------------------------------------------------
 -----
 title
 -----
 Structure from the checkpoint file:  "Grambow2020_wb97xd3_008552_reverse_mol1.chk"
 Charge =  0 Multiplicity = 1

                         Standard orientation:
 ---------------------------------------------------------------------
 Center     Atomic      Atomic             Coordinates (Angstroms)
 Number     Number       Type             X           Y           Z
 ---------------------------------------------------------------------
      1          6           0       -1.800895   -0.467380   -0.359778
      2          6           0       -0.935765    0.457191    0.272831
      3          7           0       -0.304591    1.359999   -0.440392
      4          8           0        1.105303    1.081910   -0.062830
      5          6           0        1.000853   -0.183356    0.449217
      6          7           0        0.976997   -1.194892   -0.589253
      7          6           0       -0.096693   -0.309396    1.246527
      8          1           0       -2.086225   -0.233470   -1.381230
      9          1           0       -0.260176   -1.189266   -0.809749
     10          1           0       -2.511439   -1.044277    0.223904
     11          1           0        1.189185   -2.130762   -0.256111
     12          1           0        1.557517   -0.957219   -1.391882
     13          1           0       -0.443129   -1.238386    1.672444
 ---------------------------------------------------------------------

 SCF Done:  E(RHF) =  -338.771037000     A.U. after    2 cycles

 The electronic state is 1-A.
 Alpha  occ. eigenvalues --  -20.56798 -15.64141 -15.50732 -11.35139 -11.30382
 Alpha  occ. eigenvalues --  -11.26484 -11.23762  -1.50722  -1.30639  -1.17900
 Alpha  occ. eigenvalues --   -1.06889  -0.95691  -0.85106  -0.81776  -0.76688
 Alpha  occ. eigenvalues --   -0.74179  -0.70881  -0.65348  -0.60958  -0.59608
 Alpha  occ. eigenvalues --   -0.55708  -0.50627  -0.49714  -0.42221  -0.34644
 Alpha  occ. eigenvalues --   -0.32296
 Alpha virt. eigenvalues --    0.00840   0.02797   0.03653   0.04471   0.04891
 Alpha virt. eigenvalues --    0.06010   0.06552   0.08804   0.09981   0.10160
 Alpha virt. eigenvalues --    0.11587   0.12704   0.13398   0.14120   0.14806

 Mulliken charges:
               1
     1  C   -0.131020
     2  C   -1.119769
     3  N    1.120279
     4  O   -1.528505
     5  C    0.361009
     6  N   -0.201157
     7  C    0.184775
     8  H    0.016522
     9  H    0.579326
    10  H   -0.072255
    11  H    0.425239
    12  H    0.428195
    13  H   -0.062639
 Sum of Mulliken charges =  -0.00000

 Dipole moment (field-independent basis, Debye):
    X=              1.3438    Y=             -7.1755    Z=             -0.4912  Tot=              7.3167

 Test job not archived.
 1\1\GINC-SE029\SP\RHF\Aug-CC-pVDZ\C4H6N2O1\OHZDE\09-Apr-2025\0\\#t hf
 aug-cc-pvdz iop(5/13=1,5/36=2,99/5=2) pseudo=read geom=check guess=(re
 ad,tcheck) scf=(maxcycle=1)\\title\\0,1\C,0,-1.58683732,0.03879541,0.3
 0111031\C,0,-0.79423486,0.18230211,-0.86278999\N,0,-0.4234089,-0.87897
 165,-1.53978019\O,0,1.05249104,-0.70759169,-1.54586519\C,0,1.22355487,
 0.17767768,-0.51579978\N,0,1.20701046,-0.47661155,0.77796348\C,0,0.287
 75656,1.16733001,-0.54847141\H,0,-2.05145614,-0.93202374,0.44646977\H,
 0,-0.03453405,-0.45053878,0.97067269\H,0,-2.10519004,0.89429411,0.7227

 Normal termination of Gaussian 16 at Wed Apr  9 19:05:57 2025.
