 Gaussian 16, Revision C.01,

 ----------------------------------------------------------------------
 #t hf aug-cc-pvdz symm=none int=(grid=ultrafine) guess=(read,tcheck) s
 table=(opt,rrhf)
 ----------------------------------------------------------------------
 -----
 title
 -----
 Symbolic Z-matrix:
 Charge =  0 Multiplicity = 1

 SCF Done:  E(RHF) =  -307.915196951     A.U. after   13 cycles

 1\1\GINC-SE103\Stability\RHF\Aug-CC-pVDZ\C6H10O1\OHZDE\09-Apr-2025\0\\
 #t hf aug-cc-pvdz symm=none int=(grid=ultrafine) guess=(read,tcheck) s
 table=(opt,rrhf)\\title\\0,1\C,0,2.22858633,0.05008558,0.01068193\C,0,
 0.7519106,-0.15987296,0.01227092\C,0,0.06678208,-1.16611008,0.54595939
 \C,0,-1.42074912,-1.02893294,0.37013453\C,0,-1.54302936,0.15562864,-0.
 60533441\C,0,-0.18767921,0.87940683,-0.56019272\O,0,-0.18666323,2.0604
 4021,0.23620215\H,0,2.47891124,1.01570726,0.45602761\H,0,2.61535537,0.
 06251019,-1.01213118\H,0,2.74766413,-0.734056,0.56237142\H,0,0.5178687

 Normal termination of Gaussian 16 at Wed Apr  9 18:34:37 2025.
 Gaussian 16:  ES64L-G16RevC.01  3-Jul-2019

 ----------------------------------------------------------------------
 #t hf aug-cc-pvdz iop(5/13=1,5/36=2,99/5=2) pseudo=read geom=check gue
 ss=(read,tcheck) scf=(maxcycle=1)
 ----------------------------------------------------------------------
 -----
 title
 -----
 Structure from the checkpoint file:  "Grambow2020_wb97xd3_007728_forward_mol2.chk"
 Charge =  0 Multiplicity = 1

                         Standard orientation:
 ---------------------------------------------------------------------
 Center     Atomic      Atomic             Coordinates (Angstroms)
 Number     Number       Type             X           Y           Z
 ---------------------------------------------------------------------
      1          6           0       -2.205997   -0.484652    0.164814
      2          6           0       -0.716577   -0.434742    0.103231
      3          6           0        0.120856   -1.389336   -0.289443
      4          6           0        1.564159   -0.968920   -0.238355
      5          6           0        1.502922    0.378213    0.504047
      6          6           0        0.038382    0.837775    0.421638
      7          8           0       -0.202548    1.833823   -0.567770
      8          1           0       -2.641364    0.324834   -0.425617
      9          1           0       -2.554294   -0.350517    1.192719
     10          1           0       -2.592998   -1.434265   -0.205521
     11          1           0       -0.189002   -2.372377   -0.627720
     12          1           0        1.982587   -0.878004   -1.246558
     13          1           0        2.187620   -1.697209    0.285265
     14          1           0        1.774159    0.230785    1.551154
     15          1           0        2.170395    1.138665    0.097867
     16          1           0       -0.295156    1.300999    1.352991
     17          1           0       -0.044030    1.436479   -1.428012
 ---------------------------------------------------------------------

 SCF Done:  E(RHF) =  -308.243107120     A.U. after    2 cycles

 The electronic state is 1-A.
 Alpha  occ. eigenvalues --  -20.54162 -11.28219 -11.23373 -11.23264 -11.23071
 Alpha  occ. eigenvalues --  -11.22989 -11.22580  -1.44443  -1.13864  -1.01875
 Alpha  occ. eigenvalues --   -0.95470  -0.90980  -0.80368  -0.74291  -0.67084
 Alpha  occ. eigenvalues --   -0.65366  -0.62731  -0.59417  -0.57879  -0.56948
 Alpha  occ. eigenvalues --   -0.53808  -0.52495  -0.49963  -0.49657  -0.47603
 Alpha  occ. eigenvalues --   -0.42620  -0.35482
 Alpha virt. eigenvalues --    0.03459   0.03740   0.03894   0.04395   0.05809
 Alpha virt. eigenvalues --    0.05983   0.06362   0.07202   0.07503   0.09211
 Alpha virt. eigenvalues --    0.11920   0.12614   0.13328   0.13995   0.14531

 Mulliken charges:
               1
     1  C   -0.620991
     2  C    0.415563
     3  C    0.179314
     4  C   -0.492781
     5  C   -0.161451
     6  C    0.593180
     7  O   -1.357150
     8  H    0.224575
     9  H    0.248137
    10  H    0.118291
    11  H   -0.185620
    12  H    0.176439
    13  H    0.180786
    14  H    0.149736
    15  H    0.132226
    16  H    0.077775
    17  H    0.321972
 Sum of Mulliken charges =  -0.00000

 Dipole moment (field-independent basis, Debye):
    X=              0.3836    Y=             -1.6262    Z=             -0.1956  Tot=              1.6822

 Test job not archived.
 1\1\GINC-SE103\SP\RHF\Aug-CC-pVDZ\C6H10O1\OHZDE\09-Apr-2025\0\\#t hf a
 ug-cc-pvdz iop(5/13=1,5/36=2,99/5=2) pseudo=read geom=check guess=(rea
 d,tcheck) scf=(maxcycle=1)\\title\\0,1\C,0,2.22858633,0.05008558,0.010
 68193\C,0,0.7519106,-0.15987296,0.01227092\C,0,0.06678208,-1.16611008,
 0.54595939\C,0,-1.42074912,-1.02893294,0.37013453\C,0,-1.54302936,0.15
 562864,-0.60533441\C,0,-0.18767921,0.87940683,-0.56019272\O,0,-0.18666
 323,2.06044021,0.23620215\H,0,2.47891124,1.01570726,0.45602761\H,0,2.6
 1535537,0.06251019,-1.01213118\H,0,2.74766413,-0.734056,0.56237142\H,0

 Normal termination of Gaussian 16 at Wed Apr  9 18:34:43 2025.
