 Gaussian 16, Revision C.01,

 ----------------------------------------------------------------------
 #t hf aug-cc-pvdz symm=none int=(grid=ultrafine) guess=(read,tcheck) s
 table=(opt,rrhf)
 ----------------------------------------------------------------------
 -----
 title
 -----
 Symbolic Z-matrix:
 Charge =  0 Multiplicity = 1

 SCF Done:  E(RHF) =  -286.611149798     A.U. after   16 cycles
 Normal termination of Gaussian 16 at Wed Apr  9 18:43:48 2025.
 Gaussian 16:  ES64L-G16RevC.01  3-Jul-2019

 ----------------------------------------------------------------------
 #t hf aug-cc-pvdz iop(5/13=1,5/36=2,99/5=2) pseudo=read geom=check gue
 ss=(read,tcheck) scf=(maxcycle=1)
 ----------------------------------------------------------------------
 -----
 title
 -----
 Structure from the checkpoint file:  "Grambow2020_wb97xd3_007998_forward_mol1.chk"
 Charge =  0 Multiplicity = 1

                         Standard orientation:
 ---------------------------------------------------------------------
 Center     Atomic      Atomic             Coordinates (Angstroms)
 Number     Number       Type             X           Y           Z
 ---------------------------------------------------------------------
      1          6           0        1.548550    1.450659    0.018301
      2          6           0        2.068819    0.184836   -0.100920
      3          6           0        1.744316   -1.004950   -0.121681
      4          6           0        0.457089   -1.500336   -0.001313
      5          6           0       -0.854002    0.046207    0.456633
      6          6           0       -1.915689    0.923515   -0.150907
      7          7           0       -1.995960   -0.504689   -0.304192
      8          1           0        1.459339    2.070347   -0.870807
      9          1           0        1.707782    2.008481    0.937914
     10          1           0        0.295294    0.768867    0.138339
     11          1           0        0.187629   -2.059119    0.891111
     12          1           0       -0.065149   -1.826218   -0.894486
     13          1           0       -0.933391   -0.024796    1.539177
     14          1           0       -1.685291    1.470382   -1.058929
     15          1           0       -2.604571    1.425941    0.521623
     16          1           0       -2.684422   -0.900660    0.324717
 ---------------------------------------------------------------------

 SCF Done:  E(RHF) =  -286.920372070     A.U. after    2 cycles

 The electronic state is 1-A.
 Alpha  occ. eigenvalues --  -15.50732 -11.30317 -11.26846 -11.26665 -11.25765
 Alpha  occ. eigenvalues --  -11.25375 -11.22063  -1.26856  -1.11575  -0.99928
 Alpha  occ. eigenvalues --   -0.91304  -0.89620  -0.82505  -0.72871  -0.68365
 Alpha  occ. eigenvalues --   -0.65211  -0.64027  -0.63153  -0.60478  -0.55549
 Alpha  occ. eigenvalues --   -0.52852  -0.50836  -0.45291  -0.37826  -0.35616
 Alpha  occ. eigenvalues --   -0.34550
 Alpha virt. eigenvalues --    0.02996   0.03513   0.04154   0.04556   0.06003
 Alpha virt. eigenvalues --    0.06146   0.06569   0.07036   0.08055   0.09214
 Alpha virt. eigenvalues --    0.09758   0.11151   0.12314   0.13040   0.13582

 Mulliken charges:
               1
     1  C   -0.633797
     2  C    0.236281
     3  C   -0.162904
     4  C   -0.163174
     5  C   -1.070872
     6  C   -0.029627
     7  N    0.331500
     8  H    0.202592
     9  H    0.169380
    10  H    0.805896
    11  H    0.211808
    12  H    0.200967
    13  H   -0.244475
    14  H   -0.080707
    15  H   -0.055117
    16  H    0.282249
 Sum of Mulliken charges =  -0.00000

 Dipole moment (field-independent basis, Debye):
    X=             -2.0237    Y=              1.3760    Z=              1.7227  Tot=              2.9927

 Test job not archived.
 1\1\GINC-SE041\SP\RHF\Aug-CC-pVDZ\C6H9N1\OHZDE\09-Apr-2025\0\\#t hf au
 g-cc-pvdz iop(5/13=1,5/36=2,99/5=2) pseudo=read geom=check guess=(read
 ,tcheck) scf=(maxcycle=1)\\title\\0,1\C,0,1.7473303,0.79367451,1.14318
 397\C,0,2.11225927,-0.47264897,0.75530301\C,0,1.67631659,-1.48883933,0
 .20882847\C,0,0.39175578,-1.66535038,-0.27655401\C,0,-0.79210204,-0.04
 124689,0.25376492\C,0,-1.41964546,1.20611412,-0.3085822\N,0,-1.6106880
 2,-0.0531173,-0.97757041\H,0,2.08558608,1.64362489,0.5552626\H,0,1.607
 08934,1.00837232,2.1998041\H,0,0.47087549,0.43625344,0.60206057\H,0,-0

 Normal termination of Gaussian 16 at Wed Apr  9 18:43:54 2025.
