 Gaussian 16, Revision C.01,

 ----------------------------------------------------------------------
 #t hf aug-cc-pvdz symm=none int=(grid=ultrafine) guess=(read,tcheck) s
 table=(opt,rrhf)
 ----------------------------------------------------------------------
 -----
 title
 -----
 Symbolic Z-matrix:
 Charge =  0 Multiplicity = 1

 SCF Done:  E(RHF) =  -283.687296773     A.U. after   15 cycles
 Normal termination of Gaussian 16 at Wed Apr  9 03:16:19 2025.
 Gaussian 16:  ES64L-G16RevC.01  3-Jul-2019

 ----------------------------------------------------------------------
 #t hf aug-cc-pvdz iop(5/13=1,5/36=2,99/5=2) pseudo=read geom=check gue
 ss=(read,tcheck) scf=(maxcycle=1)
 ----------------------------------------------------------------------
 -----
 title
 -----
 Structure from the checkpoint file:  "Grambow2020_b97d3_006994_reverse_mol2.chk"
 Charge =  0 Multiplicity = 1

                         Standard orientation:
 ---------------------------------------------------------------------
 Center     Atomic      Atomic             Coordinates (Angstroms)
 Number     Number       Type             X           Y           Z
 ---------------------------------------------------------------------
      1          6           0        0.897098    1.407828   -0.000827
      2          6           0        1.026605   -0.110262    0.001756
      3          8           0        2.114551   -0.677305   -0.001295
      4          6           0       -0.232662   -0.899880    0.013529
      5          6           0       -1.445523   -0.352369    0.015318
      6          7           0       -2.538149    0.188823   -0.131057
      7          1           0        1.891111    1.856597   -0.093905
      8          1           0        0.432071    1.752187    0.935226
      9          1           0        0.258245    1.746698   -0.828957
     10          1           0       -3.065994    0.453814    0.707644
     11          1           0       -0.137904   -1.984525    0.029103
 ---------------------------------------------------------------------

 SCF Done:  E(RHF) =  -283.973298908     A.U. after    2 cycles

 The electronic state is 1-A.
 Alpha  occ. eigenvalues --  -20.53494 -15.56155 -11.36678 -11.35635 -11.26702
 Alpha  occ. eigenvalues --  -11.25301  -1.46030  -1.28016  -1.08541  -0.99870
 Alpha  occ. eigenvalues --   -0.84852  -0.79298  -0.70560  -0.66880  -0.62709
 Alpha  occ. eigenvalues --   -0.60514  -0.59988  -0.56338  -0.53553  -0.50902
 Alpha  occ. eigenvalues --   -0.42093  -0.38710
 Alpha virt. eigenvalues --    0.02270   0.04276   0.04716   0.05298   0.06672
 Alpha virt. eigenvalues --    0.08660   0.08861   0.09583   0.10262   0.11303
 Alpha virt. eigenvalues --    0.12955   0.13061   0.13764   0.15414   0.15715

 Mulliken charges:
               1
     1  C   -0.595555
     2  C    0.965902
     3  O   -1.345194
     4  C    1.340441
     5  C   -1.984504
     6  N    0.838750
     7  H    0.063325
     8  H    0.329826
     9  H    0.335837
    10  H    0.155415
    11  H   -0.104243
 Sum of Mulliken charges =   0.00000

 Dipole moment (field-independent basis, Debye):
    X=             -2.7781    Y=              1.3477    Z=              1.5557  Tot=              3.4575

 Test job not archived.
 1\1\GINC-SE049\SP\RHF\Aug-CC-pVDZ\C4H5N1O1\OHZDE\09-Apr-2025\0\\#t hf
 aug-cc-pvdz iop(5/13=1,5/36=2,99/5=2) pseudo=read geom=check guess=(re
 ad,tcheck) scf=(maxcycle=1)\\title\\0,1\C,0,-1.42926637,0.12515566,-0.
 27010797\C,0,-0.59166613,-0.67920368,0.71620199\O,0,-1.0875919,-1.4910
 4247,1.49089651\C,0,0.87674195,-0.44880349,0.70712264\C,0,1.48171601,0
 .41623887,-0.10313216\N,0,1.97980186,1.32543096,-0.76148275\H,0,-2.490
 31731,-0.08126477,-0.0978299\H,0,-1.17113617,-0.15141698,-1.30350301\H
 ,0,-1.23862297,1.20243669,-0.16108701\H,0,2.3244466,1.11143962,-1.7036

 Normal termination of Gaussian 16 at Wed Apr  9 03:16:23 2025.
