 Gaussian 16, Revision C.01,

 ----------------------------------------------------------------------
 #t hf aug-cc-pvdz symm=none int=(grid=ultrafine) guess=(read,tcheck) s
 table=(opt,rrhf)
 ----------------------------------------------------------------------
 -----
 title
 -----
 Symbolic Z-matrix:
 Charge =  0 Multiplicity = 1

 SCF Done:  E(RHF) =  -322.688699341     A.U. after   15 cycles
 Normal termination of Gaussian 16 at Wed Apr  9 03:52:38 2025.
 Gaussian 16:  ES64L-G16RevC.01  3-Jul-2019

 ----------------------------------------------------------------------
 #t hf aug-cc-pvdz iop(5/13=1,5/36=2,99/5=2) pseudo=read geom=check gue
 ss=(read,tcheck) scf=(maxcycle=1)
 ----------------------------------------------------------------------
 -----
 title
 -----
 Structure from the checkpoint file:  "Grambow2020_wb97xd3_008261_reverse_mol2.chk"
 Charge =  0 Multiplicity = 1

                         Standard orientation:
 ---------------------------------------------------------------------
 Center     Atomic      Atomic             Coordinates (Angstroms)
 Number     Number       Type             X           Y           Z
 ---------------------------------------------------------------------
      1          6           0        0.485016    1.621417   -0.277170
      2          6           0        0.107020    0.222733    0.140226
      3          7           0        2.365913   -0.703486   -0.237057
      4          6           0        1.167124   -0.821383    0.138762
      5          6           0       -0.981254    0.044757    1.267037
      6          6           0       -1.274506   -0.242637   -0.128495
      7          8           0       -2.063711   -0.571950   -0.953464
      8          1           0        0.863921    1.632033   -1.300868
      9          1           0        1.251870    2.030365    0.385107
     10          1           0       -0.379134    2.285730   -0.243870
     11          1           0        2.566354    0.239319   -0.570018
     12          1           0        0.853902   -1.801650    0.510393
     13          1           0       -1.386490    0.947556    1.709592
     14          1           0       -0.842520   -0.782676    1.954618
 ---------------------------------------------------------------------

 SCF Done:  E(RHF) =  -323.017923366     A.U. after    2 cycles

 The electronic state is 1-A.
 Alpha  occ. eigenvalues --  -20.57310 -15.50472 -11.36959 -11.30694 -11.28300
 Alpha  occ. eigenvalues --  -11.27770 -11.26212  -1.50539  -1.24085  -1.18440
 Alpha  occ. eigenvalues --   -1.00688  -0.90827  -0.82994  -0.77294  -0.71463
 Alpha  occ. eigenvalues --   -0.69089  -0.65290  -0.63521  -0.61283  -0.58266
 Alpha  occ. eigenvalues --   -0.57365  -0.53831  -0.51347  -0.47685  -0.44808
 Alpha  occ. eigenvalues --   -0.39226
 Alpha virt. eigenvalues --    0.02910   0.03556   0.03868   0.04845   0.05866
 Alpha virt. eigenvalues --    0.06431   0.07906   0.08424   0.09114   0.09797
 Alpha virt. eigenvalues --    0.11688   0.12131   0.13477   0.14074   0.14378

 Mulliken charges:
               1
     1  C   -0.476012
     2  C    0.573008
     3  N    0.921875
     4  C   -1.603507
     5  C    0.244607
     6  C    1.016235
     7  O   -1.227016
     8  H    0.304103
     9  H    0.264846
    10  H    0.047231
    11  H    0.116926
    12  H   -0.123579
    13  H   -0.036667
    14  H   -0.022049
 Sum of Mulliken charges =  -0.00000

 Dipole moment (field-independent basis, Debye):
    X=             -0.5763    Y=              2.5628    Z=              2.3869  Tot=              3.5493

 Test job not archived.
 1\1\GINC-SE021\SP\RHF\Aug-CC-pVDZ\C5H7N1O1\OHZDE\09-Apr-2025\0\\#t hf
 aug-cc-pvdz iop(5/13=1,5/36=2,99/5=2) pseudo=read geom=check guess=(re
 ad,tcheck) scf=(maxcycle=1)\\title\\0,1\C,0,-1.15978355,-0.75434486,-0
 .36933236\C,0,0.03592109,0.10482596,-0.04447413\N,0,-0.24263947,-0.101
 59008,2.40146417\C,0,0.38529567,0.30990957,1.38726491\C,0,1.27522647,0
 .06421601,-1.01822634\C,0,0.38047741,1.21017154,-0.97015639\O,0,0.0744
 1749,2.27807431,-1.39179036\H,0,-2.06877874,-0.33532984,0.06631907\H,0
 ,-1.02360973,-1.76931867,0.01171819\H,0,-1.31482491,-0.81621315,-1.446

 Normal termination of Gaussian 16 at Wed Apr  9 03:52:43 2025.
