 Gaussian 16, Revision C.01,

 ----------------------------------------------------------------------
 #t hf aug-cc-pvdz symm=none int=(grid=ultrafine) guess=(read,tcheck) s
 table=(opt,rrhf)
 ----------------------------------------------------------------------
 -----
 title
 -----
 Symbolic Z-matrix:
 Charge =  0 Multiplicity = 1

 SCF Done:  E(RHF) =  -343.703742909     A.U. after   14 cycles
 Normal termination of Gaussian 16 at Wed Apr  9 18:10:19 2025.
 Gaussian 16:  ES64L-G16RevC.01  3-Jul-2019

 ----------------------------------------------------------------------
 #t hf aug-cc-pvdz iop(5/13=1,5/36=2,99/5=2) pseudo=read geom=check gue
 ss=(read,tcheck) scf=(maxcycle=1)
 ----------------------------------------------------------------------
 -----
 title
 -----
 Structure from the checkpoint file:  "Grambow2020_wb97xd3_007151_reverse_mol2.chk"
 Charge =  0 Multiplicity = 1

                         Standard orientation:
 ---------------------------------------------------------------------
 Center     Atomic      Atomic             Coordinates (Angstroms)
 Number     Number       Type             X           Y           Z
 ---------------------------------------------------------------------
      1          8           0        2.340008    0.650918    0.499998
      2          6           0       -1.435994    0.455165   -0.008020
      3          6           0       -1.112395    1.702318   -0.267822
      4          6           0        1.784034   -0.089072   -0.461600
      5          8           0        1.484768   -1.242064   -0.346897
      6          6           0       -1.522748   -0.631223    0.964887
      7          6           0       -1.960312   -0.820613   -0.487981
      8          1           0        2.433260    0.090159    1.282035
      9          1           0       -1.246169    2.122373   -1.258449
     10          1           0       -0.705782    2.349301    0.501147
     11          1           0        1.647748    0.509050   -1.369758
     12          1           0       -2.292877   -0.582821    1.725988
     13          1           0       -0.607185   -1.127142    1.266616
     14          1           0       -1.321367   -1.431316   -1.115087
     15          1           0       -3.021344   -0.899884   -0.694093
 ---------------------------------------------------------------------

 SCF Done:  E(RHF) =  -344.055700645     A.U. after    2 cycles

 The electronic state is 1-A.
 Alpha  occ. eigenvalues --  -20.61247 -20.54977 -11.40255 -11.25022 -11.23789
 Alpha  occ. eigenvalues --  -11.23759 -11.23243  -1.56277  -1.46699  -1.15599
 Alpha  occ. eigenvalues --   -0.98264  -0.89916  -0.83341  -0.73489  -0.72916
 Alpha  occ. eigenvalues --   -0.71490  -0.65853  -0.65254  -0.63109  -0.60650
 Alpha  occ. eigenvalues --   -0.59733  -0.52597  -0.48680  -0.46085  -0.44618
 Alpha  occ. eigenvalues --   -0.43066  -0.37337
 Alpha virt. eigenvalues --    0.03508   0.03760   0.04191   0.04655   0.05733
 Alpha virt. eigenvalues --    0.06444   0.06835   0.08556   0.10229   0.10487
 Alpha virt. eigenvalues --    0.12383   0.13198   0.13335   0.13767   0.14557

 Mulliken charges:
               1
     1  O   -0.961802
     2  C    0.162424
     3  C   -0.082898
     4  C    1.483589
     5  O   -0.936904
     6  C    0.147983
     7  C    0.047500
     8  H    0.316718
     9  H   -0.141915
    10  H   -0.152895
    11  H    0.109681
    12  H    0.006048
    13  H   -0.012080
    14  H    0.012765
    15  H    0.001786
 Sum of Mulliken charges =   0.00000

 Dipole moment (field-independent basis, Debye):
    X=              0.3950    Y=              0.8902    Z=              0.4931  Tot=              1.0916

 Test job not archived.
 1\1\GINC-SE113\SP\RHF\Aug-CC-pVDZ\C5H8O2\OHZDE\09-Apr-2025\0\\#t hf au
 g-cc-pvdz iop(5/13=1,5/36=2,99/5=2) pseudo=read geom=check guess=(read
 ,tcheck) scf=(maxcycle=1)\\title\\0,1\O,0,2.16685921,-1.17966633,-1.28
 501462\C,0,-0.67566842,-0.01734694,0.97853044\C,0,0.21657886,-0.550194
 69,1.78324922\C,0,1.84834155,0.10820079,-1.13904363\O,0,1.07949118,0.7
 0318376,-1.83687747\C,0,-1.63232899,-0.19519329,-0.11118709\C,0,-1.407
 90001,1.1687177,0.54267415\H,0,1.65715392,-1.52310702,-2.03132395\H,0,
 0.72882354,0.04808306,2.52846961\H,0,0.46425777,-1.60419208,1.72866567

 Normal termination of Gaussian 16 at Wed Apr  9 18:10:23 2025.
