 Gaussian 16, Revision C.01,

 ----------------------------------------------------------------------
 #t hf aug-cc-pvdz symm=none int=(grid=ultrafine) guess=(read,tcheck) s
 table=(opt,rrhf)
 ----------------------------------------------------------------------
 -----
 title
 -----
 Symbolic Z-matrix:
 Charge =  0 Multiplicity = 1

 SCF Done:  E(RHF) =  -338.520335933     A.U. after   17 cycles
 Normal termination of Gaussian 16 at Wed Apr  9 19:05:52 2025.
 Gaussian 16:  ES64L-G16RevC.01  3-Jul-2019

 ----------------------------------------------------------------------
 #t hf aug-cc-pvdz iop(5/13=1,5/36=2,99/5=2) pseudo=read geom=check gue
 ss=(read,tcheck) scf=(maxcycle=1)
 ----------------------------------------------------------------------
 -----
 title
 -----
 Structure from the checkpoint file:  "Grambow2020_wb97xd3_008560_forward_mol1.chk"
 Charge =  0 Multiplicity = 1

                         Standard orientation:
 ---------------------------------------------------------------------
 Center     Atomic      Atomic             Coordinates (Angstroms)
 Number     Number       Type             X           Y           Z
 ---------------------------------------------------------------------
      1          7           0        0.146929   -1.208149    0.057323
      2          6           0       -1.171727   -1.071006   -0.052785
      3          8           0       -1.843414   -0.018846   -0.095946
      4          6           0       -1.278986    1.353061    0.084746
      5          6           0        1.151880    1.181041   -0.168107
      6          6           0        1.145955   -0.203970    0.057908
      7          7           0        2.379353   -0.227867    0.050375
      8          1           0        0.502292   -2.153155    0.098038
      9          1           0       -1.741710   -1.993564   -0.124295
     10          1           0       -1.092936    1.401258    1.163929
     11          1           0       -2.151575    1.969689   -0.136648
     12          1           0        1.188365    1.562766   -1.176318
     13          1           0        1.276169    1.861136    0.658412
 ---------------------------------------------------------------------

 SCF Done:  E(RHF) =  -338.857402788     A.U. after    2 cycles

 The electronic state is 1-A.
 Alpha  occ. eigenvalues --  -20.63352 -15.60645 -15.48798 -11.43648 -11.31458
 Alpha  occ. eigenvalues --  -11.31113 -11.22096  -1.57746  -1.33224  -1.23763
 Alpha  occ. eigenvalues --   -1.00374  -0.95159  -0.91235  -0.85225  -0.76152
 Alpha  occ. eigenvalues --   -0.71550  -0.68997  -0.66808  -0.64725  -0.58555
 Alpha  occ. eigenvalues --   -0.57352  -0.56093  -0.49469  -0.42904  -0.40882
 Alpha  occ. eigenvalues --   -0.28254
 Alpha virt. eigenvalues --    0.01589   0.04185   0.04748   0.04883   0.06004
 Alpha virt. eigenvalues --    0.06456   0.07165   0.08865   0.09682   0.10944
 Alpha virt. eigenvalues --    0.11718   0.12321   0.13615   0.14056   0.14393

 Mulliken charges:
               1
     1  N    0.778774
     2  C    0.557766
     3  O   -1.118107
     4  C    0.065506
     5  C    0.261121
     6  C   -1.526900
     7  N    0.728940
     8  H    0.209539
     9  H    0.000508
    10  H    0.056495
    11  H   -0.055432
    12  H   -0.003919
    13  H    0.045709
 Sum of Mulliken charges =  -0.00000

 Dipole moment (field-independent basis, Debye):
    X=             -3.9455    Y=             -3.2435    Z=              0.1810  Tot=              5.1107

 Test job not archived.
 1\1\GINC-SE232\SP\RHF\Aug-CC-pVDZ\C4H6N2O1\OHZDE\09-Apr-2025\0\\#t hf
 aug-cc-pvdz iop(5/13=1,5/36=2,99/5=2) pseudo=read geom=check guess=(re
 ad,tcheck) scf=(maxcycle=1)\\title\\0,1\N,0,-0.72704513,1.07667636,-0.
 3902728\C,0,-1.55693322,0.04176041,-0.29016759\O,0,-1.29311701,-1.1400
 1632,0.01621813\C,0,0.08727472,-1.66917649,0.23499453\C,0,1.57279789,0
 .25950011,0.51079296\C,0,0.6546392,1.13822926,-0.08434751\N,0,1.479136
 59,2.05496948,-0.04324805\H,0,-1.13296667,1.95694923,-0.6754442\H,0,-2
 .60428645,0.25053012,-0.49159627\H,0,0.48602958,-1.74195699,-0.7834711

 Normal termination of Gaussian 16 at Wed Apr  9 19:05:57 2025.
