 Gaussian 16, Revision C.01,

 ----------------------------------------------------------------------
 #t hf aug-cc-pvdz symm=none int=(grid=ultrafine) guess=(read,tcheck) s
 table=(opt,rrhf)
 ----------------------------------------------------------------------
 -----
 title
 -----
 Symbolic Z-matrix:
 Charge =  0 Multiplicity = 1

 SCF Done:  E(RHF) =  -344.786100917     A.U. after   15 cycles

 1\1\GINC-SE069\Stability\RHF\Aug-CC-pVDZ\C5H10O2\OHZDE\09-Apr-2025\0\\
 #t hf aug-cc-pvdz symm=none int=(grid=ultrafine) guess=(read,tcheck) s
 table=(opt,rrhf)\\title\\0,1\C,0,-2.2279104,-0.3834598,-0.20602743\C,0
 ,-0.7436857,-0.32113091,-0.52709227\O,0,-0.42228775,0.8753693,-1.22645
 551\C,0,0.12418341,-0.45790075,0.72557959\C,0,1.62311943,-0.46814671,0
 .41725969\C,0,2.15659342,0.75700979,-0.04361358\O,0,2.25999294,1.58861
 859,0.92048651\H,0,-2.49103592,-1.33992464,0.24951304\H,0,-2.50350729,
 0.4073994,0.49890687\H,0,-2.82123158,-0.25819844,-1.11226311\H,0,-0.48

 Normal termination of Gaussian 16 at Wed Apr  9 03:34:36 2025.
 Gaussian 16:  ES64L-G16RevC.01  3-Jul-2019

 ----------------------------------------------------------------------
 #t hf aug-cc-pvdz iop(5/13=1,5/36=2,99/5=2) pseudo=read geom=check gue
 ss=(read,tcheck) scf=(maxcycle=1)
 ----------------------------------------------------------------------
 -----
 title
 -----
 Structure from the checkpoint file:  "Grambow2020_wb97xd3_007086_forward_mol1.chk"
 Charge =  0 Multiplicity = 1

                         Standard orientation:
 ---------------------------------------------------------------------
 Center     Atomic      Atomic             Coordinates (Angstroms)
 Number     Number       Type             X           Y           Z
 ---------------------------------------------------------------------
      1          6           0        2.590732   -0.159093   -0.369447
      2          6           0        1.259043   -0.006818    0.347009
      3          8           0        0.789764    1.334198    0.273043
      4          6           0        0.201308   -0.973843   -0.188853
      5          6           0       -1.127165   -0.886212    0.565770
      6          6           0       -1.856577    0.309304    0.374177
      7          8           0       -2.399250    0.319595   -0.782176
      8          1           0        2.995128   -1.164275   -0.236593
      9          1           0        2.472216    0.012100   -1.444152
     10          1           0        3.316463    0.558251    0.014890
     11          1           0        1.397495   -0.186995    1.417173
     12          1           0        0.762983    1.593669   -0.651828
     13          1           0        0.067661   -0.769589   -1.257326
     14          1           0        0.575564   -1.998512   -0.123320
     15          1           0       -1.045956   -1.253733    1.588102
     16          1           0       -2.018226   -0.857747   -0.663919
     17          1           0       -2.051484    1.136460    1.058109
 ---------------------------------------------------------------------

 SCF Done:  E(RHF) =  -345.145930730     A.U. after    2 cycles

 The electronic state is 1-A.
 Alpha  occ. eigenvalues --  -20.57337 -20.55190 -11.36196 -11.28679 -11.24333
 Alpha  occ. eigenvalues --  -11.23154 -11.20739  -1.50745  -1.45588  -1.07957
 Alpha  occ. eigenvalues --   -1.01476  -0.92258  -0.83752  -0.80356  -0.72267
 Alpha  occ. eigenvalues --   -0.66615  -0.65695  -0.62692  -0.62202  -0.59766
 Alpha  occ. eigenvalues --   -0.55670  -0.54261  -0.51863  -0.51268  -0.48355
 Alpha  occ. eigenvalues --   -0.47929  -0.44741  -0.32755
 Alpha virt. eigenvalues --    0.03497   0.03688   0.03911   0.04455   0.05870
 Alpha virt. eigenvalues --    0.06268   0.06784   0.06801   0.08371   0.09244
 Alpha virt. eigenvalues --    0.09978   0.11356   0.12877   0.13481   0.14412

 Mulliken charges:
               1
     1  C   -0.273094
     2  C    0.656716
     3  O   -1.352546
     4  C   -0.314131
     5  C   -0.485648
     6  C    1.290365
     7  O   -1.241948
     8  H    0.177013
     9  H    0.147990
    10  H    0.160516
    11  H    0.046492
    12  H    0.310500
    13  H   -0.004928
    14  H    0.160323
    15  H   -0.125011
    16  H    0.766789
    17  H    0.080601
 Sum of Mulliken charges =   0.00000

 Dipole moment (field-independent basis, Debye):
    X=              1.4069    Y=             -0.2826    Z=              0.2412  Tot=              1.4551

 Test job not archived.
 1\1\GINC-SE069\SP\RHF\Aug-CC-pVDZ\C5H10O2\OHZDE\09-Apr-2025\0\\#t hf a
 ug-cc-pvdz iop(5/13=1,5/36=2,99/5=2) pseudo=read geom=check guess=(rea
 d,tcheck) scf=(maxcycle=1)\\title\\0,1\C,0,-2.2279104,-0.3834598,-0.20
 602743\C,0,-0.7436857,-0.32113091,-0.52709227\O,0,-0.42228775,0.875369
 3,-1.22645551\C,0,0.12418341,-0.45790075,0.72557959\C,0,1.62311943,-0.
 46814671,0.41725969\C,0,2.15659342,0.75700979,-0.04361358\O,0,2.259992
 94,1.58861859,0.92048651\H,0,-2.49103592,-1.33992464,0.24951304\H,0,-2
 .50350729,0.4073994,0.49890687\H,0,-2.82123158,-0.25819844,-1.11226311

 Normal termination of Gaussian 16 at Wed Apr  9 03:34:42 2025.
