 Gaussian 16, Revision C.01,

 ----------------------------------------------------------------------
 #t hf aug-cc-pvdz symm=none int=(grid=ultrafine) guess=(read,tcheck) s
 table=(opt,rrhf)
 ----------------------------------------------------------------------
 -----
 title
 -----
 Symbolic Z-matrix:
 Charge =  0 Multiplicity = 1

 SCF Done:  E(RHF) =  -322.566843709     A.U. after   15 cycles
 Normal termination of Gaussian 16 at Wed Apr  9 03:33:23 2025.
 Gaussian 16:  ES64L-G16RevC.01  3-Jul-2019

 ----------------------------------------------------------------------
 #t hf aug-cc-pvdz iop(5/13=1,5/36=2,99/5=2) pseudo=read geom=check gue
 ss=(read,tcheck) scf=(maxcycle=1)
 ----------------------------------------------------------------------
 -----
 title
 -----
 Structure from the checkpoint file:  "Grambow2020_wb97xd3_007021_forward_mol1.chk"
 Charge =  0 Multiplicity = 1

                         Standard orientation:
 ---------------------------------------------------------------------
 Center     Atomic      Atomic             Coordinates (Angstroms)
 Number     Number       Type             X           Y           Z
 ---------------------------------------------------------------------
      1          6           0        0.478918    1.872183   -0.412945
      2          6           0        0.011464    0.695744    0.433121
      3          6           0       -1.361845    0.310351    0.238239
      4          6           0       -2.288779   -0.434811   -0.069338
      5          7           0        0.071738   -1.654471   -0.284184
      6          6           0        0.834679   -0.663040    0.055356
      7          8           0        2.047797   -0.479183    0.169348
      8          1           0        0.038941    2.817386   -0.090856
      9          1           0        0.244615    1.707910   -1.465750
     10          1           0        1.561170    1.924790   -0.309171
     11          1           0        0.196648    0.870830    1.494804
     12          1           0       -2.455153    0.882422    0.340580
     13          1           0       -3.161896   -1.008500   -0.301105
     14          1           0        0.644520   -2.462637   -0.500597
 ---------------------------------------------------------------------

 SCF Done:  E(RHF) =  -322.896628271     A.U. after    2 cycles

 The electronic state is 1-A.
 Alpha  occ. eigenvalues --  -20.44401 -15.41355 -11.39440 -11.37802 -11.30267
 Alpha  occ. eigenvalues --  -11.27865 -11.24349  -1.38927  -1.22254  -1.13090
 Alpha  occ. eigenvalues --   -1.07204  -0.91741  -0.84284  -0.75237  -0.70336
 Alpha  occ. eigenvalues --   -0.67380  -0.63604  -0.59041  -0.58316  -0.54678
 Alpha  occ. eigenvalues --   -0.53863  -0.51265  -0.49045  -0.42890  -0.35376
 Alpha  occ. eigenvalues --   -0.33934
 Alpha virt. eigenvalues --    0.00536   0.02112   0.03539   0.04141   0.04920
 Alpha virt. eigenvalues --    0.05805   0.06863   0.07509   0.08218   0.10289
 Alpha virt. eigenvalues --    0.10819   0.11559   0.11965   0.12787   0.13515

 Mulliken charges:
               1
     1  C   -0.111731
     2  C   -1.021479
     3  C    0.857693
     4  C    0.012160
     5  N    0.542799
     6  C    0.232229
     7  O   -1.369431
     8  H    0.125022
     9  H    0.212242
    10  H    0.233537
    11  H    0.268807
    12  H    0.259771
    13  H   -0.304394
    14  H    0.062775
 Sum of Mulliken charges =  -0.00000

 Dipole moment (field-independent basis, Debye):
    X=             -9.2503    Y=              3.6877    Z=              0.4595  Tot=              9.9688

 Test job not archived.
 1\1\GINC-SE462\SP\RHF\Aug-CC-pVDZ\C5H7N1O1\OHZDE\09-Apr-2025\0\\#t hf
 aug-cc-pvdz iop(5/13=1,5/36=2,99/5=2) pseudo=read geom=check guess=(re
 ad,tcheck) scf=(maxcycle=1)\\title\\0,1\C,0,-1.71891452,0.10694703,0.2
 771138\C,0,-0.40395302,0.17174138,-0.48775632\C,0,0.61316883,0.9938256
 3,0.11401182\C,0,1.69971106,1.24205186,0.63062193\N,0,1.51465122,-1.31
 490341,-0.09979185\C,0,0.30430738,-1.29771652,-0.56355372\O,0,-0.46514
 337,-2.12336106,-1.05823415\H,0,-2.27469295,1.04481232,0.22970298\H,0,
 -1.54538843,-0.15460472,1.3219873\H,0,-2.30996067,-0.68539777,-0.17858

 Normal termination of Gaussian 16 at Wed Apr  9 03:33:27 2025.
