 Gaussian 16, Revision C.01,

 ----------------------------------------------------------------------
 #t hf aug-cc-pvdz symm=none int=(grid=ultrafine) guess=(read,tcheck) s
 table=(opt,rrhf)
 ----------------------------------------------------------------------
 -----
 title
 -----
 Symbolic Z-matrix:
 Charge =  0 Multiplicity = 1

 SCF Done:  E(RHF) =  -281.269937601     A.U. after   16 cycles
 Normal termination of Gaussian 16 at Wed Apr  9 03:05:34 2025.
 Gaussian 16:  ES64L-G16RevC.01  3-Jul-2019

 ----------------------------------------------------------------------
 #t hf aug-cc-pvdz iop(5/13=1,5/36=2,99/5=2) pseudo=read geom=check gue
 ss=(read,tcheck) scf=(maxcycle=1)
 ----------------------------------------------------------------------
 -----
 title
 -----
 Structure from the checkpoint file:  "Grambow2020_b97d3_006503_reverse_mol2.chk"
 Charge =  0 Multiplicity = 1

                         Standard orientation:
 ---------------------------------------------------------------------
 Center     Atomic      Atomic             Coordinates (Angstroms)
 Number     Number       Type             X           Y           Z
 ---------------------------------------------------------------------
      1          8           0       -2.502490   -0.639885    0.000329
      2          6           0       -1.498612   -0.020496   -0.000320
      3          6           0       -0.534465    0.871022   -0.000613
      4          6           0        0.807879    0.936568    0.000299
      5          6           0        2.410316   -1.074506   -0.000309
      6          7           0        1.653036   -0.149897    0.000318
      7          1           0        1.337963    1.892826    0.000798
 ---------------------------------------------------------------------

 SCF Done:  E(RHF) =  -281.532202936     A.U. after    2 cycles

 The electronic state is 1-A.
 Alpha  occ. eigenvalues --  -20.64183 -15.57836 -11.43093 -11.39012 -11.34215
 Alpha  occ. eigenvalues --  -11.27527  -1.56564  -1.31823  -1.13382  -1.02097
 Alpha  occ. eigenvalues --   -0.86105  -0.76257  -0.73267  -0.64429  -0.63992
 Alpha  occ. eigenvalues --   -0.61236  -0.55388  -0.52756  -0.41940  -0.39806
 Alpha virt. eigenvalues --   -0.00724   0.02837   0.06397   0.07546   0.07738
 Alpha virt. eigenvalues --    0.08566   0.08741   0.10223   0.10667   0.11782
 Alpha virt. eigenvalues --    0.12511   0.13686   0.14595   0.15090   0.15752

 Mulliken charges:
               1
     1  O   -0.860110
     2  C    0.545202
     3  C    0.516026
     4  C   -0.376358
     5  C   -0.359479
     6  N    0.541484
     7  H   -0.006765
 Sum of Mulliken charges =   0.00000

 Dipole moment (field-independent basis, Debye):
    X=              0.8607    Y=              1.4648    Z=              0.0004  Tot=              1.6989

 Test job not archived.
 1\1\GINC-SE024\SP\RHF\Aug-CC-pVDZ\C4H1N1O1\OHZDE\09-Apr-2025\0\\#t hf
 aug-cc-pvdz iop(5/13=1,5/36=2,99/5=2) pseudo=read geom=check guess=(re
 ad,tcheck) scf=(maxcycle=1)\\title\\0,1\O,0,-0.70735497,-2.77518438,0.
 28148724\C,0,-0.16659985,-1.73409318,0.15849505\C,0,0.64790645,-0.7135
 4725,0.01902908\C,0,0.61196839,0.62522222,-0.09317838\C,0,-1.50979645,
 2.07783657,-0.0774491\N,0,-0.53277238,1.38953332,-0.08339402\H,0,1.523
 5338,1.2187617,-0.20352788\\Version=ES64L-G16RevC.01\State=1-A\HF=-281
 .5322029\RMSD=1.992e-02\Dipole=0.5479136,0.3767476,-0.0678707\Quadrupo

 Normal termination of Gaussian 16 at Wed Apr  9 03:05:37 2025.
