 Gaussian 16, Revision C.01,

 ----------------------------------------------------------------------
 #t hf aug-cc-pvdz symm=none int=(grid=ultrafine) guess=(read,tcheck) s
 table=(opt,rrhf)
 ----------------------------------------------------------------------
 -----
 title
 -----
 Symbolic Z-matrix:
 Charge =  0 Multiplicity = 1

 SCF Done:  E(RHF) =  -320.251100006     A.U. after   18 cycles
 Normal termination of Gaussian 16 at Wed Apr  9 18:30:07 2025.
 Gaussian 16:  ES64L-G16RevC.01  3-Jul-2019

 ----------------------------------------------------------------------
 #t hf aug-cc-pvdz iop(5/13=1,5/36=2,99/5=2) pseudo=read geom=check gue
 ss=(read,tcheck) scf=(maxcycle=1)
 ----------------------------------------------------------------------
 -----
 title
 -----
 Structure from the checkpoint file:  "Grambow2020_wb97xd3_007647_forward_mol1.chk"
 Charge =  0 Multiplicity = 1

                         Standard orientation:
 ---------------------------------------------------------------------
 Center     Atomic      Atomic             Coordinates (Angstroms)
 Number     Number       Type             X           Y           Z
 ---------------------------------------------------------------------
      1          7           0       -3.058172   -0.295770   -0.195589
      2          6           0       -1.945788   -0.041262   -0.078691
      3          6           0       -0.539162    0.244852    0.014788
      4          6           0       -0.017539    1.477119    0.266836
      5          8           0        2.493766    0.282520   -0.231348
      6          6           0        1.806497   -0.696019   -0.055398
      7          6           0        0.395733   -0.745822    0.309811
      8          1           0        0.979606    1.735051   -0.106186
      9          1           0        2.225655   -1.706750   -0.219386
     10          1           0        0.053362   -1.651270    0.801401
 ---------------------------------------------------------------------

 SCF Done:  E(RHF) =  -320.561062225     A.U. after    2 cycles

 The electronic state is 1-A.
 Alpha  occ. eigenvalues --  -20.58135 -15.54699 -11.38234 -11.35071 -11.32316
 Alpha  occ. eigenvalues --  -11.31968 -11.30966  -1.51308  -1.26860  -1.18157
 Alpha  occ. eigenvalues --   -1.01827  -0.91222  -0.84244  -0.72907  -0.71877
 Alpha  occ. eigenvalues --   -0.67633  -0.65662  -0.63442  -0.57864  -0.56203
 Alpha  occ. eigenvalues --   -0.53395  -0.46501  -0.46401  -0.36989
 Alpha virt. eigenvalues --   -0.02290   0.02250   0.04220   0.04534   0.05314
 Alpha virt. eigenvalues --    0.07014   0.08646   0.09322   0.10093   0.10866
 Alpha virt. eigenvalues --    0.12330   0.12757   0.13380   0.13874   0.14327

 Mulliken charges:
               1
     1  N    1.007314
     2  C   -2.400438
     3  C    1.545505
     4  C   -0.218270
     5  O   -1.172589
     6  C    0.869855
     7  C    0.286339
     8  H    0.094046
     9  H    0.135208
    10  H   -0.146969
 Sum of Mulliken charges =   0.00000

 Dipole moment (field-independent basis, Debye):
    X=              3.1238    Y=             -2.1191    Z=              0.0284  Tot=              3.7748

 Test job not archived.
 1\1\GINC-SE162\SP\RHF\Aug-CC-pVDZ\C5H3N1O1\OHZDE\09-Apr-2025\0\\#t hf
 aug-cc-pvdz iop(5/13=1,5/36=2,99/5=2) pseudo=read geom=check guess=(re
 ad,tcheck) scf=(maxcycle=1)\\title\\0,1\N,0,3.06079136,-1.25385941,0.0
 843147\C,0,2.09396867,-0.63715434,0.05662805\C,0,0.85881078,0.10001892
 ,0.06905241\C,0,0.77097978,1.45871804,0.05107045\O,0,-2.00088246,1.072
 92916,0.4381825\C,0,-1.66619172,-0.02898474,0.07129989\C,0,-0.34198227
 ,-0.46802726,-0.35275779\H,0,-0.0946185,1.95627784,0.50178962\H,0,-2.3
 9418504,-0.86214072,0.07757434\H,0,-0.3039076,-1.33562848,-1.00431918\

 Normal termination of Gaussian 16 at Wed Apr  9 18:30:10 2025.
