 Gaussian 16, Revision C.01,

 ----------------------------------------------------------------------
 #t hf aug-cc-pvdz symm=none int=(grid=ultrafine) guess=(read,tcheck) s
 table=(opt,rrhf)
 ----------------------------------------------------------------------
 -----
 title
 -----
 Symbolic Z-matrix:
 Charge =  0 Multiplicity = 1

 SCF Done:  E(RHF) =  -302.785951241     A.U. after   16 cycles
 Normal termination of Gaussian 16 at Wed Apr  9 19:11:01 2025.
 Gaussian 16:  ES64L-G16RevC.01  3-Jul-2019

 ----------------------------------------------------------------------
 #t hf aug-cc-pvdz iop(5/13=1,5/36=2,99/5=2) pseudo=read geom=check gue
 ss=(read,tcheck) scf=(maxcycle=1)
 ----------------------------------------------------------------------
 -----
 title
 -----
 Structure from the checkpoint file:  "Grambow2020_wb97xd3_008843_reverse_mol1.chk"
 Charge =  0 Multiplicity = 1

                         Standard orientation:
 ---------------------------------------------------------------------
 Center     Atomic      Atomic             Coordinates (Angstroms)
 Number     Number       Type             X           Y           Z
 ---------------------------------------------------------------------
      1          6           0        0.682030    1.593641   -0.215993
      2          6           0        0.714917    0.129627    0.208204
      3          6           0       -0.571942   -0.312175    0.950471
      4          6           0       -1.779378   -0.175314    0.143432
      5          7           0       -2.701712   -0.071198   -0.531509
      6          6           0        1.126453   -0.870809   -0.933785
      7          7           0        1.879347   -0.453862    0.583571
      8          1           0       -0.192060    1.823716   -0.827945
      9          1           0        0.644864    2.222981    0.675507
     10          1           0        1.589812    1.839615   -0.765099
     11          1           0       -0.678894    0.298073    1.849884
     12          1           0       -0.459867   -1.349518    1.267199
     13          1           0        1.344435   -0.310278   -1.836102
     14          1           0        0.386786   -1.661818   -1.013208
     15          1           0        2.088989   -1.377169   -0.628659
 ---------------------------------------------------------------------

 SCF Done:  E(RHF) =  -303.095147732     A.U. after    2 cycles

 The electronic state is 1-A.
 Alpha  occ. eigenvalues --  -15.52790 -15.51656 -11.31492 -11.29493 -11.29407
 Alpha  occ. eigenvalues --  -11.28566 -11.24592  -1.26876  -1.24094  -1.06412
 Alpha  occ. eigenvalues --   -0.99224  -0.94548  -0.79642  -0.72115  -0.68686
 Alpha  occ. eigenvalues --   -0.66951  -0.62108  -0.60273  -0.60039  -0.58516
 Alpha  occ. eigenvalues --   -0.56710  -0.55124  -0.50770  -0.50026  -0.48876
 Alpha  occ. eigenvalues --   -0.41493
 Alpha virt. eigenvalues --    0.03261   0.03713   0.04079   0.04849   0.05103
 Alpha virt. eigenvalues --    0.05281   0.07067   0.08319   0.09769   0.09914
 Alpha virt. eigenvalues --    0.10775   0.12610   0.13659   0.14144   0.14233

 Mulliken charges:
               1
     1  C   -0.248010
     2  C   -2.176755
     3  C    0.090062
     4  C   -1.358944
     5  N    0.904083
     6  C   -0.140421
     7  N    0.818985
     8  H    0.337138
     9  H    0.213594
    10  H    0.173635
    11  H    0.280482
    12  H    0.258947
    13  H    0.173728
    14  H    0.175631
    15  H    0.497846
 Sum of Mulliken charges =  -0.00000

 Dipole moment (field-independent basis, Debye):
    X=              2.2013    Y=             -0.1434    Z=              0.3358  Tot=              2.2314

 Test job not archived.
 1\1\GINC-SE029\SP\RHF\Aug-CC-pVDZ\C5H8N2\OHZDE\09-Apr-2025\0\\#t hf au
 g-cc-pvdz iop(5/13=1,5/36=2,99/5=2) pseudo=read geom=check guess=(read
 ,tcheck) scf=(maxcycle=1)\\title\\0,1\C,0,-0.95485308,1.21867786,-0.22
 089073\C,0,-0.33258583,-0.1659884,-0.3617527\C,0,1.17291421,-0.1162485
 4,-0.72665188\C,0,1.98639329,0.56834424,0.27211173\N,0,2.59256236,1.09
 618008,1.09127825\C,0,-0.63108637,-1.13977151,0.83700398\N,0,-1.056634
 6,-1.20091346,-0.85362726\H,0,-0.42156526,1.83605725,0.5043007\H,0,-0.
 91916081,1.72617445,-1.18701424\H,0,-1.99935525,1.1260844,0.07326921\H

 Normal termination of Gaussian 16 at Wed Apr  9 19:11:06 2025.
