 Gaussian 16, Revision C.01,

 ----------------------------------------------------------------------
 #t hf aug-cc-pvdz symm=none int=(grid=ultrafine) guess=(read,tcheck) s
 table=(opt,rrhf)
 ----------------------------------------------------------------------
 -----
 title
 -----
 Symbolic Z-matrix:
 Charge =  0 Multiplicity = 1

 SCF Done:  E(RHF) =  -323.737672218     A.U. after   16 cycles
 Normal termination of Gaussian 16 at Wed Apr  9 18:28:55 2025.
 Gaussian 16:  ES64L-G16RevC.01  3-Jul-2019

 ----------------------------------------------------------------------
 #t hf aug-cc-pvdz iop(5/13=1,5/36=2,99/5=2) pseudo=read geom=check gue
 ss=(read,tcheck) scf=(maxcycle=1)
 ----------------------------------------------------------------------
 -----
 title
 -----
 Structure from the checkpoint file:  "Grambow2020_wb97xd3_007618_forward_mol1.chk"
 Charge =  0 Multiplicity = 1

                         Standard orientation:
 ---------------------------------------------------------------------
 Center     Atomic      Atomic             Coordinates (Angstroms)
 Number     Number       Type             X           Y           Z
 ---------------------------------------------------------------------
      1          6           0       -2.036016    0.366363    0.261891
      2          6           0       -1.087870   -0.559450   -0.386615
      3          7           0        0.906985   -0.561265   -0.960648
      4          6           0        0.100958   -1.204037    0.121549
      5          6           0        0.858055   -0.385274    1.155478
      6          6           0        1.186694    0.624409   -0.024485
      7          8           0        0.367069    1.600385   -0.201167
      8          1           0       -1.656037    0.789239    1.184424
      9          1           0       -2.323175    1.176472   -0.404990
     10          1           0       -2.939130   -0.234862    0.459295
     11          1           0       -1.431931   -0.983749   -1.328607
     12          1           0        0.531456   -0.347552   -1.880915
     13          1           0        0.115657   -2.293068    0.140266
     14          1           0        1.729442   -0.924646    1.524089
     15          1           0        0.289004    0.039500    1.978653
     16          1           0        2.268341    0.852370   -0.105252
 ---------------------------------------------------------------------

 SCF Done:  E(RHF) =  -324.075040707     A.U. after    2 cycles

 The electronic state is 1-A.
 Alpha  occ. eigenvalues --  -20.40652 -15.51822 -11.38125 -11.30637 -11.28339
 Alpha  occ. eigenvalues --  -11.27008 -11.22505  -1.35274  -1.24636  -1.09003
 Alpha  occ. eigenvalues --   -0.99957  -0.95263  -0.81945  -0.77766  -0.73213
 Alpha  occ. eigenvalues --   -0.69290  -0.64541  -0.60552  -0.59746  -0.57020
 Alpha  occ. eigenvalues --   -0.56382  -0.52994  -0.52034  -0.49907  -0.42918
 Alpha  occ. eigenvalues --   -0.33471  -0.31369
 Alpha virt. eigenvalues --    0.01926   0.02564   0.03389   0.03453   0.04824
 Alpha virt. eigenvalues --    0.05917   0.05944   0.06484   0.07465   0.08368
 Alpha virt. eigenvalues --    0.10691   0.12577   0.12711   0.12920   0.14104

 Mulliken charges:
               1
     1  C   -0.603653
     2  C   -0.055234
     3  N    0.332407
     4  C    0.100907
     5  C    0.057836
     6  C    0.952926
     7  O   -1.553763
     8  H    0.210337
     9  H    0.307332
    10  H    0.256789
    11  H   -0.189869
    12  H    0.170712
    13  H   -0.118967
    14  H    0.069045
    15  H    0.000307
    16  H    0.062888
 Sum of Mulliken charges =  -0.00000

 Dipole moment (field-independent basis, Debye):
    X=             -4.3096    Y=             -5.0644    Z=              0.1906  Tot=              6.6526

 Test job not archived.
 1\1\GINC-SE112\SP\RHF\Aug-CC-pVDZ\C5H9N1O1\OHZDE\09-Apr-2025\0\\#t hf
 aug-cc-pvdz iop(5/13=1,5/36=2,99/5=2) pseudo=read geom=check guess=(re
 ad,tcheck) scf=(maxcycle=1)\\title\\0,1\C,0,-1.31462895,-1.2376173,0.6
 5498822\C,0,-1.09621567,-0.05723791,-0.20272423\N,0,0.27089263,1.49721
 485,-0.35652741\C,0,-0.03224104,0.2541056,-1.12904038\C,0,1.32292761,-
 0.30952925,-0.73103251\C,0,1.28004937,0.70519583,0.48891417\O,0,0.7735
 4095,0.27181789,1.58944267\H,0,-0.43184418,-1.85702621,0.76128416\H,0,
 -1.66669684,-0.95329105,1.64426789\H,0,-2.12435422,-1.80497835,0.16662

 Normal termination of Gaussian 16 at Wed Apr  9 18:29:01 2025.
