 Gaussian 16, Revision C.01,

 ----------------------------------------------------------------------
 #t hf aug-cc-pvdz symm=none int=(grid=ultrafine) guess=(read,tcheck) s
 table=(opt,rrhf)
 ----------------------------------------------------------------------
 -----
 title
 -----
 Symbolic Z-matrix:
 Charge =  0 Multiplicity = 1

 SCF Done:  E(RHF) =  -359.543803479     A.U. after   14 cycles
 Normal termination of Gaussian 16 at Wed Apr  9 03:46:27 2025.
 Gaussian 16:  ES64L-G16RevC.01  3-Jul-2019

 ----------------------------------------------------------------------
 #t hf aug-cc-pvdz iop(5/13=1,5/36=2,99/5=2) pseudo=read geom=check gue
 ss=(read,tcheck) scf=(maxcycle=1)
 ----------------------------------------------------------------------
 -----
 title
 -----
 Structure from the checkpoint file:  "Grambow2020_wb97xd3_007891_forward_mol1.chk"
 Charge =  0 Multiplicity = 1

                         Standard orientation:
 ---------------------------------------------------------------------
 Center     Atomic      Atomic             Coordinates (Angstroms)
 Number     Number       Type             X           Y           Z
 ---------------------------------------------------------------------
      1          6           0       -0.983383    1.621926   -0.045609
      2          6           0       -0.360464    0.289476    0.185037
      3          7           0       -1.046811   -0.776639    0.106708
      4          8           0       -2.393725   -0.828850   -0.181612
      5          6           0        1.085346    0.182430    0.514638
      6          6           0        1.914542   -0.908360    0.021829
      7          8           0        1.983181    0.379858   -0.568835
      8          1           0       -2.018054    1.500648   -0.360162
      9          1           0       -0.955679    2.215207    0.871663
     10          1           0       -0.422082    2.162541   -0.809525
     11          1           0       -1.566973   -1.771805    0.078528
     12          1           0        1.383319    0.694453    1.428339
     13          1           0        2.791352   -1.206983    0.588132
     14          1           0        1.463900   -1.678476   -0.595721
 ---------------------------------------------------------------------

 SCF Done:  E(RHF) =  -359.909845750     A.U. after    2 cycles

 The electronic state is 1-A.
 Alpha  occ. eigenvalues --  -20.58123 -20.52924 -15.60221 -11.32217 -11.31981
 Alpha  occ. eigenvalues --  -11.31188 -11.25024  -1.52363  -1.47941  -1.20210
 Alpha  occ. eigenvalues --   -1.01483  -0.97333  -0.90608  -0.84279  -0.76282
 Alpha  occ. eigenvalues --   -0.71779  -0.65850  -0.63604  -0.62247  -0.57287
 Alpha  occ. eigenvalues --   -0.57044  -0.56725  -0.54081  -0.47661  -0.46353
 Alpha  occ. eigenvalues --   -0.41859  -0.38451
 Alpha virt. eigenvalues --    0.03016   0.03836   0.04143   0.05312   0.06245
 Alpha virt. eigenvalues --    0.06347   0.07902   0.08848   0.09830   0.10958
 Alpha virt. eigenvalues --    0.12260   0.13335   0.13495   0.14466   0.14758

 Mulliken charges:
               1
     1  C   -0.237110
     2  C   -1.475498
     3  N    1.538605
     4  O   -1.409337
     5  C    1.329268
     6  C    0.521563
     7  O   -1.218307
     8  H    0.152288
     9  H    0.259509
    10  H    0.268002
    11  H    0.262439
    12  H   -0.017344
    13  H    0.033339
    14  H   -0.007417
 Sum of Mulliken charges =  -0.00000

 Dipole moment (field-independent basis, Debye):
    X=              2.3645    Y=              0.0646    Z=              1.8022  Tot=              2.9737

 Test job not archived.
 1\1\GINC-SE340\SP\RHF\Aug-CC-pVDZ\C4H7N1O2\OHZDE\09-Apr-2025\0\\#t hf
 aug-cc-pvdz iop(5/13=1,5/36=2,99/5=2) pseudo=read geom=check guess=(re
 ad,tcheck) scf=(maxcycle=1)\\title\\0,1\C,0,-1.35899662,-1.18776155,-0
 .23387433\C,0,-0.44626715,-0.01999257,-0.09284956\N,0,-0.8540752,1.072
 86042,0.41031379\O,0,-2.13592542,1.30445867,0.86115136\C,0,0.9678008,-
 0.11243253,-0.54266128\C,0,2.05384976,0.54183613,0.17335453\O,0,1.8379
 6691,-0.85471034,0.30044834\H,0,-2.32031626,-0.96761112,0.22611811\H,0
 ,-1.51306714,-1.42075477,-1.29033816\H,0,-0.9109484,-2.06336529,0.2388

 Normal termination of Gaussian 16 at Wed Apr  9 03:46:31 2025.
