 Gaussian 16, Revision C.01,

 ----------------------------------------------------------------------
 #t hf aug-cc-pvdz symm=none int=(grid=ultrafine) guess=(read,tcheck) s
 table=(opt,rrhf)
 ----------------------------------------------------------------------
 -----
 title
 -----
 Symbolic Z-matrix:
 Charge =  0 Multiplicity = 1

 SCF Done:  E(RHF) =  -357.297103413     A.U. after   17 cycles
 Normal termination of Gaussian 16 at Wed Apr  9 19:08:35 2025.
 Gaussian 16:  ES64L-G16RevC.01  3-Jul-2019

 ----------------------------------------------------------------------
 #t hf aug-cc-pvdz iop(5/13=1,5/36=2,99/5=2) pseudo=read geom=check gue
 ss=(read,tcheck) scf=(maxcycle=1)
 ----------------------------------------------------------------------
 -----
 title
 -----
 Structure from the checkpoint file:  "Grambow2020_wb97xd3_008639_reverse_mol1.chk"
 Charge =  0 Multiplicity = 1

                         Standard orientation:
 ---------------------------------------------------------------------
 Center     Atomic      Atomic             Coordinates (Angstroms)
 Number     Number       Type             X           Y           Z
 ---------------------------------------------------------------------
      1          7           0        1.830970    0.656119    0.783472
      2          6           0        1.525309   -0.241308   -0.020312
      3          6           0       -0.099674    1.079872   -0.644561
      4          6           0       -1.373607    1.134588   -0.123848
      5          6           0       -1.723187   -0.154737    0.144621
      6          8           0       -1.968175   -1.242020    0.347859
      7          8           0        1.510740   -1.250341   -0.614381
      8          1           0        2.631544    0.436587    1.365347
      9          1           0        0.303075    2.052419   -0.936729
     10          1           0       -2.064972    1.946567    0.083855
 ---------------------------------------------------------------------

 SCF Done:  E(RHF) =  -357.641856992     A.U. after    2 cycles

 The electronic state is 1-A.
 Alpha  occ. eigenvalues --  -20.68529 -20.56212 -15.48987 -11.46061 -11.40189
 Alpha  occ. eigenvalues --  -11.28662 -11.27805  -1.63712  -1.51505  -1.22948
 Alpha  occ. eigenvalues --   -1.13961  -0.89600  -0.81091  -0.79078  -0.73652
 Alpha  occ. eigenvalues --   -0.70242  -0.69743  -0.66834  -0.63355  -0.62392
 Alpha  occ. eigenvalues --   -0.59136  -0.48985  -0.43605  -0.42637  -0.37972
 Alpha virt. eigenvalues --    0.02636   0.04253   0.04698   0.05823   0.06797
 Alpha virt. eigenvalues --    0.09579   0.09644   0.10147   0.11273   0.11663
 Alpha virt. eigenvalues --    0.12601   0.12954   0.14040   0.14240   0.14533

 Mulliken charges:
               1
     1  N    0.579326
     2  C    0.021763
     3  C   -0.337776
     4  C    0.740675
     5  C    0.496955
     6  O   -0.745742
     7  O   -0.854928
     8  H    0.148737
     9  H   -0.011752
    10  H   -0.037258
 Sum of Mulliken charges =  -0.00000

 Dipole moment (field-independent basis, Debye):
    X=             -2.9872    Y=              1.7328    Z=              0.8520  Tot=              3.5570

 Test job not archived.
 1\1\GINC-SE168\SP\RHF\Aug-CC-pVDZ\C4H3N1O2\OHZDE\09-Apr-2025\0\\#t hf
 aug-cc-pvdz iop(5/13=1,5/36=2,99/5=2) pseudo=read geom=check guess=(re
 ad,tcheck) scf=(maxcycle=1)\\title\\0,1\N,0,1.87095663,-0.24112091,-0.
 43418026\C,0,1.45851124,0.57865735,0.40410599\C,0,-0.30740631,-0.69905
 722,0.56144115\C,0,-1.4634381,-0.61528365,-0.18261095\C,0,-1.70340271,
 0.71532152,-0.35157065\O,0,-1.86117058,1.83170693,-0.46248593\O,0,1.37
 543929,1.51418134,1.10351518\H,0,2.77414994,-0.00891868,-0.8316911\H,0
 ,-0.00656062,-1.72146476,0.80142437\H,0,-2.13707778,-1.35402292,-0.607

 Normal termination of Gaussian 16 at Wed Apr  9 19:08:39 2025.
