 Gaussian 16, Revision C.01,

 ----------------------------------------------------------------------
 #t hf aug-cc-pvdz symm=none int=(grid=ultrafine) guess=(read,tcheck) s
 table=(opt,rrhf)
 ----------------------------------------------------------------------
 -----
 title
 -----
 Symbolic Z-matrix:
 Charge =  0 Multiplicity = 1

 SCF Done:  E(RHF) =  -283.614283220     A.U. after   15 cycles
 Normal termination of Gaussian 16 at Wed Apr  9 03:09:43 2025.
 Gaussian 16:  ES64L-G16RevC.01  3-Jul-2019

 ----------------------------------------------------------------------
 #t hf aug-cc-pvdz iop(5/13=1,5/36=2,99/5=2) pseudo=read geom=check gue
 ss=(read,tcheck) scf=(maxcycle=1)
 ----------------------------------------------------------------------
 -----
 title
 -----
 Structure from the checkpoint file:  "Grambow2020_b97d3_006659_reverse_mol2.chk"
 Charge =  0 Multiplicity = 1

                         Standard orientation:
 ---------------------------------------------------------------------
 Center     Atomic      Atomic             Coordinates (Angstroms)
 Number     Number       Type             X           Y           Z
 ---------------------------------------------------------------------
      1          7           0        0.659243   -1.113831   -0.043112
      2          6           0        1.554470   -0.166902    0.224388
      3          6           0        0.773577    1.137538   -0.014032
      4          6           0       -0.661881    0.765327   -0.377433
      5          6           0       -0.706245   -0.697775   -0.374465
      6          8           0       -1.341187    0.022605    0.678761
      7          1           0        1.269697    1.704159   -0.817684
      8          1           0        0.826117    1.762602    0.890127
      9          1           0       -1.307599    1.380419   -1.007991
     10          1           0       -1.317614   -1.356904   -0.993444
     11          1           0        0.884665   -2.103427    0.049935
 ---------------------------------------------------------------------

 SCF Done:  E(RHF) =  -283.897629312     A.U. after    2 cycles

 The electronic state is 1-A.
 Alpha  occ. eigenvalues --  -20.57354 -15.55533 -11.34472 -11.30994 -11.26876
 Alpha  occ. eigenvalues --  -11.24949  -1.50829  -1.26759  -1.04038  -0.96050
 Alpha  occ. eigenvalues --   -0.84278  -0.83476  -0.75583  -0.67893  -0.61042
 Alpha  occ. eigenvalues --   -0.59998  -0.58974  -0.56016  -0.49881  -0.47551
 Alpha  occ. eigenvalues --   -0.44355  -0.36146
 Alpha virt. eigenvalues --    0.03008   0.03823   0.04641   0.05465   0.05883
 Alpha virt. eigenvalues --    0.09014   0.09201   0.10297   0.11364   0.12268
 Alpha virt. eigenvalues --    0.12978   0.13731   0.14399   0.15402   0.16458

 Mulliken charges:
               1
     1  N    0.618404
     2  C   -0.578728
     3  C   -0.308385
     4  C    0.793159
     5  C    0.326782
     6  O   -1.328049
     7  H    0.229749
     8  H    0.253536
     9  H   -0.007479
    10  H   -0.047517
    11  H    0.048528
 Sum of Mulliken charges =  -0.00000

 Dipole moment (field-independent basis, Debye):
    X=             -1.5902    Y=             -0.2950    Z=             -2.4512  Tot=              2.9367

 Test job not archived.
 1\1\GINC-SE105\SP\RHF\Aug-CC-pVDZ\C4H5N1O1\OHZDE\09-Apr-2025\0\\#t hf
 aug-cc-pvdz iop(5/13=1,5/36=2,99/5=2) pseudo=read geom=check guess=(re
 ad,tcheck) scf=(maxcycle=1)\\title\\0,1\N,0,0.74107767,1.02329619,-0.4
 1441628\C,0,1.5573327,-0.02258012,-0.51206104\C,0,0.79071286,-1.140538
 88,0.21640634\C,0,-0.5583692,-0.57571299,0.6546877\C,0,-0.56456237,0.8
 2195353,0.21979311\O,0,-1.3776668,-0.12673608,-0.4659411\H,0,1.3935850
 9,-1.48208134,1.07252714\H,0,0.68230016,-2.00447939,-0.45651475\H,0,-1
 .11119749,-0.93151195,1.52685838\H,0,-1.05218735,1.67548714,0.69419881

 Normal termination of Gaussian 16 at Wed Apr  9 03:09:47 2025.
