 Gaussian 16, Revision C.01,

 ----------------------------------------------------------------------
 #t hf aug-cc-pvdz symm=none int=(grid=ultrafine) guess=(read,tcheck) s
 table=(opt,rrhf)
 ----------------------------------------------------------------------
 -----
 title
 -----
 Symbolic Z-matrix:
 Charge =  0 Multiplicity = 1

 SCF Done:  E(RHF) =  -323.670066530     A.U. after   16 cycles
 Normal termination of Gaussian 16 at Wed Apr  9 17:48:06 2025.
 Gaussian 16:  ES64L-G16RevC.01  3-Jul-2019

 ----------------------------------------------------------------------
 #t hf aug-cc-pvdz iop(5/13=1,5/36=2,99/5=2) pseudo=read geom=check gue
 ss=(read,tcheck) scf=(maxcycle=1)
 ----------------------------------------------------------------------
 -----
 title
 -----
 Structure from the checkpoint file:  "Grambow2020_wb97xd3_006827_forward_mol1.chk"
 Charge =  0 Multiplicity = 1

                         Standard orientation:
 ---------------------------------------------------------------------
 Center     Atomic      Atomic             Coordinates (Angstroms)
 Number     Number       Type             X           Y           Z
 ---------------------------------------------------------------------
      1          6           0       -1.631571   -1.562883    0.294496
      2          6           0       -0.898314   -0.388695   -0.294491
      3          6           0       -1.504529    1.035804   -0.363313
      4          6           0       -0.221558    1.581606    0.391540
      5          6           0        0.299090    0.207898    0.106628
      6          7           0        1.342054   -0.397139   -0.434975
      7          8           0        2.556572   -0.275968    0.254513
      8          1           0       -2.313696   -2.011123   -0.430239
      9          1           0       -2.229301   -1.258776    1.162200
     10          1           0       -0.935261   -2.340252    0.615253
     11          1           0        0.313018   -1.130834   -0.922861
     12          1           0       -1.596136    1.452060   -1.367009
     13          1           0       -2.445178    1.171228    0.175992
     14          1           0       -0.441950    1.768922    1.441975
     15          1           0        0.324664    2.422600   -0.035414
     16          1           0        3.218177   -0.328479   -0.440333
 ---------------------------------------------------------------------

 SCF Done:  E(RHF) =  -324.008033381     A.U. after    2 cycles

 The electronic state is 1-A.
 Alpha  occ. eigenvalues --  -20.58333 -15.55562 -11.29353 -11.25492 -11.24639
 Alpha  occ. eigenvalues --  -11.23530 -11.21931  -1.49292  -1.22516  -1.10152
 Alpha  occ. eigenvalues --   -0.99421  -0.87880  -0.85960  -0.73422  -0.71548
 Alpha  occ. eigenvalues --   -0.67762  -0.64188  -0.62698  -0.57620  -0.56910
 Alpha  occ. eigenvalues --   -0.54525  -0.52715  -0.50105  -0.48532  -0.47748
 Alpha  occ. eigenvalues --   -0.39816  -0.32278
 Alpha virt. eigenvalues --    0.03647   0.04081   0.04165   0.04278   0.05608
 Alpha virt. eigenvalues --    0.06268   0.06621   0.07220   0.08050   0.10078
 Alpha virt. eigenvalues --    0.11591   0.13248   0.13521   0.13795   0.14582

 Mulliken charges:
               1
     1  C   -0.328163
     2  C   -0.435450
     3  C   -0.009890
     4  C   -0.114913
     5  C   -1.142251
     6  N    1.555851
     7  O   -1.192127
     8  H    0.204413
     9  H    0.214247
    10  H    0.141376
    11  H    0.543677
    12  H    0.057266
    13  H    0.025872
    14  H    0.150749
    15  H    0.049119
    16  H    0.280222
 Sum of Mulliken charges =   0.00000

 Dipole moment (field-independent basis, Debye):
    X=             -0.9138    Y=              0.9580    Z=             -0.0381  Tot=              1.3245

 Test job not archived.
 1\1\GINC-SE174\SP\RHF\Aug-CC-pVDZ\C5H9N1O1\OHZDE\09-Apr-2025\0\\#t hf
 aug-cc-pvdz iop(5/13=1,5/36=2,99/5=2) pseudo=read geom=check guess=(re
 ad,tcheck) scf=(maxcycle=1)\\title\\0,1\C,0,-1.6654279,-1.12613659,0.1
 606199\C,0,-0.57084512,-0.22847809,-0.34867994\C,0,-0.72863961,1.30833
 283,-0.47010367\C,0,0.57986224,1.4781632,0.40892815\C,0,0.70443097,0.0
 0615713,0.17017724\N,0,1.57361911,-0.88732025,-0.26958245\O,0,2.700015
 26,-1.10567368,0.53582629\H,0,-2.37628967,-1.37549047,-0.62928708\H,0,
 -2.22876678,-0.64145198,0.96709456\H,0,-1.25809552,-2.06357832,0.54444

 Normal termination of Gaussian 16 at Wed Apr  9 17:48:12 2025.
