 Gaussian 16, Revision C.01,

 ----------------------------------------------------------------------
 #t hf aug-cc-pvdz symm=none int=(grid=ultrafine) guess=(read,tcheck) s
 table=(opt,rrhf)
 ----------------------------------------------------------------------
 -----
 title
 -----
 Symbolic Z-matrix:
 Charge =  0 Multiplicity = 1

 SCF Done:  E(RHF) =  -338.549839767     A.U. after   16 cycles
 Normal termination of Gaussian 16 at Wed Apr  9 18:40:31 2025.
 Gaussian 16:  ES64L-G16RevC.01  3-Jul-2019

 ----------------------------------------------------------------------
 #t hf aug-cc-pvdz iop(5/13=1,5/36=2,99/5=2) pseudo=read geom=check gue
 ss=(read,tcheck) scf=(maxcycle=1)
 ----------------------------------------------------------------------
 -----
 title
 -----
 Structure from the checkpoint file:  "Grambow2020_wb97xd3_007962_forward_mol1.chk"
 Charge =  0 Multiplicity = 1

                         Standard orientation:
 ---------------------------------------------------------------------
 Center     Atomic      Atomic             Coordinates (Angstroms)
 Number     Number       Type             X           Y           Z
 ---------------------------------------------------------------------
      1          7           0       -1.798759   -0.973161    0.237818
      2          6           0       -0.842436   -0.188033    0.030826
      3          8           0       -0.876394    1.126658   -0.311807
      4          6           0        0.471872    1.463075    0.023135
      5          6           0        0.755283    0.167181    0.748811
      6          6           0        1.734751   -0.692271    0.094600
      7          7           0        0.470828   -0.942056   -0.636365
      8          1           0       -2.680202   -0.477207    0.289285
      9          1           0        1.042518    1.682608   -0.886368
     10          1           0        0.499851    2.311960    0.708612
     11          1           0        2.109826   -1.553977    0.638992
     12          1           0        2.480808   -0.222180   -0.541212
     13          1           0        0.137049   -1.847660   -0.309266
 ---------------------------------------------------------------------

 SCF Done:  E(RHF) =  -338.895845716     A.U. after    2 cycles

 The electronic state is 1-A.
 Alpha  occ. eigenvalues --  -20.59238 -15.57458 -15.46418 -11.40654 -11.31377
 Alpha  occ. eigenvalues --  -11.30400 -11.29154  -1.54305  -1.29297  -1.20654
 Alpha  occ. eigenvalues --   -1.02280  -0.95455  -0.89387  -0.76183  -0.74331
 Alpha  occ. eigenvalues --   -0.71738  -0.68406  -0.67056  -0.63509  -0.59826
 Alpha  occ. eigenvalues --   -0.55004  -0.51232  -0.50217  -0.46943  -0.44792
 Alpha  occ. eigenvalues --   -0.36316
 Alpha virt. eigenvalues --    0.03297   0.03909   0.04410   0.04475   0.05724
 Alpha virt. eigenvalues --    0.06437   0.07605   0.08857   0.10248   0.11655
 Alpha virt. eigenvalues --    0.12684   0.13884   0.13974   0.14782   0.15565

 Mulliken charges:
               1
     1  N    0.847852
     2  C   -0.509838
     3  O   -1.415782
     4  C    0.744430
     5  C   -0.582956
     6  C    0.066402
     7  N    0.064207
     8  H    0.169828
     9  H    0.046815
    10  H    0.126906
    11  H    0.038007
    12  H   -0.003453
    13  H    0.407583
 Sum of Mulliken charges =  -0.00000

 Dipole moment (field-independent basis, Debye):
    X=              3.6356    Y=              1.5497    Z=              0.1670  Tot=              3.9556

 Test job not archived.
 1\1\GINC-SE114\SP\RHF\Aug-CC-pVDZ\C4H6N2O1\OHZDE\09-Apr-2025\0\\#t hf
 aug-cc-pvdz iop(5/13=1,5/36=2,99/5=2) pseudo=read geom=check guess=(re
 ad,tcheck) scf=(maxcycle=1)\\title\\0,1\N,0,1.66153361,-1.34586298,-0.
 97349781\C,0,0.99894856,-0.46957555,-0.36775312\O,0,1.44082095,0.51692
 113,0.45598096\C,0,0.27371713,1.34193876,0.43603779\C,0,-0.3924477,0.6
 0139798,-0.70154454\C,0,-1.60408808,-0.11901087,-0.32878994\N,0,-0.496
 24544,-1.00568371,0.09629521\H,0,2.65525553,-1.15632932,-0.92705954\H,
 0,-0.21345829,1.32933104,1.41763271\H,0,0.52685183,2.36318146,0.145772

 Normal termination of Gaussian 16 at Wed Apr  9 18:40:35 2025.
