 Gaussian 16, Revision C.01,

 ----------------------------------------------------------------------
 #t hf aug-cc-pvdz symm=none int=(grid=ultrafine) guess=(read,tcheck) s
 table=(opt,rrhf)
 ----------------------------------------------------------------------
 -----
 title
 -----
 Symbolic Z-matrix:
 Charge =  0 Multiplicity = 1

 SCF Done:  E(RHF) =  -322.465845550     A.U. after   15 cycles
 Normal termination of Gaussian 16 at Wed Apr  9 17:17:31 2025.
 Gaussian 16:  ES64L-G16RevC.01  3-Jul-2019

 ----------------------------------------------------------------------
 #t hf aug-cc-pvdz iop(5/13=1,5/36=2,99/5=2) pseudo=read geom=check gue
 ss=(read,tcheck) scf=(maxcycle=1)
 ----------------------------------------------------------------------
 -----
 title
 -----
 Structure from the checkpoint file:  "Grambow2020_wb97xd3_006556_reverse_mol1.chk"
 Charge =  0 Multiplicity = 1

                         Standard orientation:
 ---------------------------------------------------------------------
 Center     Atomic      Atomic             Coordinates (Angstroms)
 Number     Number       Type             X           Y           Z
 ---------------------------------------------------------------------
      1          8           0       -2.243407   -0.207858    0.277537
      2          6           0       -1.118665    0.169991   -0.450454
      3          6           0        0.040730    0.891982    0.244366
      4          6           0        0.370422   -0.406946    1.043726
      5          6           0        2.042477   -0.046780    0.130362
      6          7           0        0.973720    0.324673   -0.813928
      7          6           0        0.039556   -0.813912   -0.426667
      8          1           0       -2.817896    0.551544    0.386126
      9          1           0       -1.348637    0.560586   -1.447835
     10          1           0        0.121579    1.929621    0.568138
     11          1           0        1.522771   -0.517005    1.325375
     12          1           0        2.646867    0.791489    0.477990
     13          1           0        2.645958   -0.898796   -0.183542
     14          1           0        0.113456   -1.793295   -0.897049
 ---------------------------------------------------------------------

 SCF Done:  E(RHF) =  -322.798285320     A.U. after    2 cycles

 The electronic state is 1-A.
 Alpha  occ. eigenvalues --  -20.55804 -15.52175 -11.31690 -11.30068 -11.28362
 Alpha  occ. eigenvalues --  -11.28292 -11.25672  -1.46940  -1.33436  -1.05898
 Alpha  occ. eigenvalues --   -0.95694  -0.90183  -0.87150  -0.73336  -0.71414
 Alpha  occ. eigenvalues --   -0.70585  -0.66009  -0.62457  -0.58413  -0.55578
 Alpha  occ. eigenvalues --   -0.52051  -0.51637  -0.47642  -0.46531  -0.43606
 Alpha  occ. eigenvalues --   -0.31121
 Alpha virt. eigenvalues --    0.03227   0.03671   0.04193   0.04868   0.05185
 Alpha virt. eigenvalues --    0.05640   0.06199   0.10141   0.11265   0.11473
 Alpha virt. eigenvalues --    0.12450   0.12782   0.13664   0.13890   0.14613

 Mulliken charges:
               1
     1  O   -1.381839
     2  C    1.709508
     3  C   -0.331374
     4  C   -0.032694
     5  C   -0.293471
     6  N    0.537646
     7  C   -0.312630
     8  H    0.295247
     9  H    0.116585
    10  H   -0.252526
    11  H    0.263337
    12  H   -0.036614
    13  H   -0.036389
    14  H   -0.244786
 Sum of Mulliken charges =  -0.00000

 Dipole moment (field-independent basis, Debye):
    X=              1.1451    Y=              1.4552    Z=             -0.4692  Tot=              1.9102

 Test job not archived.
 1\1\GINC-SE174\SP\RHF\Aug-CC-pVDZ\C5H7N1O1\OHZDE\09-Apr-2025\0\\#t hf
 aug-cc-pvdz iop(5/13=1,5/36=2,99/5=2) pseudo=read geom=check guess=(re
 ad,tcheck) scf=(maxcycle=1)\\title\\0,1\O,0,2.45484988,0.14692165,0.27
 402483\C,0,1.28160105,0.3996138,-0.43125476\C,0,0.20427649,-0.68411264
 ,-0.54593263\C,0,-0.08786048,-0.55517909,0.98145731\C,0,-1.82256073,-0
 .19071379,0.19551849\N,0,-0.82974373,0.41915733,-0.70685281\C,0,0.1056
 1153,0.88159556,0.40232245\H,0,3.05520247,-0.35198722,-0.2820225\H,0,1
 .43490339,0.97011856,-1.35388274\H,0,0.17724396,-1.57642797,-1.1713138

 Normal termination of Gaussian 16 at Wed Apr  9 17:17:36 2025.
