 Gaussian 16, Revision C.01,

 ----------------------------------------------------------------------
 #t hf aug-cc-pvdz symm=none int=(grid=ultrafine) guess=(read,tcheck) s
 table=(opt,rrhf)
 ----------------------------------------------------------------------
 -----
 title
 -----
 Symbolic Z-matrix:
 Charge =  0 Multiplicity = 1

 SCF Done:  E(RHF) =  -304.556639031     A.U. after   17 cycles
 Normal termination of Gaussian 16 at Wed Apr  9 03:15:50 2025.
 Gaussian 16:  ES64L-G16RevC.01  3-Jul-2019

 ----------------------------------------------------------------------
 #t hf aug-cc-pvdz iop(5/13=1,5/36=2,99/5=2) pseudo=read geom=check gue
 ss=(read,tcheck) scf=(maxcycle=1)
 ----------------------------------------------------------------------
 -----
 title
 -----
 Structure from the checkpoint file:  "Grambow2020_b97d3_006988_reverse_mol1.chk"
 Charge =  0 Multiplicity = 1

                         Standard orientation:
 ---------------------------------------------------------------------
 Center     Atomic      Atomic             Coordinates (Angstroms)
 Number     Number       Type             X           Y           Z
 ---------------------------------------------------------------------
      1          6           0        2.386837   -0.254962   -0.119663
      2          6           0        0.975652    0.022574    0.408452
      3          6           0        0.243275    1.161438   -0.179590
      4          6           0       -1.695028    0.272225    0.240913
      5          8           0       -2.619303   -0.335536   -0.117092
      6          8           0        0.016832   -0.848913   -0.128610
      7          1           0        2.395441   -0.244640   -1.217198
      8          1           0        2.679529   -1.261066    0.211915
      9          1           0        3.121806    0.468880    0.260404
     10          1           0        0.990659    0.051049    1.513050
     11          1           0       -0.093824    2.039225    0.362511
     12          1           0        0.261745    1.214505   -1.265733
 ---------------------------------------------------------------------

 SCF Done:  E(RHF) =  -304.859539796     A.U. after    2 cycles

 The electronic state is 1-A.
 Alpha  occ. eigenvalues --  -20.61419 -20.48218 -11.38348 -11.37492 -11.29764
 Alpha  occ. eigenvalues --  -11.23912  -1.54806  -1.36787  -1.04546  -0.97208
 Alpha  occ. eigenvalues --   -0.81864  -0.77528  -0.71495  -0.64896  -0.61872
 Alpha  occ. eigenvalues --   -0.59729  -0.58718  -0.57889  -0.54582  -0.53307
 Alpha  occ. eigenvalues --   -0.49694  -0.38390  -0.35141
 Alpha virt. eigenvalues --    0.00880   0.03666   0.04014   0.04696   0.05336
 Alpha virt. eigenvalues --    0.06255   0.07293   0.08241   0.11048   0.11481
 Alpha virt. eigenvalues --    0.11954   0.13423   0.14378   0.14973   0.15387

 Mulliken charges:
               1
     1  C   -0.483314
     2  C    1.002417
     3  C   -0.076437
     4  C    0.877786
     5  O   -0.831109
     6  O   -1.351638
     7  H    0.193157
     8  H    0.202568
     9  H    0.207698
    10  H    0.041240
    11  H    0.118857
    12  H    0.098773
 Sum of Mulliken charges =  -0.00000

 Dipole moment (field-independent basis, Debye):
    X=              2.3068    Y=              4.5796    Z=              0.3416  Tot=              5.1392

 Test job not archived.
 1\1\GINC-SE455\SP\RHF\Aug-CC-pVDZ\C4H6O2\OHZDE\09-Apr-2025\0\\#t hf au
 g-cc-pvdz iop(5/13=1,5/36=2,99/5=2) pseudo=read geom=check guess=(read
 ,tcheck) scf=(maxcycle=1)\\title\\0,1\C,0,-1.71577306,-0.04283774,0.20
 194988\C,0,-0.30139803,-0.18814077,-0.36884351\C,0,0.68016991,0.858974
 23,-0.02351085\C,0,2.36604915,-0.49412071,-0.2504124\O,0,3.15451599,-1
 .20372672,0.22561901\O,0,0.4723677,-1.12162679,0.33624611\H,0,-1.67568
 371,0.18746509,1.2743849\H,0,-2.22907733,-1.00714009,0.08154498\H,0,-2
 .29571011,0.7323557,-0.31894044\H,0,-0.35660166,-0.37765851,-1.4561381

 Normal termination of Gaussian 16 at Wed Apr  9 03:15:53 2025.
