 Gaussian 16, Revision C.01,

 ----------------------------------------------------------------------
 #t hf aug-cc-pvdz symm=none int=(grid=ultrafine) guess=(read,tcheck) s
 table=(opt,rrhf)
 ----------------------------------------------------------------------
 -----
 title
 -----
 Symbolic Z-matrix:
 Charge =  0 Multiplicity = 1

 SCF Done:  E(RHF) =  -323.674281053     A.U. after   16 cycles
 Normal termination of Gaussian 16 at Wed Apr  9 03:53:50 2025.
 Gaussian 16:  ES64L-G16RevC.01  3-Jul-2019

 ----------------------------------------------------------------------
 #t hf aug-cc-pvdz iop(5/13=1,5/36=2,99/5=2) pseudo=read geom=check gue
 ss=(read,tcheck) scf=(maxcycle=1)
 ----------------------------------------------------------------------
 -----
 title
 -----
 Structure from the checkpoint file:  "Grambow2020_wb97xd3_008336_reverse_mol1.chk"
 Charge =  0 Multiplicity = 1

                         Standard orientation:
 ---------------------------------------------------------------------
 Center     Atomic      Atomic             Coordinates (Angstroms)
 Number     Number       Type             X           Y           Z
 ---------------------------------------------------------------------
      1          7           0        2.366508   -0.460780    0.060515
      2          6           0        1.124865   -0.257449   -0.023086
      3          6           0        0.060904   -1.164293   -0.237415
      4          6           0       -1.270147   -1.070071    0.459831
      5          6           0       -1.871041    0.079930   -0.355978
      6          6           0       -0.517402    1.468558    0.222953
      7          8           0        0.703660    1.154026   -0.105933
      8          1           0        2.890310    0.405715   -0.028233
      9          1           0       -0.878521    0.137906   -1.062908
     10          1           0        0.397417   -2.124199   -0.606277
     11          1           0       -1.229308   -0.856111    1.533732
     12          1           0       -1.837610   -1.993349    0.348697
     13          1           0       -2.391727   -0.378027   -1.207099
     14          1           0       -2.599938    0.794459    0.044855
     15          1           0       -0.828809    1.289588    1.251431
     16          1           0       -0.879717    2.377219   -0.248173
 ---------------------------------------------------------------------

 SCF Done:  E(RHF) =  -324.012428679     A.U. after    2 cycles

 The electronic state is 1-A.
 Alpha  occ. eigenvalues --  -20.61080 -15.44762 -11.39811 -11.33307 -11.27627
 Alpha  occ. eigenvalues --  -11.24856 -11.20086  -1.55026  -1.19364  -1.10792
 Alpha  occ. eigenvalues --   -0.99058  -0.91885  -0.86862  -0.78535  -0.72862
 Alpha  occ. eigenvalues --   -0.71638  -0.68602  -0.65782  -0.60519  -0.58911
 Alpha  occ. eigenvalues --   -0.56505  -0.53109  -0.49926  -0.47546  -0.45443
 Alpha  occ. eigenvalues --   -0.43195  -0.27498
 Alpha virt. eigenvalues --    0.01965   0.02871   0.03234   0.04388   0.05816
 Alpha virt. eigenvalues --    0.06272   0.06608   0.07060   0.07817   0.09133
 Alpha virt. eigenvalues --    0.11432   0.11966   0.12641   0.13611   0.13912

 Mulliken charges:
               1
     1  N    0.655390
     2  C   -0.351650
     3  C    0.165009
     4  C   -0.066558
     5  C   -0.808777
     6  C    0.522223
     7  O   -1.436443
     8  H    0.145613
     9  H    1.095130
    10  H   -0.175429
    11  H    0.017706
    12  H    0.017908
    13  H   -0.036595
    14  H    0.111236
    15  H    0.202336
    16  H   -0.057098
 Sum of Mulliken charges =  -0.00000

 Dipole moment (field-independent basis, Debye):
    X=             -5.5555    Y=              3.6556    Z=              0.3785  Tot=              6.6611

 Test job not archived.
 1\1\GINC-SE123\SP\RHF\Aug-CC-pVDZ\C5H9N1O1\OHZDE\09-Apr-2025\0\\#t hf
 aug-cc-pvdz iop(5/13=1,5/36=2,99/5=2) pseudo=read geom=check guess=(re
 ad,tcheck) scf=(maxcycle=1)\\title\\0,1\N,0,2.72692942,0.58038902,0.38
 308969\C,0,1.51347348,0.32911132,0.14986184\C,0,0.84988213,-0.90907467
 ,-0.01402136\C,0,-0.52424066,-1.19854259,0.52886154\C,0,-1.34502316,-0
 .43556074,-0.5167452\C,0,-0.62237346,1.39521238,-0.04575138\O,0,0.6682
 0177,1.48610593,-0.20145089\H,0,2.9436212,1.5572376,0.20456979\H,0,-0.
 33546811,-0.1230113,-1.12610502\H,0,1.53304368,-1.72990969,-0.18791931

 Normal termination of Gaussian 16 at Wed Apr  9 03:53:55 2025.
