 Gaussian 16, Revision C.01,

 ----------------------------------------------------------------------
 #t hf aug-cc-pvdz symm=none int=(grid=ultrafine) guess=(read,tcheck) s
 table=(opt,rrhf)
 ----------------------------------------------------------------------
 -----
 title
 -----
 Symbolic Z-matrix:
 Charge =  0 Multiplicity = 1

 SCF Done:  E(RHF) =  -317.572765460     A.U. after   16 cycles
 Normal termination of Gaussian 16 at Wed Apr  9 19:14:45 2025.
 Gaussian 16:  ES64L-G16RevC.01  3-Jul-2019

 ----------------------------------------------------------------------
 #t hf aug-cc-pvdz iop(5/13=1,5/36=2,99/5=2) pseudo=read geom=check gue
 ss=(read,tcheck) scf=(maxcycle=1)
 ----------------------------------------------------------------------
 -----
 title
 -----
 Structure from the checkpoint file:  "Grambow2020_wb97xd3_008969_reverse_mol1.chk"
 Charge =  0 Multiplicity = 1

                         Standard orientation:
 ---------------------------------------------------------------------
 Center     Atomic      Atomic             Coordinates (Angstroms)
 Number     Number       Type             X           Y           Z
 ---------------------------------------------------------------------
      1          7           0        2.132017   -0.000945    0.237426
      2          6           0        0.740126   -0.001328    0.132611
      3          6           0        0.007094   -1.209725   -0.342700
      4          7           0       -1.263712   -1.129028   -0.110179
      5          6           0       -1.315884    0.001305    0.627900
      6          7           0       -1.260824    1.131532   -0.110731
      7          6           0        0.010174    1.208314   -0.343109
      8          1           0        2.605091   -0.841816   -0.045648
      9          1           0        2.604071    0.840217   -0.047182
     10          1           0        0.461027   -2.046929   -0.863341
     11          1           0       -0.038929    0.000394    1.253813
     12          1           0        0.467311    2.045825   -0.861463
 ---------------------------------------------------------------------

 SCF Done:  E(RHF) =  -317.898622956     A.U. after    2 cycles

 The electronic state is 1-A.
 Alpha  occ. eigenvalues --  -15.52914 -15.52840 -15.52577 -11.33680 -11.31980
 Alpha  occ. eigenvalues --  -11.30775 -11.30751  -1.37133  -1.23918  -1.23113
 Alpha  occ. eigenvalues --   -1.01946  -0.92240  -0.88433  -0.76606  -0.76373
 Alpha  occ. eigenvalues --   -0.71810  -0.68901  -0.68098  -0.63993  -0.55846
 Alpha  occ. eigenvalues --   -0.53884  -0.49226  -0.45541  -0.42351  -0.36514
 Alpha virt. eigenvalues --    0.02326   0.03691   0.04255   0.05484   0.06560
 Alpha virt. eigenvalues --    0.06624   0.08720   0.09596   0.10020   0.10794
 Alpha virt. eigenvalues --    0.11150   0.12242   0.13788   0.13859   0.14396

 Mulliken charges:
               1
     1  N    0.638528
     2  C   -0.901551
     3  C   -0.485286
     4  N    0.725302
     5  C   -0.935264
     6  N    0.725658
     7  C   -0.488771
     8  H    0.138063
     9  H    0.139073
    10  H   -0.109341
    11  H    0.662599
    12  H   -0.109010
 Sum of Mulliken charges =   0.00000

 Dipole moment (field-independent basis, Debye):
    X=              5.1802    Y=             -0.0082    Z=             -1.3329  Tot=              5.3490

 Test job not archived.
 1\1\GINC-SE162\SP\RHF\Aug-CC-pVDZ\C4H5N3\OHZDE\09-Apr-2025\0\\#t hf au
 g-cc-pvdz iop(5/13=1,5/36=2,99/5=2) pseudo=read geom=check guess=(read
 ,tcheck) scf=(maxcycle=1)\\title\\0,1\N,0,-1.62857325,0.01651527,0.639
 65445\C,0,-0.2884888,-0.00410568,0.24966272\C,0,0.3743026,1.22092159,-
 0.2827793\N,0,1.66209967,1.09682767,-0.32407265\C,0,1.82394292,-0.0862
 115,0.30787815\N,0,1.57865769,-1.15685812,-0.47925041\C,0,0.28509437,-
 1.18977693,-0.44859173\H,0,-2.11931735,0.88575859,0.51891183\H,0,-2.17
 8535,-0.79114052,0.40169552\H,0,-0.14647155,2.10382013,-0.63959423\H,0

 Normal termination of Gaussian 16 at Wed Apr  9 19:14:49 2025.
