 Gaussian 16, Revision C.01,

 ----------------------------------------------------------------------
 #t hf aug-cc-pvdz symm=none int=(grid=ultrafine) guess=(read,tcheck) s
 table=(opt,rrhf)
 ----------------------------------------------------------------------
 -----
 title
 -----
 Symbolic Z-matrix:
 Charge =  0 Multiplicity = 1

 SCF Done:  E(RHF) =  -283.404446795     A.U. after   21 cycles
 Normal termination of Gaussian 16 at Wed Apr  9 03:09:50 2025.
 Gaussian 16:  ES64L-G16RevC.01  3-Jul-2019

 ----------------------------------------------------------------------
 #t hf aug-cc-pvdz iop(5/13=1,5/36=2,99/5=2) pseudo=read geom=check gue
 ss=(read,tcheck) scf=(maxcycle=1)
 ----------------------------------------------------------------------
 -----
 title
 -----
 Structure from the checkpoint file:  "Grambow2020_b97d3_006656_reverse_mol2.chk"
 Charge =  0 Multiplicity = 1

                         Standard orientation:
 ---------------------------------------------------------------------
 Center     Atomic      Atomic             Coordinates (Angstroms)
 Number     Number       Type             X           Y           Z
 ---------------------------------------------------------------------
      1          7           0        2.528458    0.539125   -0.301539
      2          6           0        1.657908   -0.046999    0.345561
      3          6           0        0.361679   -0.759298   -0.314954
      4          6           0       -0.863764   -0.411583    0.438683
      5          6           0       -1.447470    0.934807    0.286613
      6          8           0       -2.032675   -0.060689   -0.415544
      7          1           0        0.597211   -1.830849   -0.280989
      8          1           0        0.292654   -0.424422   -1.352985
      9          1           0       -1.134815   -0.982283    1.328086
     10          1           0        1.656765   -0.186212    1.445720
     11          1           0       -1.099729    1.833848   -0.240127
 ---------------------------------------------------------------------

 SCF Done:  E(RHF) =  -283.681576477     A.U. after    2 cycles

 The electronic state is 1-A.
 Alpha  occ. eigenvalues --  -20.69076 -15.46026 -11.42701 -11.38570 -11.27404
 Alpha  occ. eigenvalues --  -11.25755  -1.61044  -1.15940  -1.07424  -0.95858
 Alpha  occ. eigenvalues --   -0.89466  -0.76387  -0.74971  -0.71259  -0.64953
 Alpha  occ. eigenvalues --   -0.61519  -0.56647  -0.55871  -0.53672  -0.51641
 Alpha  occ. eigenvalues --   -0.42732  -0.26760
 Alpha virt. eigenvalues --   -0.08033   0.02444   0.03262   0.04485   0.05114
 Alpha virt. eigenvalues --    0.06323   0.08539   0.08712   0.10215   0.11230
 Alpha virt. eigenvalues --    0.12707   0.13568   0.14075   0.14358   0.15767

 Mulliken charges:
               1
     1  N    0.506198
     2  C   -1.032022
     3  C   -0.686130
     4  C    1.381678
     5  C    0.324791
     6  O   -1.004778
     7  H    0.284926
     8  H    0.151811
     9  H    0.030404
    10  H    0.033836
    11  H    0.009285
 Sum of Mulliken charges =  -0.00000

 Dipole moment (field-independent basis, Debye):
    X=             -8.7434    Y=             -1.0239    Z=              2.2783  Tot=              9.0932

 Test job not archived.
 1\1\GINC-SE109\SP\RHF\Aug-CC-pVDZ\C4H5N1O1\OHZDE\09-Apr-2025\0\\#t hf
 aug-cc-pvdz iop(5/13=1,5/36=2,99/5=2) pseudo=read geom=check guess=(re
 ad,tcheck) scf=(maxcycle=1)\\title\\0,1\N,0,2.32181217,1.02497746,-0.6
 7430406\C,0,1.52289987,0.64470699,0.18434058\C,0,0.56225034,-0.6491457
 3,0.02015178\C,0,-0.81766383,-0.33071711,0.45029831\C,0,-1.67392937,0.
 49463671,-0.42274558\O,0,-1.87953509,-0.84054597,-0.46167053\H,0,1.038
 94041,-1.41849853,0.64121035\H,0,0.58681462,-0.94875731,-1.03058388\H,
 0,-1.08658609,-0.39665055,1.50554159\H,0,1.37405777,1.11290828,1.17850

 Normal termination of Gaussian 16 at Wed Apr  9 03:09:54 2025.
