 Gaussian 16, Revision C.01,

 ----------------------------------------------------------------------
 #t hf aug-cc-pvdz symm=none int=(grid=ultrafine) guess=(read,tcheck) s
 table=(opt,rrhf)
 ----------------------------------------------------------------------
 -----
 title
 -----
 Symbolic Z-matrix:
 Charge =  0 Multiplicity = 1

 SCF Done:  E(RHF) =  -307.780948626     A.U. after   15 cycles

 1\1\GINC-SE452\Stability\RHF\Aug-CC-pVDZ\C6H10O1\OHZDE\09-Apr-2025\0\\
 #t hf aug-cc-pvdz symm=none int=(grid=ultrafine) guess=(read,tcheck) s
 table=(opt,rrhf)\\title\\0,1\C,0,1.82920976,-0.59204051,0.19742633\C,0
 ,0.61237301,0.19373581,0.66177507\C,0,0.08352059,1.24621903,-0.3299280
 8\C,0,-1.37061203,0.9263185,-0.42091212\C,0,-1.76717111,0.05005855,0.5
 6468026\C,0,-0.61614352,-0.61326598,0.93166685\O,0,-0.82161104,-1.0884
 0454,-1.27682953\H,0,1.59865836,-1.0867407,-0.74494859\H,0,2.68585673,
 0.07095307,0.06113791\H,0,2.10723429,-1.35024218,0.93272804\H,0,0.8684

 Normal termination of Gaussian 16 at Wed Apr  9 03:45:44 2025.
 Gaussian 16:  ES64L-G16RevC.01  3-Jul-2019

 ----------------------------------------------------------------------
 #t hf aug-cc-pvdz iop(5/13=1,5/36=2,99/5=2) pseudo=read geom=check gue
 ss=(read,tcheck) scf=(maxcycle=1)
 ----------------------------------------------------------------------
 -----
 title
 -----
 Structure from the checkpoint file:  "Grambow2020_wb97xd3_007816_reverse_mol1.chk"
 Charge =  0 Multiplicity = 1

                         Standard orientation:
 ---------------------------------------------------------------------
 Center     Atomic      Atomic             Coordinates (Angstroms)
 Number     Number       Type             X           Y           Z
 ---------------------------------------------------------------------
      1          6           0       -2.118393    0.254642   -0.060563
      2          6           0       -0.886413   -0.515855    0.389230
      3          6           0       -0.037259   -1.128155   -0.739888
      4          6           0        1.341222   -0.654416   -0.422906
      5          6           0        1.421561   -0.114505    0.841422
      6          6           0        0.134108    0.275263    1.141570
      7          8           0        0.627390    1.464988   -0.725689
      8          1           0       -1.815728    1.050751   -0.739207
      9          1           0       -2.822615   -0.408226   -0.567176
     10          1           0       -2.633459    0.699050    0.793863
     11          1           0       -1.217818   -1.307270    1.077311
     12          1           0       -0.356116   -0.778223   -1.719200
     13          1           0       -0.064731   -2.223859   -0.753978
     14          1           0        2.191353   -0.859137   -1.061749
     15          1           0        2.315965    0.286191    1.292170
     16          1           0       -0.132772    0.954752    1.942547
     17          1           0        0.387849    2.164216   -1.352263
 ---------------------------------------------------------------------

 SCF Done:  E(RHF) =  -308.106574655     A.U. after    2 cycles

 The electronic state is 1-A.
 Alpha  occ. eigenvalues --  -20.42590 -11.31395 -11.31279 -11.25632 -11.24894
 Alpha  occ. eigenvalues --  -11.22945 -11.22484  -1.25866  -1.17582  -1.03651
 Alpha  occ. eigenvalues --   -0.99032  -0.90883  -0.79182  -0.76528  -0.72109
 Alpha  occ. eigenvalues --   -0.65197  -0.59757  -0.57856  -0.57403  -0.55415
 Alpha  occ. eigenvalues --   -0.53519  -0.52095  -0.49830  -0.49479  -0.36200
 Alpha  occ. eigenvalues --   -0.35840  -0.34302
 Alpha virt. eigenvalues --    0.03015   0.03206   0.03766   0.04512   0.05437
 Alpha virt. eigenvalues --    0.05539   0.06188   0.06616   0.07217   0.08830
 Alpha virt. eigenvalues --    0.09029   0.11625   0.12166   0.13021   0.13988

 Mulliken charges:
               1
     1  C   -0.260292
     2  C   -0.762266
     3  C   -0.337288
     4  C    0.367134
     5  C    0.326565
     6  C    0.523243
     7  O   -0.940859
     8  H    0.266928
     9  H    0.174016
    10  H    0.133625
    11  H    0.235414
    12  H    0.196424
    13  H    0.216405
    14  H   -0.133977
    15  H   -0.177010
    16  H   -0.149803
    17  H    0.321742
 Sum of Mulliken charges =  -0.00000

 Dipole moment (field-independent basis, Debye):
    X=             -0.8563    Y=             -3.1125    Z=              1.1906  Tot=              3.4407

 Test job not archived.
 1\1\GINC-SE452\SP\RHF\Aug-CC-pVDZ\C6H10O1\OHZDE\09-Apr-2025\0\\#t hf a
 ug-cc-pvdz iop(5/13=1,5/36=2,99/5=2) pseudo=read geom=check guess=(rea
 d,tcheck) scf=(maxcycle=1)\\title\\0,1\C,0,1.82920976,-0.59204051,0.19
 742633\C,0,0.61237301,0.19373581,0.66177507\C,0,0.08352059,1.24621903,
 -0.32992808\C,0,-1.37061203,0.9263185,-0.42091212\C,0,-1.76717111,0.05
 005855,0.56468026\C,0,-0.61614352,-0.61326598,0.93166685\O,0,-0.821611
 04,-1.08840454,-1.27682953\H,0,1.59865836,-1.0867407,-0.74494859\H,0,2
 .68585673,0.07095307,0.06113791\H,0,2.10723429,-1.35024218,0.93272804\

 Normal termination of Gaussian 16 at Wed Apr  9 03:45:50 2025.
