 Gaussian 16, Revision C.01,

 ----------------------------------------------------------------------
 #t hf aug-cc-pvdz symm=none int=(grid=ultrafine) guess=(read,tcheck) s
 table=(opt,rrhf)
 ----------------------------------------------------------------------
 -----
 title
 -----
 Symbolic Z-matrix:
 Charge =  0 Multiplicity = 1

 SCF Done:  E(RHF) =  -323.895272334     A.U. after   14 cycles
 Normal termination of Gaussian 16 at Wed Apr  9 03:33:29 2025.
 Gaussian 16:  ES64L-G16RevC.01  3-Jul-2019

 ----------------------------------------------------------------------
 #t hf aug-cc-pvdz iop(5/13=1,5/36=2,99/5=2) pseudo=read geom=check gue
 ss=(read,tcheck) scf=(maxcycle=1)
 ----------------------------------------------------------------------
 -----
 title
 -----
 Structure from the checkpoint file:  "Grambow2020_wb97xd3_006974_reverse_mol2.chk"
 Charge =  0 Multiplicity = 1

                         Standard orientation:
 ---------------------------------------------------------------------
 Center     Atomic      Atomic             Coordinates (Angstroms)
 Number     Number       Type             X           Y           Z
 ---------------------------------------------------------------------
      1          6           0       -2.267280   -1.117771   -0.057947
      2          6           0       -0.774498   -0.870472    0.042240
      3          6           0       -0.385111    0.559643   -0.211562
      4          8           0       -1.164682    1.421978   -0.513773
      5          6           0        1.090528    0.954725   -0.036046
      6          6           0        2.043193   -0.146986   -0.001416
      7          7           0        2.782834   -1.023065    0.022331
      8          1           0       -2.491556   -2.168641    0.125443
      9          1           0       -2.814250   -0.517242    0.669306
     10          1           0       -2.641368   -0.852884   -1.046810
     11          1           0       -0.380644   -1.147266    1.027243
     12          1           0       -1.027596    1.073880    2.959631
     13          1           0       -0.211277   -1.492127   -0.662767
     14          1           0       -1.346982    1.456579    2.404901
     15          1           0        1.158046    1.511856    0.902307
     16          1           0        1.352242    1.646639   -0.836998
 ---------------------------------------------------------------------

 SCF Done:  E(RHF) =  -324.230559451     A.U. after    2 cycles

 The electronic state is 1-A.
 Alpha  occ. eigenvalues --  -20.56079 -15.52724 -11.36941 -11.30918 -11.29600
 Alpha  occ. eigenvalues --  -11.26329 -11.23951  -1.50342  -1.25334  -1.10586
 Alpha  occ. eigenvalues --   -1.05834  -0.91187  -0.79245  -0.73080  -0.68853
 Alpha  occ. eigenvalues --   -0.68034  -0.64945  -0.63673  -0.61464  -0.60821
 Alpha  occ. eigenvalues --   -0.55453  -0.54425  -0.53904  -0.52698  -0.51696
 Alpha  occ. eigenvalues --   -0.49762  -0.43329
 Alpha virt. eigenvalues --    0.03356   0.03566   0.04127   0.04961   0.05581
 Alpha virt. eigenvalues --    0.06294   0.07379   0.08009   0.08454   0.10045
 Alpha virt. eigenvalues --    0.10196   0.11452   0.12491   0.13582   0.13983

 Mulliken charges:
               1
     1  C   -0.506529
     2  C   -0.468990
     3  C    1.116819
     4  O   -1.420062
     5  C    0.021312
     6  C   -1.413989
     7  N    0.896354
     8  H    0.150170
     9  H    0.167991
    10  H    0.175395
    11  H    0.282363
    12  H    0.036944
    13  H    0.318152
    14  H   -0.033148
    15  H    0.365190
    16  H    0.312027
 Sum of Mulliken charges =  -0.00000

 Dipole moment (field-independent basis, Debye):
    X=             -1.5528    Y=              1.0284    Z=              0.6960  Tot=              1.9882

 Test job not archived.
 1\1\GINC-SE041\SP\RHF\Aug-CC-pVDZ\C5H9N1O1\OHZDE\09-Apr-2025\0\\#t hf
 aug-cc-pvdz iop(5/13=1,5/36=2,99/5=2) pseudo=read geom=check guess=(re
 ad,tcheck) scf=(maxcycle=1)\\title\\0,1\C,0,2.02493237,0.19990292,-0.6
 2362914\C,0,0.62596317,0.62014167,-0.21634841\C,0,-0.42350884,-0.41233
 03,-0.52273916\O,0,-0.19701556,-1.45185469,-1.08020974\C,0,-1.86563974
 ,-0.14390902,-0.0616364\C,0,-2.17064455,1.23395142,0.30031697\N,0,-2.3
 9818148,2.32248501,0.58043765\H,0,2.74185433,0.98639361,-0.38758513\H,
 0,2.32838836,-0.70942878,-0.10426717\H,0,2.07569244,-0.00317266,-1.693

 Normal termination of Gaussian 16 at Wed Apr  9 03:33:35 2025.
