 Gaussian 16, Revision C.01,

 ----------------------------------------------------------------------
 #t hf aug-cc-pvdz symm=none int=(grid=ultrafine) guess=(read,tcheck) s
 table=(opt,rrhf)
 ----------------------------------------------------------------------
 -----
 title
 -----
 Symbolic Z-matrix:
 Charge =  0 Multiplicity = 1

 SCF Done:  E(RHF) =  -301.564993074     A.U. after   16 cycles
 Normal termination of Gaussian 16 at Wed Apr  9 18:38:27 2025.
 Gaussian 16:  ES64L-G16RevC.01  3-Jul-2019

 ----------------------------------------------------------------------
 #t hf aug-cc-pvdz iop(5/13=1,5/36=2,99/5=2) pseudo=read geom=check gue
 ss=(read,tcheck) scf=(maxcycle=1)
 ----------------------------------------------------------------------
 -----
 title
 -----
 Structure from the checkpoint file:  "Grambow2020_wb97xd3_007926_forward_mol1.chk"
 Charge =  0 Multiplicity = 1

                         Standard orientation:
 ---------------------------------------------------------------------
 Center     Atomic      Atomic             Coordinates (Angstroms)
 Number     Number       Type             X           Y           Z
 ---------------------------------------------------------------------
      1          6           0       -1.933658    0.789763    0.022262
      2          6           0       -1.788067   -0.749161    0.074073
      3          6           0       -0.344907   -0.371590   -0.049209
      4          7           0        0.816581   -1.131520   -0.065496
      5          6           0        1.809548   -0.338694   -0.027488
      6          6           0        2.379163    0.825772    0.230574
      7          7           0       -0.456146    0.906968   -0.117362
      8          1           0       -2.306448    1.258027    0.933938
      9          1           0       -2.468586    1.190293   -0.839815
     10          1           0       -2.069633   -1.238371    1.006165
     11          1           0       -2.200478   -1.300385   -0.770590
     12          1           0        2.931101   -0.680372    0.005183
     13          1           0        2.858528    1.406127   -0.556146
 ---------------------------------------------------------------------

 SCF Done:  E(RHF) =  -301.876003664     A.U. after    2 cycles

 The electronic state is 1-A.
 Alpha  occ. eigenvalues --  -15.50497 -15.48207 -11.34502 -11.32047 -11.30800
 Alpha  occ. eigenvalues --  -11.26189 -11.24313  -1.30988  -1.23570  -1.08604
 Alpha  occ. eigenvalues --   -0.98248  -0.91373  -0.81270  -0.72246  -0.69881
 Alpha  occ. eigenvalues --   -0.66888  -0.66246  -0.60827  -0.57117  -0.53190
 Alpha  occ. eigenvalues --   -0.50897  -0.48535  -0.44672  -0.44226  -0.37943
 Alpha virt. eigenvalues --    0.03126   0.04329   0.04756   0.05016   0.05104
 Alpha virt. eigenvalues --    0.05587   0.06797   0.07724   0.08257   0.09027
 Alpha virt. eigenvalues --    0.11442   0.12627   0.13206   0.14048   0.14568

 Mulliken charges:
               1
     1  C    0.090855
     2  C    0.187217
     3  C   -1.747366
     4  N    1.041827
     5  C   -0.723659
     6  C    0.017449
     7  N    0.615790
     8  H   -0.019190
     9  H   -0.038092
    10  H    0.120179
    11  H    0.136754
    12  H    0.246816
    13  H    0.071420
 Sum of Mulliken charges =  -0.00000

 Dipole moment (field-independent basis, Debye):
    X=              0.7885    Y=             -0.0699    Z=             -0.9039  Tot=              1.2015

 Test job not archived.
 1\1\GINC-SE229\SP\RHF\Aug-CC-pVDZ\C5H6N2\OHZDE\09-Apr-2025\0\\#t hf au
 g-cc-pvdz iop(5/13=1,5/36=2,99/5=2) pseudo=read geom=check guess=(read
 ,tcheck) scf=(maxcycle=1)\\title\\0,1\C,0,-1.82030449,-0.45766804,0.08
 770178\C,0,-1.42075462,1.03615254,0.11977486\C,0,-0.05741745,0.4198618
 8,0.07544421\N,0,1.21313229,0.97662225,0.02510033\C,0,2.05005673,0.038
 10503,-0.16129909\C,0,2.38921011,-1.17946437,-0.54800164\N,0,-0.377644
 71,-0.82479692,0.07277035\H,0,-2.3449334,-0.7851752,-0.8105735\H,0,-2.
 33847547,-0.83270132,0.97121607\H,0,-1.69513909,1.63701611,-0.74687328

 Normal termination of Gaussian 16 at Wed Apr  9 18:38:31 2025.
