 Gaussian 16, Revision C.01,

 ----------------------------------------------------------------------
 #t hf aug-cc-pvdz symm=none int=(grid=ultrafine) guess=(read,tcheck) s
 table=(opt,rrhf)
 ----------------------------------------------------------------------
 -----
 title
 -----
 Symbolic Z-matrix:
 Charge =  0 Multiplicity = 1

 SCF Done:  E(RHF) =  -306.505474523     A.U. after   16 cycles
 Normal termination of Gaussian 16 at Wed Apr  9 19:00:57 2025.
 Gaussian 16:  ES64L-G16RevC.01  3-Jul-2019

 ----------------------------------------------------------------------
 #t hf aug-cc-pvdz iop(5/13=1,5/36=2,99/5=2) pseudo=read geom=check gue
 ss=(read,tcheck) scf=(maxcycle=1)
 ----------------------------------------------------------------------
 -----
 title
 -----
 Structure from the checkpoint file:  "Grambow2020_wb97xd3_008446_reverse_mol1.chk"
 Charge =  0 Multiplicity = 1

                         Standard orientation:
 ---------------------------------------------------------------------
 Center     Atomic      Atomic             Coordinates (Angstroms)
 Number     Number       Type             X           Y           Z
 ---------------------------------------------------------------------
      1          6           0       -0.416393    1.303292   -0.554018
      2          6           0       -1.377158    0.151742   -0.387995
      3          6           0       -0.756979   -1.172195   -0.135384
      4          8           0        1.214392   -0.938515   -0.627716
      5          6           0        1.531160   -0.075539    0.257840
      6          6           0        0.569542    0.949461    0.549559
      7          6           0       -1.083200   -0.473147    0.955266
      8          1           0        0.077271    1.363861   -1.529634
      9          1           0       -0.899956    2.259719   -0.348802
     10          1           0       -2.363952    0.203598   -0.845355
     11          1           0       -0.773023   -2.155587   -0.566819
     12          1           0        1.895079    1.029682   -0.172432
     13          1           0        2.258888   -0.303733    1.049255
     14          1           0        0.766698    1.624843    1.377509
     15          1           0       -1.477971   -0.615942    1.946401
 ---------------------------------------------------------------------

 SCF Done:  E(RHF) =  -306.825130684     A.U. after    2 cycles

 The electronic state is 1-A.
 Alpha  occ. eigenvalues --  -20.49026 -11.32171 -11.31225 -11.27620 -11.25290
 Alpha  occ. eigenvalues --  -11.24921 -11.21704  -1.41309  -1.18745  -1.08395
 Alpha  occ. eigenvalues --   -0.96527  -0.81217  -0.77349  -0.74563  -0.72025
 Alpha  occ. eigenvalues --   -0.67884  -0.65358  -0.59947  -0.58338  -0.56800
 Alpha  occ. eigenvalues --   -0.52321  -0.48101  -0.43179  -0.39677  -0.37674
 Alpha  occ. eigenvalues --   -0.32605
 Alpha virt. eigenvalues --    0.02771   0.03627   0.03752   0.04356   0.05678
 Alpha virt. eigenvalues --    0.05808   0.06435   0.07111   0.09386   0.10068
 Alpha virt. eigenvalues --    0.12243   0.12401   0.13184   0.13799   0.14253

 Mulliken charges:
               1
     1  C   -0.400996
     2  C    0.296031
     3  C    0.593449
     4  O   -1.269704
     5  C    0.871223
     6  C   -0.074927
     7  C    0.158231
     8  H    0.112971
     9  H    0.120712
    10  H   -0.147438
    11  H   -0.266317
    12  H    0.432659
    13  H    0.076962
    14  H   -0.162479
    15  H   -0.340377
 Sum of Mulliken charges =  -0.00000

 Dipole moment (field-independent basis, Debye):
    X=             -0.7028    Y=              2.6217    Z=              1.6468  Tot=              3.1748

 Test job not archived.
 1\1\GINC-SE173\SP\RHF\Aug-CC-pVDZ\C6H8O1\OHZDE\09-Apr-2025\0\\#t hf au
 g-cc-pvdz iop(5/13=1,5/36=2,99/5=2) pseudo=read geom=check guess=(read
 ,tcheck) scf=(maxcycle=1)\\title\\0,1\C,0,0.68020636,1.07666413,0.2840
 4618\C,0,1.36948763,-0.16747215,-0.21965654\C,0,0.62064664,-1.43553398
 ,-0.03937817\O,0,-0.85756315,-0.99378753,1.30340017\C,0,-1.50244108,-0
 .14272121,0.60404444\C,0,-0.73309775,0.7723591,-0.19041804\C,0,0.43105
 995,-0.81766235,-1.20852221\H,0,0.71675207,1.22538956,1.36836335\H,0,1
 .06738304,1.97292253,-0.20330747\H,0,2.45595973,-0.19091227,-0.2879172

 Normal termination of Gaussian 16 at Wed Apr  9 19:01:02 2025.
