 Gaussian 16, Revision C.01,

 ----------------------------------------------------------------------
 #t hf aug-cc-pvdz symm=none int=(grid=ultrafine) guess=(read,tcheck) s
 table=(opt,rrhf)
 ----------------------------------------------------------------------
 -----
 title
 -----
 Symbolic Z-matrix:
 Charge =  0 Multiplicity = 1

 SCF Done:  E(RHF) =  -301.624083688     A.U. after   17 cycles
 Normal termination of Gaussian 16 at Wed Apr  9 18:39:31 2025.
 Gaussian 16:  ES64L-G16RevC.01  3-Jul-2019

 ----------------------------------------------------------------------
 #t hf aug-cc-pvdz iop(5/13=1,5/36=2,99/5=2) pseudo=read geom=check gue
 ss=(read,tcheck) scf=(maxcycle=1)
 ----------------------------------------------------------------------
 -----
 title
 -----
 Structure from the checkpoint file:  "Grambow2020_wb97xd3_007934_reverse_mol2.chk"
 Charge =  0 Multiplicity = 1

                         Standard orientation:
 ---------------------------------------------------------------------
 Center     Atomic      Atomic             Coordinates (Angstroms)
 Number     Number       Type             X           Y           Z
 ---------------------------------------------------------------------
      1          6           0        1.182421    0.942821   -0.008323
      2          6           0        1.528003   -0.536475    0.325690
      3          6           0        0.556024   -1.255529   -0.560766
      4          7           0       -0.580738   -1.322057   -0.089460
      5          6           0       -1.545931   -0.529793    0.214019
      6          6           0       -1.288684    0.887882   -0.002620
      7          7           0       -0.164620    1.466179   -0.158595
      8          1           0        1.715824    1.239039   -0.912500
      9          1           0        1.622899    1.535346    0.800233
     10          1           0        2.572878   -0.715095    0.079994
     11          1           0        1.350624   -0.750058    1.382335
     12          1           0       -2.471535   -0.910192    0.624240
     13          1           0       -2.164177    1.538677   -0.045916
 ---------------------------------------------------------------------

 SCF Done:  E(RHF) =  -301.929803102     A.U. after    2 cycles

 The electronic state is 1-A.
 Alpha  occ. eigenvalues --  -15.56621 -15.50977 -11.29633 -11.29544 -11.28793
 Alpha  occ. eigenvalues --  -11.28532 -11.26484  -1.32542  -1.22685  -1.09758
 Alpha  occ. eigenvalues --   -1.00255  -0.94745  -0.82663  -0.73703  -0.72670
 Alpha  occ. eigenvalues --   -0.68198  -0.63828  -0.63516  -0.58327  -0.57505
 Alpha  occ. eigenvalues --   -0.54619  -0.51948  -0.45090  -0.42451  -0.33045
 Alpha virt. eigenvalues --    0.03203   0.03438   0.04217   0.04676   0.04963
 Alpha virt. eigenvalues --    0.05589   0.06515   0.08448   0.09376   0.10635
 Alpha virt. eigenvalues --    0.11637   0.12721   0.13366   0.13457   0.14578

 Mulliken charges:
               1
     1  C   -0.533008
     2  C   -0.127937
     3  C   -0.918591
     4  N    1.157530
     5  C   -0.281900
     6  C   -0.638319
     7  N    0.953764
     8  H    0.109269
     9  H    0.193823
    10  H    0.163300
    11  H    0.123547
    12  H   -0.137323
    13  H   -0.064154
 Sum of Mulliken charges =  -0.00000

 Dipole moment (field-independent basis, Debye):
    X=             -0.1478    Y=             -0.0614    Z=              2.0834  Tot=              2.0896

 Test job not archived.
 1\1\GINC-SE041\SP\RHF\Aug-CC-pVDZ\C5H6N2\OHZDE\09-Apr-2025\0\\#t hf au
 g-cc-pvdz iop(5/13=1,5/36=2,99/5=2) pseudo=read geom=check guess=(read
 ,tcheck) scf=(maxcycle=1)\\title\\0,1\C,0,-1.19324741,-0.50963937,-0.1
 2178699\C,0,-1.11166106,1.01355835,0.18238637\C,0,0.01966677,1.4156631
 7,-0.71538666\N,0,1.13126801,1.17174178,-0.24249391\C,0,1.83815153,0.1
 4783171,0.07891543\C,0,1.19517405,-1.1458218,-0.11068705\N,0,-0.046009
 92,-1.39067189,-0.25828904\H,0,-1.7907366,-0.66292225,-1.02140431\H,0,
 -1.77910365,-0.93997898,0.69702298\H,0,-2.066004,1.47162722,-0.0694837

 Normal termination of Gaussian 16 at Wed Apr  9 18:39:36 2025.
