 Gaussian 16, Revision C.01,

 ----------------------------------------------------------------------
 #t hf aug-cc-pvdz symm=none int=(grid=ultrafine) guess=(read,tcheck) s
 table=(opt,rrhf)
 ----------------------------------------------------------------------
 -----
 title
 -----
 Symbolic Z-matrix:
 Charge =  0 Multiplicity = 1

 SCF Done:  E(RHF) =  -307.874423947     A.U. after   13 cycles

 1\1\GINC-SE219\Stability\RHF\Aug-CC-pVDZ\C6H10O1\OHZDE\09-Apr-2025\0\\
 #t hf aug-cc-pvdz symm=none int=(grid=ultrafine) guess=(read,tcheck) s
 table=(opt,rrhf)\\title\\0,1\C,0,2.056611,0.03434252,-1.39408409\C,0,1
 .06932687,-0.1063429,-0.26389156\C,0,0.2704056,1.13538148,0.15471951\C
 ,0,-0.96346212,0.28478693,-0.20508351\O,0,-0.13540413,-0.78981858,-0.6
 6676882\C,0,-1.93221059,-1.28903856,1.47088023\C,0,-1.8620001,-0.08410
 25,0.93020774\H,0,2.38846463,-0.94790502,-1.73495753\H,0,2.93288762,0.
 59725014,-1.06370326\H,0,1.60196441,0.55548686,-2.2388932\H,0,1.529844

 Normal termination of Gaussian 16 at Wed Apr  9 19:04:01 2025.
 Gaussian 16:  ES64L-G16RevC.01  3-Jul-2019

 ----------------------------------------------------------------------
 #t hf aug-cc-pvdz iop(5/13=1,5/36=2,99/5=2) pseudo=read geom=check gue
 ss=(read,tcheck) scf=(maxcycle=1)
 ----------------------------------------------------------------------
 -----
 title
 -----
 Structure from the checkpoint file:  "Grambow2020_wb97xd3_008502_reverse_mol2.chk"
 Charge =  0 Multiplicity = 1

                         Standard orientation:
 ---------------------------------------------------------------------
 Center     Atomic      Atomic             Coordinates (Angstroms)
 Number     Number       Type             X           Y           Z
 ---------------------------------------------------------------------
      1          6           0       -2.574564   -0.361465   -0.000062
      2          6           0       -1.139365   -0.221753   -0.438857
      3          6           0       -0.494553    1.168967   -0.364666
      4          6           0        0.511221    0.492886    0.587559
      5          8           0       -0.212221   -0.743050    0.535555
      6          6           0        2.488186   -0.718858   -0.333062
      7          6           0        1.918805    0.395006    0.096169
      8          1           0       -2.839403   -1.414697    0.108080
      9          1           0       -3.242217    0.086229   -0.740120
     10          1           0       -2.732582    0.132754    0.960550
     11          1           0       -0.985430   -0.717608   -1.403645
     12          1           0       -0.075541    1.552598   -1.292919
     13          1           0       -1.121867    1.928292    0.100753
     14          1           0        0.507546    0.901097    1.604964
     15          1           0        3.514628   -0.729938   -0.677490
     16          1           0        1.938921   -1.652706   -0.339123
     17          1           0        2.475339    1.329674    0.112024
 ---------------------------------------------------------------------

 SCF Done:  E(RHF) =  -308.200837224     A.U. after    2 cycles

 The electronic state is 1-A.
 Alpha  occ. eigenvalues --  -20.53227 -11.29097 -11.28759 -11.23705 -11.23508
 Alpha  occ. eigenvalues --  -11.22704 -11.22627  -1.46523  -1.06730  -1.04358
 Alpha  occ. eigenvalues --   -0.98312  -0.88674  -0.79266  -0.73257  -0.69653
 Alpha  occ. eigenvalues --   -0.67122  -0.63668  -0.61854  -0.58453  -0.55275
 Alpha  occ. eigenvalues --   -0.53726  -0.52713  -0.51765  -0.47456  -0.45629
 Alpha  occ. eigenvalues --   -0.40993  -0.36754
 Alpha virt. eigenvalues --    0.03497   0.03764   0.03869   0.04415   0.05534
 Alpha virt. eigenvalues --    0.05794   0.06664   0.06931   0.07553   0.08629
 Alpha virt. eigenvalues --    0.10977   0.11914   0.12823   0.13573   0.14493

 Mulliken charges:
               1
     1  C   -0.482895
     2  C    0.680233
     3  C   -0.365127
     4  C    1.087960
     5  O   -1.531891
     6  C   -0.106558
     7  C    0.528251
     8  H    0.177545
     9  H    0.226598
    10  H    0.188553
    11  H   -0.036500
    12  H   -0.005740
    13  H   -0.014740
    14  H    0.030436
    15  H   -0.100901
    16  H   -0.082454
    17  H   -0.192772
 Sum of Mulliken charges =  -0.00000

 Dipole moment (field-independent basis, Debye):
    X=             -0.5649    Y=              1.6126    Z=             -0.8478  Tot=              1.9075

 Test job not archived.
 1\1\GINC-SE219\SP\RHF\Aug-CC-pVDZ\C6H10O1\OHZDE\09-Apr-2025\0\\#t hf a
 ug-cc-pvdz iop(5/13=1,5/36=2,99/5=2) pseudo=read geom=check guess=(rea
 d,tcheck) scf=(maxcycle=1)\\title\\0,1\C,0,2.056611,0.03434252,-1.3940
 8409\C,0,1.06932687,-0.1063429,-0.26389156\C,0,0.2704056,1.13538148,0.
 15471951\C,0,-0.96346212,0.28478693,-0.20508351\O,0,-0.13540413,-0.789
 81858,-0.66676882\C,0,-1.93221059,-1.28903856,1.47088023\C,0,-1.862000
 1,-0.0841025,0.93020774\H,0,2.38846463,-0.94790502,-1.73495753\H,0,2.9
 3288762,0.59725014,-1.06370326\H,0,1.60196441,0.55548686,-2.2388932\H,

 Normal termination of Gaussian 16 at Wed Apr  9 19:04:07 2025.
