 Gaussian 16, Revision C.01,

 ----------------------------------------------------------------------
 #t hf aug-cc-pvdz symm=none int=(grid=ultrafine) guess=(read,tcheck) s
 table=(opt,rrhf)
 ----------------------------------------------------------------------
 -----
 title
 -----
 Symbolic Z-matrix:
 Charge =  0 Multiplicity = 1

 SCF Done:  E(RHF) =  -266.813888034     A.U. after   13 cycles
 Normal termination of Gaussian 16 at Wed Apr  9 03:05:13 2025.
 Gaussian 16:  ES64L-G16RevC.01  3-Jul-2019

 ----------------------------------------------------------------------
 #t hf aug-cc-pvdz iop(5/13=1,5/36=2,99/5=2) pseudo=read geom=check gue
 ss=(read,tcheck) scf=(maxcycle=1)
 ----------------------------------------------------------------------
 -----
 title
 -----
 Structure from the checkpoint file:  "Grambow2020_b97d3_006482_reverse_mol2.chk"
 Charge =  0 Multiplicity = 1

                         Standard orientation:
 ---------------------------------------------------------------------
 Center     Atomic      Atomic             Coordinates (Angstroms)
 Number     Number       Type             X           Y           Z
 ---------------------------------------------------------------------
      1          8           0       -0.501587    1.404870   -0.125796
      2          6           0       -1.260704   -0.931367   -0.080682
      3          6           0       -0.121921    0.063974   -0.056387
      4          6           0        1.216763   -0.239394   -0.568459
      5          8           0        0.944214   -0.248634    0.853585
      6          1           0       -1.152410    1.561925    0.586003
      7          1           0       -1.889493   -0.810390    0.815347
      8          1           0       -1.888278   -0.775254   -0.967900
      9          1           0       -0.878862   -1.959109   -0.085489
     10          1           0        1.836380    0.589949   -0.920448
     11          1           0        1.426822   -1.216283   -1.016654
 ---------------------------------------------------------------------

 SCF Done:  E(RHF) =  -267.086968016     A.U. after    2 cycles

 The electronic state is 1-A.
 Alpha  occ. eigenvalues --  -20.57251 -20.55811 -11.35551 -11.29488 -11.24915
 Alpha  occ. eigenvalues --   -1.51478  -1.44603  -1.01797  -0.93266  -0.81766
 Alpha  occ. eigenvalues --   -0.71995  -0.67441  -0.65085  -0.60432  -0.57378
 Alpha  occ. eigenvalues --   -0.56075  -0.53868  -0.47810  -0.44782  -0.43508
 Alpha virt. eigenvalues --    0.03457   0.04102   0.04637   0.05358   0.06443
 Alpha virt. eigenvalues --    0.07568   0.10076   0.11607   0.12577   0.14042
 Alpha virt. eigenvalues --    0.14723   0.15660   0.16289   0.16687   0.17600

 Mulliken charges:
               1
     1  O   -1.421561
     2  C   -0.592809
     3  C    1.943807
     4  C    0.387818
     5  O   -1.295395
     6  H    0.319440
     7  H    0.186990
     8  H    0.246474
     9  H    0.187877
    10  H    0.025701
    11  H    0.011657
 Sum of Mulliken charges =  -0.00000

 Dipole moment (field-independent basis, Debye):
    X=             -1.5385    Y=             -0.8725    Z=             -0.8764  Tot=              1.9739

 Test job not archived.
 1\1\GINC-SE073\SP\RHF\Aug-CC-pVDZ\C3H6O2\OHZDE\09-Apr-2025\0\\#t hf au
 g-cc-pvdz iop(5/13=1,5/36=2,99/5=2) pseudo=read geom=check guess=(read
 ,tcheck) scf=(maxcycle=1)\\title\\0,1\O,0,-1.290713,-0.98987683,-0.420
 93764\C,0,-0.34723066,1.22580571,0.06577337\C,0,-0.13363028,-0.2542434
 5,-0.1621525\C,0,0.96906154,-1.00580367,0.4424562\O,0,1.02264205,-0.59
 19718,-0.94406812\H,0,-1.75131092,-0.55803969,-1.16676604\H,0,-0.73571
 715,1.69849611,-0.84993528\H,0,-1.07194457,1.38917193,0.87415245\H,0,0
 .59712198,1.71994164,0.3228896\H,0,0.83591209,-2.07881726,0.60538228\H

 Normal termination of Gaussian 16 at Wed Apr  9 03:05:16 2025.
