 Gaussian 16, Revision C.01,

 ----------------------------------------------------------------------
 #t hf aug-cc-pvdz symm=none int=(grid=ultrafine) guess=(read,tcheck) s
 table=(opt,rrhf)
 ----------------------------------------------------------------------
 -----
 title
 -----
 Symbolic Z-matrix:
 Charge =  0 Multiplicity = 1

 SCF Done:  E(RHF) =  -338.565314687     A.U. after   16 cycles
 Normal termination of Gaussian 16 at Wed Apr  9 19:09:52 2025.
 Gaussian 16:  ES64L-G16RevC.01  3-Jul-2019

 ----------------------------------------------------------------------
 #t hf aug-cc-pvdz iop(5/13=1,5/36=2,99/5=2) pseudo=read geom=check gue
 ss=(read,tcheck) scf=(maxcycle=1)
 ----------------------------------------------------------------------
 -----
 title
 -----
 Structure from the checkpoint file:  "Grambow2020_wb97xd3_008814_reverse_mol1.chk"
 Charge =  0 Multiplicity = 1

                         Standard orientation:
 ---------------------------------------------------------------------
 Center     Atomic      Atomic             Coordinates (Angstroms)
 Number     Number       Type             X           Y           Z
 ---------------------------------------------------------------------
      1          7           0        2.205329   -0.222244   -0.015135
      2          6           0        0.915937    0.101020   -0.099275
      3          6           0       -0.088396   -1.012814   -0.429711
      4          8           0       -1.066744   -0.679312    1.115173
      5          7           0       -1.122689   -0.211948   -1.038335
      6          6           0       -1.119982    0.800057   -0.087744
      7          6           0        0.225644    1.256207    0.118801
      8          1           0        2.920363    0.449432    0.191067
      9          1           0        2.461569   -1.171261   -0.223260
     10          1           0       -0.540833   -0.529208    1.910395
     11          1           0       -1.993114   -0.723572   -1.096569
     12          1           0       -2.015303    1.371391    0.137136
     13          1           0        0.523574    2.210242    0.521707
 ---------------------------------------------------------------------

 SCF Done:  E(RHF) =  -338.911267542     A.U. after    2 cycles

 The electronic state is 1-A.
 Alpha  occ. eigenvalues --  -20.51288 -15.54378 -15.51293 -11.36263 -11.31140
 Alpha  occ. eigenvalues --  -11.28147 -11.21890  -1.38725  -1.27144  -1.24272
 Alpha  occ. eigenvalues --   -1.06096  -0.95340  -0.83767  -0.82231  -0.75906
 Alpha  occ. eigenvalues --   -0.71859  -0.66338  -0.65297  -0.59914  -0.58349
 Alpha  occ. eigenvalues --   -0.55567  -0.52106  -0.46922  -0.43164  -0.34281
 Alpha  occ. eigenvalues --   -0.33484
 Alpha virt. eigenvalues --    0.02569   0.03613   0.04411   0.05761   0.05882
 Alpha virt. eigenvalues --    0.06770   0.08015   0.10490   0.10873   0.11784
 Alpha virt. eigenvalues --    0.12198   0.12394   0.13049   0.14384   0.15040

 Mulliken charges:
               1
     1  N    0.735832
     2  C   -0.836948
     3  C   -0.545638
     4  O   -1.002367
     5  N    0.650891
     6  C   -0.512460
     7  C    0.999487
     8  H    0.063831
     9  H    0.079237
    10  H    0.413966
    11  H    0.229144
    12  H   -0.132046
    13  H   -0.142929
 Sum of Mulliken charges =  -0.00000

 Dipole moment (field-independent basis, Debye):
    X=              1.8497    Y=              3.2675    Z=              1.1834  Tot=              3.9368

 Test job not archived.
 1\1\GINC-SE098\SP\RHF\Aug-CC-pVDZ\C4H6N2O1\OHZDE\09-Apr-2025\0\\#t hf
 aug-cc-pvdz iop(5/13=1,5/36=2,99/5=2) pseudo=read geom=check guess=(re
 ad,tcheck) scf=(maxcycle=1)\\title\\0,1\N,0,-1.8926077,0.92141949,0.35
 507923\C,0,-0.64400564,0.47548579,0.2276249\C,0,-0.29582103,-0.8857026
 8,0.84765124\O,0,0.29182241,-1.55286851,-0.78471566\N,0,1.1157898,-0.6
 8127834,1.06476116\C,0,1.38664488,-0.11531569,-0.17382981\C,0,0.455231
 95,0.94788555,-0.42585331\H,0,-2.19457749,1.801819,-0.01728382\H,0,-2.
 53188951,0.36637012,0.89623278\H,0,-0.26606319,-1.33661315,-1.54200676

 Normal termination of Gaussian 16 at Wed Apr  9 19:09:57 2025.
