 Gaussian 16, Revision C.01,

 ----------------------------------------------------------------------
 #t hf aug-cc-pvdz symm=none int=(grid=ultrafine) guess=(read,tcheck) s
 table=(opt,rrhf)
 ----------------------------------------------------------------------
 -----
 title
 -----
 Symbolic Z-matrix:
 Charge =  0 Multiplicity = 1

 SCF Done:  E(RHF) =  -269.842979543     A.U. after   16 cycles

 1\1\GINC-SE113\Stability\RHF\Aug-CC-pVDZ\C5H10O1\OHZDE\09-Apr-2025\0\\
 #t hf aug-cc-pvdz symm=none int=(grid=ultrafine) guess=(read,tcheck) s
 table=(opt,rrhf)\\title\\0,1\C,0,2.43485841,0.0007272,0.47350231\C,0,1
 .98954882,0.23753432,-0.89625588\C,0,-0.18149855,0.0295203,-0.13876253
 \O,0,0.20152995,-0.1805624,1.00126709\C,0,-1.67704579,0.06407369,-0.45
 019681\C,0,-2.62081501,-0.26511264,0.71628408\H,0,3.22328022,0.2546045
 4,-0.78410195\H,0,2.66522133,0.84195387,1.11845289\H,0,2.72457533,-1.0
 0034533,0.7756598\H,0,1.78987698,-0.5944137,-1.56588654\H,0,1.7334477,

 Normal termination of Gaussian 16 at Wed Apr  9 15:47:59 2025.
 Gaussian 16:  ES64L-G16RevC.01  3-Jul-2019

 ----------------------------------------------------------------------
 #t hf aug-cc-pvdz iop(5/13=1,5/36=2,99/5=2) pseudo=read geom=check gue
 ss=(read,tcheck) scf=(maxcycle=1)
 ----------------------------------------------------------------------
 -----
 title
 -----
 Structure from the checkpoint file:  "Grambow2020_b97d3_006741_forward_mol1.chk"
 Charge =  0 Multiplicity = 1

                         Standard orientation:
 ---------------------------------------------------------------------
 Center     Atomic      Atomic             Coordinates (Angstroms)
 Number     Number       Type             X           Y           Z
 ---------------------------------------------------------------------
      1          6           0       -2.359771   -0.612589   -0.007599
      2          6           0       -2.068976    0.817495    0.022604
      3          6           0        0.175668    0.277662   -0.003230
      4          8           0       -0.077945   -0.916511   -0.015219
      5          6           0        1.627830    0.752575   -0.026250
      6          6           0        2.701508   -0.344771    0.026557
      7          1           0       -3.284089    0.575736    0.026323
      8          1           0       -2.570960   -1.099847   -0.953468
      9          1           0       -2.560623   -1.136752    0.920999
     10          1           0       -1.891285    1.327247    0.965467
     11          1           0       -1.904984    1.371721   -0.897005
     12          1           0        1.741866    1.469573    0.803627
     13          1           0        1.727555    1.364551   -0.939477
     14          1           0        2.580100   -1.044742   -0.810193
     15          1           0        3.711499    0.086537   -0.022382
     16          1           0        2.616925   -0.924165    0.955371
 ---------------------------------------------------------------------

 SCF Done:  E(RHF) =  -270.128181331     A.U. after    2 cycles

 The electronic state is 1-A.
 Alpha  occ. eigenvalues --  -20.51024 -11.33408 -11.29956 -11.24618 -11.21166
 Alpha  occ. eigenvalues --  -11.20312  -1.42686  -1.09946  -1.01147  -0.86219
 Alpha  occ. eigenvalues --   -0.84706  -0.69257  -0.68980  -0.64710  -0.61470
 Alpha  occ. eigenvalues --   -0.59358  -0.57079  -0.56521  -0.52658  -0.49301
 Alpha  occ. eigenvalues --   -0.48661  -0.45813  -0.42805  -0.24846
 Alpha virt. eigenvalues --    0.02913   0.03873   0.03979   0.04634   0.05608
 Alpha virt. eigenvalues --    0.06169   0.06200   0.06938   0.08521   0.08787
 Alpha virt. eigenvalues --    0.09456   0.10884   0.13440   0.14304   0.14403

 Mulliken charges:
               1
     1  C    0.107928
     2  C   -0.058195
     3  C    0.592513
     4  O   -1.095923
     5  C   -0.698749
     6  C   -0.317507
     7  H    0.175980
     8  H    0.022691
     9  H    0.024800
    10  H    0.164541
    11  H    0.160721
    12  H    0.221084
    13  H    0.239301
    14  H    0.171810
    15  H    0.123604
    16  H    0.165400
 Sum of Mulliken charges =  -0.00000

 Dipole moment (field-independent basis, Debye):
    X=             -3.7249    Y=              1.0528    Z=              0.0069  Tot=              3.8708

 Test job not archived.
 1\1\GINC-SE113\SP\RHF\Aug-CC-pVDZ\C5H10O1\OHZDE\09-Apr-2025\0\\#t hf a
 ug-cc-pvdz iop(5/13=1,5/36=2,99/5=2) pseudo=read geom=check guess=(rea
 d,tcheck) scf=(maxcycle=1)\\title\\0,1\C,0,2.43485841,0.0007272,0.4735
 0231\C,0,1.98954882,0.23753432,-0.89625588\C,0,-0.18149855,0.0295203,-
 0.13876253\O,0,0.20152995,-0.1805624,1.00126709\C,0,-1.67704579,0.0640
 7369,-0.45019681\C,0,-2.62081501,-0.26511264,0.71628408\H,0,3.22328022
 ,0.25460454,-0.78410195\H,0,2.66522133,0.84195387,1.11845289\H,0,2.724
 57533,-1.00034533,0.7756598\H,0,1.78987698,-0.5944137,-1.56588654\H,0,

 Normal termination of Gaussian 16 at Wed Apr  9 15:48:04 2025.
