 Gaussian 16, Revision C.01,

 ----------------------------------------------------------------------
 #t hf aug-cc-pvdz symm=none int=(grid=ultrafine) guess=(read,tcheck) s
 table=(opt,rrhf)
 ----------------------------------------------------------------------
 -----
 title
 -----
 Symbolic Z-matrix:
 Charge =  0 Multiplicity = 1

 SCF Done:  E(RHF) =  -302.678337464     A.U. after   16 cycles
 Normal termination of Gaussian 16 at Wed Apr  9 18:11:53 2025.
 Gaussian 16:  ES64L-G16RevC.01  3-Jul-2019

 ----------------------------------------------------------------------
 #t hf aug-cc-pvdz iop(5/13=1,5/36=2,99/5=2) pseudo=read geom=check gue
 ss=(read,tcheck) scf=(maxcycle=1)
 ----------------------------------------------------------------------
 -----
 title
 -----
 Structure from the checkpoint file:  "Grambow2020_wb97xd3_007172_reverse_mol1.chk"
 Charge =  0 Multiplicity = 1

                         Standard orientation:
 ---------------------------------------------------------------------
 Center     Atomic      Atomic             Coordinates (Angstroms)
 Number     Number       Type             X           Y           Z
 ---------------------------------------------------------------------
      1          6           0        2.557933   -0.277878   -0.236234
      2          6           0        1.064176   -0.182955   -0.376641
      3          6           0        0.142449   -0.641775    0.680585
      4          7           0        0.407398    0.802551    0.479831
      5          6           0       -0.864717    1.244868   -0.079249
      6          6           0       -1.581807   -0.080828   -0.089077
      7          7           0       -2.469141   -0.866910   -0.298263
      8          1           0        3.054214    0.505309   -0.813236
      9          1           0        2.915337   -1.245872   -0.593264
     10          1           0        2.848537   -0.165741    0.808765
     11          1           0        0.700225   -0.249262   -1.402840
     12          1           0       -1.329164   -1.289206    0.204354
     13          1           0        0.508751   -1.107665    1.592915
     14          1           0       -1.375793    1.927115    0.603338
     15          1           0       -0.798104    1.707234   -1.067311
 ---------------------------------------------------------------------

 SCF Done:  E(RHF) =  -303.001151323     A.U. after    2 cycles

 The electronic state is 1-A.
 Alpha  occ. eigenvalues --  -15.52830 -15.51497 -11.36056 -11.30608 -11.27431
 Alpha  occ. eigenvalues --  -11.25459 -11.23229  -1.32000  -1.27770  -1.05786
 Alpha  occ. eigenvalues --   -0.97380  -0.87188  -0.81594  -0.75183  -0.71867
 Alpha  occ. eigenvalues --   -0.66211  -0.64846  -0.62646  -0.59854  -0.57908
 Alpha  occ. eigenvalues --   -0.54889  -0.52551  -0.49844  -0.48200  -0.41711
 Alpha  occ. eigenvalues --   -0.35386
 Alpha virt. eigenvalues --    0.03583   0.04117   0.04248   0.04506   0.05210
 Alpha virt. eigenvalues --    0.06209   0.06537   0.07337   0.08818   0.10630
 Alpha virt. eigenvalues --    0.11987   0.12540   0.12774   0.13588   0.14135

 Mulliken charges:
               1
     1  C   -0.551627
     2  C    0.134079
     3  C   -0.657735
     4  N    0.612028
     5  C   -0.408482
     6  C   -1.054166
     7  N    0.791859
     8  H    0.222209
     9  H    0.244950
    10  H    0.176618
    11  H   -0.204299
    12  H    0.678886
    13  H   -0.213998
    14  H    0.107383
    15  H    0.122293
 Sum of Mulliken charges =  -0.00000

 Dipole moment (field-independent basis, Debye):
    X=              1.9013    Y=              0.6766    Z=             -0.4884  Tot=              2.0764

 Test job not archived.
 1\1\GINC-SE045\SP\RHF\Aug-CC-pVDZ\C5H8N2\OHZDE\09-Apr-2025\0\\#t hf au
 g-cc-pvdz iop(5/13=1,5/36=2,99/5=2) pseudo=read geom=check guess=(read
 ,tcheck) scf=(maxcycle=1)\\title\\0,1\C,0,-1.93032414,-0.97831219,0.38
 75619\C,0,-0.5267625,-0.58150208,0.02342932\C,0,-0.21798696,0.6955426,
 -0.64861056\N,0,0.04366943,0.51790431,0.79933906\C,0,1.5010605,0.47077
 389,0.81614394\C,0,1.75022341,0.61783173,-0.6630707\N,0,2.38012336,0.6
 7627466,-1.68720789\H,0,-1.93577079,-1.63514352,1.26000083\H,0,-2.4065
 9526,-1.50530192,-0.44169677\H,0,-2.52499434,-0.09527921,0.62350239\H,

 Normal termination of Gaussian 16 at Wed Apr  9 18:12:02 2025.
