 Gaussian 16, Revision C.01,

 ----------------------------------------------------------------------
 #t hf aug-cc-pvdz symm=none int=(grid=ultrafine) guess=(read,tcheck) s
 table=(opt,rrhf)
 ----------------------------------------------------------------------
 -----
 title
 -----
 Symbolic Z-matrix:
 Charge =  0 Multiplicity = 1

 SCF Done:  E(RHF) =  -355.924719528     A.U. after   13 cycles
 Normal termination of Gaussian 16 at Wed Apr  9 19:14:52 2025.
 Gaussian 16:  ES64L-G16RevC.01  3-Jul-2019

 ----------------------------------------------------------------------
 #t hf aug-cc-pvdz iop(5/13=1,5/36=2,99/5=2) pseudo=read geom=check gue
 ss=(read,tcheck) scf=(maxcycle=1)
 ----------------------------------------------------------------------
 -----
 title
 -----
 Structure from the checkpoint file:  "Grambow2020_wb97xd3_008991_reverse_mol2.chk"
 Charge =  0 Multiplicity = 1

                         Standard orientation:
 ---------------------------------------------------------------------
 Center     Atomic      Atomic             Coordinates (Angstroms)
 Number     Number       Type             X           Y           Z
 ---------------------------------------------------------------------
      1          6           0       -3.437221   -0.715584   -0.005593
      2          7           0       -2.223235   -0.383512    0.011546
      3          6           0        1.774902   -1.072133   -0.000741
      4          8           0        2.933043   -0.739415    0.001789
      5          7           0        0.707302   -0.216127   -0.002494
      6          6           0        0.849623    1.155048   -0.002511
      7          7           0       -0.165225    1.914494   -0.001518
      8          1           0       -3.703378   -1.772798   -0.020191
      9          1           0       -4.263499    0.000749   -0.007655
     10          1           0        1.458207   -2.128455   -0.002042
     11          1           0       -2.077194    0.629430    0.022183
     12          1           0       -0.244363   -0.587763   -0.002027
     13          1           0        1.889966    1.479339   -0.002650
     14          1           0        0.120199    2.886858   -0.001596
 ---------------------------------------------------------------------

 SCF Done:  E(RHF) =  -356.285602096     A.U. after    2 cycles

 The electronic state is 1-A.
 Alpha  occ. eigenvalues --  -20.52907 -15.53829 -15.51088 -15.49088 -11.37063
 Alpha  occ. eigenvalues --  -11.33246 -11.30305  -1.47923  -1.28883  -1.22731
 Alpha  occ. eigenvalues --   -1.19178  -0.93541  -0.87355  -0.83793  -0.76343
 Alpha  occ. eigenvalues --   -0.72458  -0.69883  -0.68687  -0.65069  -0.62554
 Alpha  occ. eigenvalues --   -0.62441  -0.51609  -0.49516  -0.49248  -0.47514
 Alpha  occ. eigenvalues --   -0.43819  -0.41869
 Alpha virt. eigenvalues --    0.03162   0.04274   0.04299   0.05146   0.06513
 Alpha virt. eigenvalues --    0.07169   0.07627   0.09146   0.09285   0.10054
 Alpha virt. eigenvalues --    0.10363   0.13126   0.13546   0.14165   0.14499

 Mulliken charges:
               1
     1  C   -0.746578
     2  N    0.606046
     3  C    0.634772
     4  O   -1.087157
     5  N    0.815672
     6  C   -1.207192
     7  N    0.719551
     8  H   -0.057246
     9  H    0.015364
    10  H    0.069038
    11  H    0.135765
    12  H    0.132503
    13  H   -0.188173
    14  H    0.157636
 Sum of Mulliken charges =  -0.00000

 Dipole moment (field-independent basis, Debye):
    X=             -3.6507    Y=             -0.1355    Z=             -0.0240  Tot=              3.6533

 Test job not archived.
 1\1\GINC-SE454\SP\RHF\Aug-CC-pVDZ\C3H7N3O1\OHZDE\09-Apr-2025\0\\#t hf
 aug-cc-pvdz iop(5/13=1,5/36=2,99/5=2) pseudo=read geom=check guess=(re
 ad,tcheck) scf=(maxcycle=1)\\title\\0,1\C,0,2.39851003,0.09118817,1.74
 904088\N,0,1.3909069,0.07441209,0.99486448\C,0,-0.52289322,0.13621805,
 -2.58186518\O,0,-1.49551388,0.10481056,-3.29251449\N,0,-0.53904749,0.0
 4478218,-1.21661842\C,0,-1.70277415,-0.09780008,-0.49150735\N,0,-1.675
 75255,-0.17642717,0.77331096\H,0,3.39303318,0.18649851,1.31247009\H,0,
 2.34381808,0.01412118,2.83851036\H,0,0.50087873,0.24463014,-2.97715012

 Normal termination of Gaussian 16 at Wed Apr  9 19:14:57 2025.
