 Gaussian 16, Revision C.01,

 ----------------------------------------------------------------------
 #t hf aug-cc-pvdz symm=none int=(grid=ultrafine) guess=(read,tcheck) s
 table=(opt,rrhf)
 ----------------------------------------------------------------------
 -----
 title
 -----
 Symbolic Z-matrix:
 Charge =  0 Multiplicity = 1

 SCF Done:  E(RHF) =  -354.631439955     A.U. after   15 cycles
 Normal termination of Gaussian 16 at Wed Apr  9 18:19:26 2025.
 Gaussian 16:  ES64L-G16RevC.01  3-Jul-2019

 ----------------------------------------------------------------------
 #t hf aug-cc-pvdz iop(5/13=1,5/36=2,99/5=2) pseudo=read geom=check gue
 ss=(read,tcheck) scf=(maxcycle=1)
 ----------------------------------------------------------------------
 -----
 title
 -----
 Structure from the checkpoint file:  "Grambow2020_wb97xd3_007316_reverse_mol2.chk"
 Charge =  0 Multiplicity = 1

                         Standard orientation:
 ---------------------------------------------------------------------
 Center     Atomic      Atomic             Coordinates (Angstroms)
 Number     Number       Type             X           Y           Z
 ---------------------------------------------------------------------
      1          8           0       -2.562263   -0.348638    0.003270
      2          6           0       -1.577707    0.587624   -0.000457
      3          6           0       -0.280115    0.243834   -0.004289
      4          7           0        0.206160   -1.053775   -0.005902
      5          7           0        1.624195   -0.857713    0.001906
      6          6           0        1.820262    0.623458    0.002636
      7          7           0        0.717840    1.226098   -0.001409
      8          1           0       -2.138729   -1.214425    0.007807
      9          1           0        2.055694   -1.290088    0.825227
     10          1           0       -1.912680    1.612214   -0.000891
     11          1           0        2.064166   -1.290004   -0.816650
     12          1           0        2.817648    1.039646    0.008841
 ---------------------------------------------------------------------

 SCF Done:  E(RHF) =  -354.992717005     A.U. after    2 cycles

 The electronic state is 1-A.
 Alpha  occ. eigenvalues --  -20.54546 -15.66205 -15.54704 -15.46482 -11.34392
 Alpha  occ. eigenvalues --  -11.26864 -11.25960  -1.45984  -1.39342  -1.25577
 Alpha  occ. eigenvalues --   -1.11874  -0.97876  -0.89014  -0.82463  -0.81880
 Alpha  occ. eigenvalues --   -0.78690  -0.70101  -0.68185  -0.59855  -0.58257
 Alpha  occ. eigenvalues --   -0.54977  -0.52900  -0.52745  -0.48369  -0.44396
 Alpha  occ. eigenvalues --   -0.26666
 Alpha virt. eigenvalues --    0.01264   0.03410   0.04358   0.05759   0.06658
 Alpha virt. eigenvalues --    0.06865   0.07568   0.09761   0.11772   0.11944
 Alpha virt. eigenvalues --    0.12818   0.13768   0.14038   0.14853   0.16903

 Mulliken charges:
               1
     1  O   -1.535256
     2  C    2.360827
     3  C   -2.213068
     4  N    0.173807
     5  N    0.020563
     6  C   -0.781593
     7  N    1.054690
     8  H    0.394072
     9  H    0.307582
    10  H   -0.055945
    11  H    0.307861
    12  H   -0.033540
 Sum of Mulliken charges =  -0.00000

 Dipole moment (field-independent basis, Debye):
    X=              7.0112    Y=             -1.2989    Z=              0.0395  Tot=              7.1306

 Test job not archived.
 1\1\GINC-SE045\SP\RHF\Aug-CC-pVDZ\C3H5N3O1\OHZDE\09-Apr-2025\0\\#t hf
 aug-cc-pvdz iop(5/13=1,5/36=2,99/5=2) pseudo=read geom=check guess=(re
 ad,tcheck) scf=(maxcycle=1)\\title\\0,1\O,0,-2.62518367,0.97789534,-0.
 18233692\C,0,-1.78573483,0.15886253,0.50356622\C,0,-0.51312794,-0.0260
 7461,0.11856999\N,0,0.08722761,0.56801132,-0.98001547\N,0,1.41414449,0
 .03222325,-0.94070398\C,0,1.44420189,-0.86674203,0.25230361\N,0,0.3323
 1901,-0.88024583,0.83716369\H,0,-2.13191085,1.34072067,-0.92666737\H,0
 ,1.63378737,-0.48263042,-1.79958778\H,0,-2.21264952,-0.32337299,1.3679

 Normal termination of Gaussian 16 at Wed Apr  9 18:19:31 2025.
