 Gaussian 16, Revision C.01,

 ----------------------------------------------------------------------
 #t hf aug-cc-pvdz symm=none int=(grid=ultrafine) guess=(read,tcheck) s
 table=(opt,rrhf)
 ----------------------------------------------------------------------
 -----
 title
 -----
 Symbolic Z-matrix:
 Charge =  0 Multiplicity = 1

 SCF Done:  E(RHF) =  -195.149807168     A.U. after   11 cycles
 Normal termination of Gaussian 16 at Wed Apr  9 03:07:47 2025.
 Gaussian 16:  ES64L-G16RevC.01  3-Jul-2019

 ----------------------------------------------------------------------
 #t hf aug-cc-pvdz iop(5/13=1,5/36=2,99/5=2) pseudo=read geom=check gue
 ss=(read,tcheck) scf=(maxcycle=1)
 ----------------------------------------------------------------------
 -----
 title
 -----
 Structure from the checkpoint file:  "Grambow2020_b97d3_006579_forward_mol2.chk"
 Charge =  0 Multiplicity = 1

                         Standard orientation:
 ---------------------------------------------------------------------
 Center     Atomic      Atomic             Coordinates (Angstroms)
 Number     Number       Type             X           Y           Z
 ---------------------------------------------------------------------
      1          6           0       -1.576740   -0.819234    0.120389
      2          6           0       -0.758116    0.330809   -0.433861
      3          6           0       -0.001942    1.262586    0.488882
      4          6           0        0.757532    0.332664   -0.432109
      5          6           0        1.578858   -0.816942    0.120523
      6          1           0       -1.124044   -1.241711    1.027260
      7          1           0       -1.673476   -1.632377   -0.615014
      8          1           0       -2.589137   -0.481141    0.386686
      9          1           0       -1.210715    0.807416   -1.306900
     10          1           0       -0.002215    2.333008    0.281402
     11          1           0       -0.004633    1.013270    1.551775
     12          1           0        1.209900    0.810238   -1.304823
     13          1           0        2.587742   -0.474849    0.395517
     14          1           0        1.122599   -1.248917    1.021080
     15          1           0        1.686426   -1.624237   -0.619923
 ---------------------------------------------------------------------

 SCF Done:  E(RHF) =  -195.368824078     A.U. after    2 cycles

 The electronic state is 1-A.
 Alpha  occ. eigenvalues --  -11.23301 -11.23249 -11.22596 -11.22582 -11.22496
 Alpha  occ. eigenvalues --   -1.14428  -0.97581  -0.94333  -0.79863  -0.74773
 Alpha  occ. eigenvalues --   -0.67668  -0.60456  -0.57796  -0.56643  -0.54092
 Alpha  occ. eigenvalues --   -0.53862  -0.50545  -0.48498  -0.40590  -0.39723
 Alpha virt. eigenvalues --    0.03766   0.03978   0.03982   0.04171   0.06386
 Alpha virt. eigenvalues --    0.06557   0.06811   0.07101   0.07363   0.10021
 Alpha virt. eigenvalues --    0.12381   0.13480   0.14511   0.15350   0.15737

 Mulliken charges:
               1
     1  C   -0.633350
     2  C    0.254069
     3  C    0.250622
     4  C    0.252112
     5  C   -0.634786
     6  H    0.143743
     7  H    0.208179
     8  H    0.182540
     9  H   -0.172838
    10  H   -0.136892
    11  H   -0.077516
    12  H   -0.172321
    13  H    0.184787
    14  H    0.143740
    15  H    0.207912
 Sum of Mulliken charges =  -0.00000

 Dipole moment (field-independent basis, Debye):
    X=             -0.0002    Y=             -0.0468    Z=             -0.1029  Tot=              0.1130

 Test job not archived.
 1\1\GINC-SE362\SP\RHF\Aug-CC-pVDZ\C5H10\OHZDE\09-Apr-2025\0\\#t hf aug
 -cc-pvdz iop(5/13=1,5/36=2,99/5=2) pseudo=read geom=check guess=(read,
 tcheck) scf=(maxcycle=1)\\title\\0,1\C,0,1.43445325,-0.97689713,0.0483
 3649\C,0,0.76783738,0.28434812,0.56294251\C,0,0.2716095,1.34734574,-0.
 39374789\C,0,-0.71878255,0.54205096,0.4189036\C,0,-1.6613135,-0.441970
 68,-0.24811164\H,0,1.00933591,-1.30000592,-0.91120058\H,0,1.32182337,-
 1.80819583,0.76082036\H,0,2.51018992,-0.80966891,-0.10976051\H,0,1.205
 18676,0.66144441,1.49069272\H,0,0.42936744,2.39832692,-0.15002326\H,0,

 Normal termination of Gaussian 16 at Wed Apr  9 03:07:50 2025.
