 Gaussian 16, Revision C.01,

 ----------------------------------------------------------------------
 #t hf aug-cc-pvdz symm=none int=(grid=ultrafine) guess=(read,tcheck) s
 table=(opt,rrhf)
 ----------------------------------------------------------------------
 -----
 title
 -----
 Symbolic Z-matrix:
 Charge =  0 Multiplicity = 1

 SCF Done:  E(RHF) =  -343.548928457     A.U. after   15 cycles
 Normal termination of Gaussian 16 at Wed Apr  9 18:10:13 2025.
 Gaussian 16:  ES64L-G16RevC.01  3-Jul-2019

 ----------------------------------------------------------------------
 #t hf aug-cc-pvdz iop(5/13=1,5/36=2,99/5=2) pseudo=read geom=check gue
 ss=(read,tcheck) scf=(maxcycle=1)
 ----------------------------------------------------------------------
 -----
 title
 -----
 Structure from the checkpoint file:  "Grambow2020_wb97xd3_007154_forward_mol1.chk"
 Charge =  0 Multiplicity = 1

                         Standard orientation:
 ---------------------------------------------------------------------
 Center     Atomic      Atomic             Coordinates (Angstroms)
 Number     Number       Type             X           Y           Z
 ---------------------------------------------------------------------
      1          8           0       -2.107237   -0.587403   -0.195766
      2          6           0       -0.807637   -0.120386   -0.050414
      3          6           0        0.242700   -1.234344   -0.015499
      4          6           0        1.489238   -0.481315    0.380235
      5          8           0        1.957838    0.294129   -0.567164
      6          6           0       -0.401532    0.942505    0.914555
      7          6           0       -0.358910    1.238395   -0.438336
      8          1           0       -2.627586    0.073399   -0.654270
      9          1           0       -0.053202   -1.979416    0.725529
     10          1           0        0.366900   -1.712410   -0.987434
     11          1           0        2.220336   -0.866668    1.087255
     12          1           0        0.803646    0.374890    1.211109
     13          1           0       -0.795777    1.423706    1.798441
     14          1           0       -0.765741    2.042817   -1.030356
     15          1           0        1.063462    0.920751   -0.790077
 ---------------------------------------------------------------------

 SCF Done:  E(RHF) =  -343.904520844     A.U. after    2 cycles

 The electronic state is 1-A.
 Alpha  occ. eigenvalues --  -20.56276 -20.54980 -11.33049 -11.31338 -11.27936
 Alpha  occ. eigenvalues --  -11.24093 -11.22235  -1.47771  -1.47019  -1.18709
 Alpha  occ. eigenvalues --   -1.02649  -0.87905  -0.80786  -0.78497  -0.73933
 Alpha  occ. eigenvalues --   -0.70756  -0.66615  -0.62489  -0.61519  -0.59248
 Alpha  occ. eigenvalues --   -0.57233  -0.53077  -0.49708  -0.45842  -0.45058
 Alpha  occ. eigenvalues --   -0.40618  -0.32744
 Alpha virt. eigenvalues --    0.03184   0.03336   0.04196   0.04646   0.05648
 Alpha virt. eigenvalues --    0.06219   0.07372   0.07993   0.08773   0.09835
 Alpha virt. eigenvalues --    0.12181   0.13255   0.13823   0.13915   0.15034

 Mulliken charges:
               1
     1  O   -1.601926
     2  C    1.336675
     3  C   -0.389101
     4  C    0.875130
     5  O   -1.520066
     6  C   -0.219955
     7  C   -0.051182
     8  H    0.291591
     9  H    0.163319
    10  H    0.156781
    11  H    0.034551
    12  H    0.591577
    13  H   -0.228089
    14  H   -0.267540
    15  H    0.828235
 Sum of Mulliken charges =   0.00000

 Dipole moment (field-independent basis, Debye):
    X=             -1.1651    Y=              0.5303    Z=              1.0764  Tot=              1.6726

 Test job not archived.
 1\1\GINC-SE454\SP\RHF\Aug-CC-pVDZ\C5H8O2\OHZDE\09-Apr-2025\0\\#t hf au
 g-cc-pvdz iop(5/13=1,5/36=2,99/5=2) pseudo=read geom=check guess=(read
 ,tcheck) scf=(maxcycle=1)\\title\\0,1\O,0,-0.27898594,-1.53012983,-1.5
 6683819\C,0,-0.13728153,-0.52494244,-0.61936287\C,0,1.12772583,-0.6612
 245,0.23299404\C,0,0.9062009,0.38555313,1.29727589\O,0,1.01602475,1.61
 508028,0.85606694\C,0,-1.24341019,-0.03189316,0.25196115\C,0,-0.754908
 76,0.81861648,-0.72665049\H,0,-0.76163968,-1.18518019,-2.31897207\H,0,
 1.17537747,-1.67311723,0.63995215\H,0,2.03247312,-0.45231789,-0.338339

 Normal termination of Gaussian 16 at Wed Apr  9 18:10:18 2025.
