 Gaussian 16, Revision C.01,

 ----------------------------------------------------------------------
 #t hf aug-cc-pvdz symm=none int=(grid=ultrafine) guess=(read,tcheck) s
 table=(opt,rrhf)
 ----------------------------------------------------------------------
 -----
 title
 -----
 Symbolic Z-matrix:
 Charge =  0 Multiplicity = 1

 SCF Done:  E(RHF) =  -263.647706722     A.U. after   19 cycles
 Normal termination of Gaussian 16 at Wed Apr  9 15:51:46 2025.
 Gaussian 16:  ES64L-G16RevC.01  3-Jul-2019

 ----------------------------------------------------------------------
 #t hf aug-cc-pvdz iop(5/13=1,5/36=2,99/5=2) pseudo=read geom=check gue
 ss=(read,tcheck) scf=(maxcycle=1)
 ----------------------------------------------------------------------
 -----
 title
 -----
 Structure from the checkpoint file:  "Grambow2020_b97d3_006857_forward_mol1.chk"
 Charge =  0 Multiplicity = 1

                         Standard orientation:
 ---------------------------------------------------------------------
 Center     Atomic      Atomic             Coordinates (Angstroms)
 Number     Number       Type             X           Y           Z
 ---------------------------------------------------------------------
      1          6           0        2.304300   -0.315330    0.020285
      2          6           0        1.055875    0.471626   -0.000001
      3          6           0        0.321674    1.466864   -0.016500
      4          7           0       -1.951818    0.506238   -0.107044
      5          7           0       -1.496244   -0.659676    0.018554
      6          6           0       -0.455312   -1.310251    0.046051
      7          1           0        2.364719   -0.988666   -0.847230
      8          1           0        3.182731    0.346502   -0.000279
      9          1           0        2.360865   -0.940051    0.922668
     10          1           0       -0.182675    2.407752   -0.062310
     11          1           0       -2.648382    0.692348    0.631945
     12          1           0       -0.300042   -2.321269   -0.324376
 ---------------------------------------------------------------------

 SCF Done:  E(RHF) =  -263.916752956     A.U. after    2 cycles

 The electronic state is 1-A.
 Alpha  occ. eigenvalues --  -15.61871 -15.54636 -11.30349 -11.25632 -11.24033
 Alpha  occ. eigenvalues --  -11.23116  -1.37060  -1.13954  -1.04582  -0.94587
 Alpha  occ. eigenvalues --   -0.82528  -0.73342  -0.71676  -0.68351  -0.63676
 Alpha  occ. eigenvalues --   -0.61923  -0.58531  -0.58169  -0.44540  -0.38918
 Alpha  occ. eigenvalues --   -0.37822  -0.34823
 Alpha virt. eigenvalues --    0.03217   0.03923   0.04210   0.05213   0.05828
 Alpha virt. eigenvalues --    0.06330   0.07100   0.09149   0.09426   0.11300
 Alpha virt. eigenvalues --    0.12402   0.13492   0.14387   0.14758   0.15527

 Mulliken charges:
               1
     1  C   -0.594094
     2  C    0.070354
     3  C    0.244384
     4  N    0.254489
     5  N   -0.011540
     6  C   -0.439606
     7  H    0.224560
     8  H    0.150013
     9  H    0.271249
    10  H   -0.395371
    11  H    0.201359
    12  H    0.024204
 Sum of Mulliken charges =  -0.00000

 Dipole moment (field-independent basis, Debye):
    X=              1.2853    Y=             -1.9656    Z=              0.6508  Tot=              2.4370

 Test job not archived.
 1\1\GINC-SE100\SP\RHF\Aug-CC-pVDZ\C4H6N2\OHZDE\09-Apr-2025\0\\#t hf au
 g-cc-pvdz iop(5/13=1,5/36=2,99/5=2) pseudo=read geom=check guess=(read
 ,tcheck) scf=(maxcycle=1)\\title\\0,1\C,0,-1.82298797,-0.27044376,0.62
 094358\C,0,-0.36261453,-0.4836675,0.60982537\C,0,0.73871085,-0.9319249
 4,0.95036986\N,0,2.30036772,0.07427346,-0.67706873\N,0,1.37868041,0.77
 007798,-1.17609531\C,0,0.1646692,0.95265558,-1.15648203\H,0,-2.2731982
 2,-0.54731295,-0.34355952\H,0,-2.29948299,-0.87629376,1.4057898\H,0,-2
 .06487878,0.78610059,0.8025323\H,0,1.6090634,-1.42065366,1.3316404\H,0

 Normal termination of Gaussian 16 at Wed Apr  9 15:51:50 2025.
