 Gaussian 16, Revision C.01,

 ----------------------------------------------------------------------
 #t hf aug-cc-pvdz symm=none int=(grid=ultrafine) guess=(read,tcheck) s
 table=(opt,rrhf)
 ----------------------------------------------------------------------
 -----
 title
 -----
 Symbolic Z-matrix:
 Charge =  0 Multiplicity = 1

 SCF Done:  E(RHF) =  -359.673306366     A.U. after   14 cycles
 Normal termination of Gaussian 16 at Wed Apr  9 03:46:29 2025.
 Gaussian 16:  ES64L-G16RevC.01  3-Jul-2019

 ----------------------------------------------------------------------
 #t hf aug-cc-pvdz iop(5/13=1,5/36=2,99/5=2) pseudo=read geom=check gue
 ss=(read,tcheck) scf=(maxcycle=1)
 ----------------------------------------------------------------------
 -----
 title
 -----
 Structure from the checkpoint file:  "Grambow2020_wb97xd3_007895_reverse_mol2.chk"
 Charge =  0 Multiplicity = 1

                         Standard orientation:
 ---------------------------------------------------------------------
 Center     Atomic      Atomic             Coordinates (Angstroms)
 Number     Number       Type             X           Y           Z
 ---------------------------------------------------------------------
      1          6           0        2.165715   -0.389116    0.168009
      2          6           0        0.684335   -0.408904    0.103298
      3          7           0       -0.076193    0.760342    0.463554
      4          8           0        0.071498    1.708008   -0.609993
      5          6           0       -0.161265   -1.341430   -0.320992
      6          6           0       -1.437627    0.254711    0.477852
      7          8           0       -1.468106   -0.962355   -0.273547
      8          1           0        2.511254   -0.191654    1.185176
      9          1           0        2.579614   -1.342753   -0.159557
     10          1           0        2.564300    0.395260   -0.479275
     11          1           0        0.343788    2.507429   -0.153832
     12          1           0        0.031821   -2.335949   -0.693544
     13          1           0       -1.706400    0.011219    1.509738
     14          1           0       -2.125107    0.977267    0.045728
 ---------------------------------------------------------------------

 SCF Done:  E(RHF) =  -360.039524103     A.U. after    2 cycles

 The electronic state is 1-A.
 Alpha  occ. eigenvalues --  -20.57908 -20.56833 -15.56343 -11.31909 -11.29378
 Alpha  occ. eigenvalues --  -11.25846 -11.23838  -1.51627  -1.47664  -1.18667
 Alpha  occ. eigenvalues --   -1.05463  -0.95918  -0.87779  -0.79936  -0.73641
 Alpha  occ. eigenvalues --   -0.71450  -0.65509  -0.62920  -0.60337  -0.59489
 Alpha  occ. eigenvalues --   -0.58273  -0.55822  -0.53920  -0.51523  -0.47377
 Alpha  occ. eigenvalues --   -0.46240  -0.33049
 Alpha virt. eigenvalues --    0.03606   0.04220   0.04472   0.05244   0.05744
 Alpha virt. eigenvalues --    0.06194   0.07270   0.09718   0.10960   0.11499
 Alpha virt. eigenvalues --    0.13060   0.14024   0.14897   0.15644   0.16255

 Mulliken charges:
               1
     1  C   -0.802092
     2  C   -0.391790
     3  N    1.302545
     4  O   -1.227357
     5  C    1.150679
     6  C    0.484894
     7  O   -1.465166
     8  H    0.218578
     9  H    0.174354
    10  H    0.247716
    11  H    0.278037
    12  H   -0.125158
    13  H    0.092569
    14  H    0.062191
 Sum of Mulliken charges =   0.00000

 Dipole moment (field-independent basis, Debye):
    X=              0.9060    Y=              0.3666    Z=              0.8538  Tot=              1.2977

 Test job not archived.
 1\1\GINC-SE343\SP\RHF\Aug-CC-pVDZ\C4H7N1O2\OHZDE\09-Apr-2025\0\\#t hf
 aug-cc-pvdz iop(5/13=1,5/36=2,99/5=2) pseudo=read geom=check guess=(re
 ad,tcheck) scf=(maxcycle=1)\\title\\0,1\C,0,-1.52864511,-0.9867983,-0.
 64445903\C,0,-0.2034414,-0.39611279,-0.33787462\N,0,-0.1102277,0.88772
 25,0.30896556\O,0,-0.4694583,0.69269216,1.68929319\C,0,1.02558843,-0.8
 7775103,-0.48678425\C,0,1.30905777,1.18156145,0.21592041\O,0,2.0020983
 ,-0.04532621,-0.03150641\H,0,-2.09750048,-0.34441262,-1.32029984\H,0,-
 1.41693542,-1.96625794,-1.1094486\H,0,-2.11158625,-1.10916149,0.271127

 Normal termination of Gaussian 16 at Wed Apr  9 03:46:33 2025.
