 Gaussian 16, Revision C.01,

 ----------------------------------------------------------------------
 #t hf aug-cc-pvdz symm=none int=(grid=ultrafine) guess=(read,tcheck) s
 table=(opt,rrhf)
 ----------------------------------------------------------------------
 -----
 title
 -----
 Symbolic Z-matrix:
 Charge =  0 Multiplicity = 1

 SCF Done:  E(RHF) =  -359.607828557     A.U. after   17 cycles
 Normal termination of Gaussian 16 at Wed Apr  9 03:52:41 2025.
 Gaussian 16:  ES64L-G16RevC.01  3-Jul-2019

 ----------------------------------------------------------------------
 #t hf aug-cc-pvdz iop(5/13=1,5/36=2,99/5=2) pseudo=read geom=check gue
 ss=(read,tcheck) scf=(maxcycle=1)
 ----------------------------------------------------------------------
 -----
 title
 -----
 Structure from the checkpoint file:  "Grambow2020_wb97xd3_008269_reverse_mol1.chk"
 Charge =  0 Multiplicity = 1

                         Standard orientation:
 ---------------------------------------------------------------------
 Center     Atomic      Atomic             Coordinates (Angstroms)
 Number     Number       Type             X           Y           Z
 ---------------------------------------------------------------------
      1          6           0       -2.074809   -0.451215    0.719447
      2          6           0       -1.282658   -0.206042   -0.540586
      3          6           0       -0.168659    1.628726    0.131355
      4          7           0        1.102278    1.294214    0.036244
      5          6           0        1.413399   -0.419908   -0.141681
      6          8           0        2.035188   -1.089938    0.541898
      7          8           0       -0.373280   -0.986315   -0.879122
      8          1           0       -1.415366   -0.741559    1.538760
      9          1           0       -2.761677   -1.282064    0.536167
     10          1           0       -2.664718    0.418400    1.011043
     11          1           0       -1.768011    0.392430   -1.323781
     12          1           0       -0.620149    1.569336    1.113786
     13          1           0       -0.622221    2.281638   -0.605376
     14          1           0        1.517290    1.602970   -0.837733
 ---------------------------------------------------------------------

 SCF Done:  E(RHF) =  -359.967653152     A.U. after    2 cycles

 The electronic state is 1-A.
 Alpha  occ. eigenvalues --  -20.59651 -20.55332 -15.56346 -11.36590 -11.33383
 Alpha  occ. eigenvalues --  -11.28169 -11.24738  -1.55416  -1.46558  -1.24356
 Alpha  occ. eigenvalues --   -1.02349  -0.90654  -0.81794  -0.78411  -0.73179
 Alpha  occ. eigenvalues --   -0.69094  -0.67666  -0.64885  -0.62605  -0.60562
 Alpha  occ. eigenvalues --   -0.58773  -0.57493  -0.55850  -0.50224  -0.46156
 Alpha  occ. eigenvalues --   -0.42544  -0.34265
 Alpha virt. eigenvalues --    0.03018   0.03620   0.04022   0.04289   0.06269
 Alpha virt. eigenvalues --    0.06370   0.07304   0.07666   0.09529   0.10643
 Alpha virt. eigenvalues --    0.11997   0.12295   0.12841   0.13619   0.14719

 Mulliken charges:
               1
     1  C   -0.456209
     2  C    1.052407
     3  C   -0.871594
     4  N    0.384329
     5  C    0.922170
     6  O   -0.857805
     7  O   -1.244529
     8  H    0.197968
     9  H    0.115064
    10  H    0.181943
    11  H    0.122859
    12  H    0.039757
    13  H    0.049730
    14  H    0.363912
 Sum of Mulliken charges =  -0.00000

 Dipole moment (field-independent basis, Debye):
    X=             -2.8258    Y=              2.6187    Z=             -0.5557  Tot=              3.8925

 Test job not archived.
 1\1\GINC-SE059\SP\RHF\Aug-CC-pVDZ\C4H7N1O2\OHZDE\09-Apr-2025\0\\#t hf
 aug-cc-pvdz iop(5/13=1,5/36=2,99/5=2) pseudo=read geom=check guess=(re
 ad,tcheck) scf=(maxcycle=1)\\title\\0,1\C,0,-1.48029205,-1.03300162,0.
 01438503\C,0,-0.33178539,-0.58365755,-0.85412961\C,0,0.08192773,1.3848
 2261,0.15224889\N,0,1.33293676,1.29087925,0.55520734\C,0,2.00251393,-0
 .32721825,0.54546778\O,0,2.4333864,-0.90841638,1.42830356\O,0,0.766548
 13,-1.16811525,-0.80439879\H,0,-1.13747048,-1.24152623,1.02899334\H,0,
 -1.87876228,-1.96364361,-0.39891577\H,0,-2.28786535,-0.3006297,0.04097

 Normal termination of Gaussian 16 at Wed Apr  9 03:52:46 2025.
