 Gaussian 16, Revision C.01,

 ----------------------------------------------------------------------
 #t hf aug-cc-pvdz symm=none int=(grid=ultrafine) guess=(read,tcheck) s
 table=(opt,rrhf)
 ----------------------------------------------------------------------
 -----
 title
 -----
 Symbolic Z-matrix:
 Charge =  0 Multiplicity = 1

 SCF Done:  E(RHF) =  -338.636659637     A.U. after   17 cycles
 Normal termination of Gaussian 16 at Wed Apr  9 03:40:25 2025.
 Gaussian 16:  ES64L-G16RevC.01  3-Jul-2019

 ----------------------------------------------------------------------
 #t hf aug-cc-pvdz iop(5/13=1,5/36=2,99/5=2) pseudo=read geom=check gue
 ss=(read,tcheck) scf=(maxcycle=1)
 ----------------------------------------------------------------------
 -----
 title
 -----
 Structure from the checkpoint file:  "Grambow2020_wb97xd3_007481_reverse_mol1.chk"
 Charge =  0 Multiplicity = 1

                         Standard orientation:
 ---------------------------------------------------------------------
 Center     Atomic      Atomic             Coordinates (Angstroms)
 Number     Number       Type             X           Y           Z
 ---------------------------------------------------------------------
      1          6           0        2.399507   -0.549980    0.052887
      2          8           0        1.555788    0.585718   -0.014013
      3          6           0        0.216735    0.416171   -0.043840
      4          6           0       -0.361130   -0.918774   -0.085195
      5          7           0       -1.654706   -0.884367   -0.019668
      6          6           0       -2.523722   -0.068049    0.208251
      7          7           0       -0.577317    1.415002   -0.027449
      8          1           0        2.193795   -1.148189    0.944166
      9          1           0        3.414441   -0.163567    0.110081
     10          1           0        2.305294   -1.171926   -0.841139
     11          1           0        0.171496   -1.852383   -0.133524
     12          1           0       -3.215643    0.366887   -0.504025
     13          1           0       -0.079865    2.292782    0.073742
 ---------------------------------------------------------------------

 SCF Done:  E(RHF) =  -338.978552999     A.U. after    2 cycles

 The electronic state is 1-A.
 Alpha  occ. eigenvalues --  -20.58649 -15.57572 -15.47245 -11.34690 -11.30678
 Alpha  occ. eigenvalues --  -11.30675 -11.27491  -1.52095  -1.31941  -1.19762
 Alpha  occ. eigenvalues --   -1.04597  -0.97254  -0.87160  -0.76286  -0.75123
 Alpha  occ. eigenvalues --   -0.71291  -0.67632  -0.66628  -0.62436  -0.60037
 Alpha  occ. eigenvalues --   -0.56634  -0.53503  -0.49574  -0.48445  -0.42394
 Alpha  occ. eigenvalues --   -0.32278
 Alpha virt. eigenvalues --    0.03283   0.04206   0.04690   0.04979   0.05503
 Alpha virt. eigenvalues --    0.06465   0.07290   0.09091   0.09551   0.10618
 Alpha virt. eigenvalues --    0.11800   0.12459   0.13890   0.14267   0.14937

 Mulliken charges:
               1
     1  C    0.154737
     2  O   -1.615432
     3  C    0.485116
     4  C   -0.729893
     5  N    0.997734
     6  C   -0.252857
     7  N    0.766118
     8  H    0.201429
     9  H   -0.069255
    10  H    0.184599
    11  H   -0.252459
    12  H    0.072431
    13  H    0.057732
 Sum of Mulliken charges =   0.00000

 Dipole moment (field-independent basis, Debye):
    X=              2.0436    Y=             -1.5852    Z=             -0.8332  Tot=              2.7173

 Test job not archived.
 1\1\GINC-SE457\SP\RHF\Aug-CC-pVDZ\C4H6N2O1\OHZDE\09-Apr-2025\0\\#t hf
 aug-cc-pvdz iop(5/13=1,5/36=2,99/5=2) pseudo=read geom=check guess=(re
 ad,tcheck) scf=(maxcycle=1)\\title\\0,1\C,0,-2.13594264,0.07862768,-0.
 17836273\O,0,-1.15496244,-0.74988529,0.41946039\C,0,0.15066113,-0.4324
 1324,0.28809184\C,0,0.55953619,0.70470328,-0.52277444\N,0,1.83787572,0
 .90586064,-0.45796923\C,0,2.7804845,0.50752465,0.19496931\N,0,1.058814
 84,-1.11022465,0.87484376\H,0,-2.07846956,1.10231682,0.200197\H,0,-3.0
 9625669,-0.34991787,0.09880559\H,0,-2.04825122,0.08063564,-1.26798735\

 Normal termination of Gaussian 16 at Wed Apr  9 03:40:29 2025.
