 Gaussian 16, Revision C.01,

 ----------------------------------------------------------------------
 #t hf aug-cc-pvdz symm=none int=(grid=ultrafine) guess=(read,tcheck) s
 table=(opt,rrhf)
 ----------------------------------------------------------------------
 -----
 title
 -----
 Symbolic Z-matrix:
 Charge =  0 Multiplicity = 1

 SCF Done:  E(RHF) =  -343.611546365     A.U. after   16 cycles
 Normal termination of Gaussian 16 at Wed Apr  9 18:51:49 2025.
 Gaussian 16:  ES64L-G16RevC.01  3-Jul-2019

 ----------------------------------------------------------------------
 #t hf aug-cc-pvdz iop(5/13=1,5/36=2,99/5=2) pseudo=read geom=check gue
 ss=(read,tcheck) scf=(maxcycle=1)
 ----------------------------------------------------------------------
 -----
 title
 -----
 Structure from the checkpoint file:  "Grambow2020_wb97xd3_008127_reverse_mol2.chk"
 Charge =  0 Multiplicity = 1

                         Standard orientation:
 ---------------------------------------------------------------------
 Center     Atomic      Atomic             Coordinates (Angstroms)
 Number     Number       Type             X           Y           Z
 ---------------------------------------------------------------------
      1          6           0        0.209998   -1.050811    0.709271
      2          8           0       -0.804002   -1.192825   -0.311568
      3          6           0       -1.640645   -0.162158   -0.342520
      4          6           0        2.026014    0.007600   -0.669977
      5          6           0        1.012962    0.222861    0.459225
      6          6           0        0.044976    1.338060    0.212766
      7          8           0       -1.232829    1.011049   -0.071747
      8          1           0        0.813664   -1.952184    0.631619
      9          1           0       -0.281504   -1.027947    1.685022
     10          1           0       -2.650832   -0.298443   -0.689126
     11          1           0        2.550321    0.936509   -0.895649
     12          1           0        2.766149   -0.750936   -0.395990
     13          1           0        1.570825    0.441175    1.379067
     14          1           0        0.088702    2.289176    0.719252
     15          1           0        1.517495   -0.316452   -1.580271
 ---------------------------------------------------------------------

 SCF Done:  E(RHF) =  -343.962878206     A.U. after    2 cycles

 The electronic state is 1-A.
 Alpha  occ. eigenvalues --  -20.66640 -20.60348 -11.38049 -11.30392 -11.24116
 Alpha  occ. eigenvalues --  -11.23304 -11.21524  -1.61364  -1.51259  -1.09699
 Alpha  occ. eigenvalues --   -0.98695  -0.94817  -0.88040  -0.78273  -0.74719
 Alpha  occ. eigenvalues --   -0.70786  -0.68494  -0.63882  -0.61461  -0.60719
 Alpha  occ. eigenvalues --   -0.57256  -0.56623  -0.54002  -0.49254  -0.47879
 Alpha  occ. eigenvalues --   -0.45954  -0.23323
 Alpha virt. eigenvalues --    0.03329   0.03692   0.04273   0.04536   0.05966
 Alpha virt. eigenvalues --    0.06471   0.07100   0.07521   0.08885   0.10275
 Alpha virt. eigenvalues --    0.12857   0.13139   0.13454   0.14598   0.14876

 Mulliken charges:
               1
     1  C    0.568304
     2  O   -1.178921
     3  C    1.332217
     4  C   -0.164716
     5  C   -1.007882
     6  C    0.850032
     7  O   -1.062946
     8  H    0.037983
     9  H    0.144472
    10  H   -0.031688
    11  H    0.164410
    12  H    0.164688
    13  H    0.162647
    14  H   -0.190403
    15  H    0.211802
 Sum of Mulliken charges =   0.00000

 Dipole moment (field-independent basis, Debye):
    X=             -0.8076    Y=             -1.5644    Z=              1.1616  Tot=              2.1092

 Test job not archived.
 1\1\GINC-SE162\SP\RHF\Aug-CC-pVDZ\C5H8O2\OHZDE\09-Apr-2025\0\\#t hf au
 g-cc-pvdz iop(5/13=1,5/36=2,99/5=2) pseudo=read geom=check guess=(read
 ,tcheck) scf=(maxcycle=1)\\title\\0,1\C,0,-1.12610485,0.44884391,-0.08
 878443\O,0,-0.500899,1.06802877,-1.23604391\C,0,0.56829588,1.78329327,
 -0.90676869\C,0,0.02750443,-1.78388921,-0.15631367\C,0,-0.12290709,-0.
 46527742,0.60942074\C,0,1.15481191,0.29616091,0.77987066\O,0,1.3186776
 8,1.42137557,0.05343476\H,0,-1.97933313,-0.09146924,-0.49249207\H,0,-1
 .48089556,1.23699676,0.57989033\H,0,0.86068872,2.62479234,-1.51139592\

 Normal termination of Gaussian 16 at Wed Apr  9 18:51:54 2025.
