 Gaussian 16, Revision C.01,

 ----------------------------------------------------------------------
 #t hf aug-cc-pvdz symm=none int=(grid=ultrafine) guess=(read,tcheck) s
 table=(opt,rrhf)
 ----------------------------------------------------------------------
 -----
 title
 -----
 Symbolic Z-matrix:
 Charge =  0 Multiplicity = 1

 SCF Done:  E(RHF) =  -306.585578304     A.U. after   17 cycles
 Normal termination of Gaussian 16 at Wed Apr  9 19:09:03 2025.
 Gaussian 16:  ES64L-G16RevC.01  3-Jul-2019

 ----------------------------------------------------------------------
 #t hf aug-cc-pvdz iop(5/13=1,5/36=2,99/5=2) pseudo=read geom=check gue
 ss=(read,tcheck) scf=(maxcycle=1)
 ----------------------------------------------------------------------
 -----
 title
 -----
 Structure from the checkpoint file:  "Grambow2020_wb97xd3_008790_reverse_mol1.chk"
 Charge =  0 Multiplicity = 1

                         Standard orientation:
 ---------------------------------------------------------------------
 Center     Atomic      Atomic             Coordinates (Angstroms)
 Number     Number       Type             X           Y           Z
 ---------------------------------------------------------------------
      1          8           0       -2.369209   -0.059156    0.013834
      2          6           0       -1.143230   -0.009620   -0.027463
      3          6           0       -0.288662   -1.181823    0.074328
      4          6           0        1.126131   -1.123898   -0.323138
      5          6           0        1.753731    0.143131    0.075880
      6          6           0        0.967616    1.302610   -0.008383
      7          6           0       -0.393860    1.235746   -0.127354
      8          1           0        0.385041   -0.753404    1.656344
      9          1           0       -0.799231   -2.140378    0.076471
     10          1           0        1.689932   -2.001660   -0.009507
     11          1           0        1.133337   -1.122173   -1.430182
     12          1           0        1.112459   -0.345513    1.701022
     13          1           0        2.834158    0.225898    0.075803
     14          1           0        1.450192    2.271573    0.052355
     15          1           0       -0.982572    2.142032   -0.216200
 ---------------------------------------------------------------------

 SCF Done:  E(RHF) =  -306.903630085     A.U. after    2 cycles

 The electronic state is 1-A.
 Alpha  occ. eigenvalues --  -20.47249 -11.31550 -11.30495 -11.29075 -11.27792
 Alpha  occ. eigenvalues --  -11.27693 -11.26901  -1.41523  -1.17856  -1.05688
 Alpha  occ. eigenvalues --   -1.01107  -0.87646  -0.83495  -0.73279  -0.71158
 Alpha  occ. eigenvalues --   -0.67076  -0.65937  -0.62025  -0.60193  -0.55114
 Alpha  occ. eigenvalues --   -0.54075  -0.53475  -0.51037  -0.42742  -0.38573
 Alpha  occ. eigenvalues --   -0.29312
 Alpha virt. eigenvalues --    0.00407   0.02309   0.02917   0.03819   0.04358
 Alpha virt. eigenvalues --    0.05721   0.06757   0.07044   0.08335   0.10246
 Alpha virt. eigenvalues --    0.11360   0.11935   0.12400   0.12857   0.13473

 Mulliken charges:
               1
     1  O   -1.543344
     2  C    1.200727
     3  C   -0.199286
     4  C   -0.282460
     5  C   -0.369632
     6  C    0.692097
     7  C    0.330756
     8  H    0.207229
     9  H   -0.148822
    10  H    0.116116
    11  H    0.332014
    12  H    0.249280
    13  H   -0.156407
    14  H   -0.189392
    15  H   -0.238875
 Sum of Mulliken charges =  -0.00000

 Dipole moment (field-independent basis, Debye):
    X=              6.0774    Y=             -0.2036    Z=             -0.8227  Tot=              6.1362

 Test job not archived.
 1\1\GINC-SE114\SP\RHF\Aug-CC-pVDZ\C6H8O1\OHZDE\09-Apr-2025\0\\#t hf au
 g-cc-pvdz iop(5/13=1,5/36=2,99/5=2) pseudo=read geom=check guess=(read
 ,tcheck) scf=(maxcycle=1)\\title\\0,1\O,0,0.6945542,-2.67717138,0.4575
 0966\C,0,0.45167195,-1.4798289,0.33683062\C,0,-0.88499132,-0.94986365,
 0.11963251\C,0,-1.17657446,0.47663625,0.32711719\C,0,-0.08067433,1.332
 38198,-0.14739437\C,0,1.22806875,0.86304625,0.04335836\C,0,1.48061315,
 -0.44845418,0.34073063\H,0,-0.57365906,-0.40061961,-1.53614392\H,0,-1.
 69517635,-1.67043753,0.18198155\H,0,-2.15134353,0.76995754,-0.0608127\

 Normal termination of Gaussian 16 at Wed Apr  9 19:09:08 2025.
