 Gaussian 16, Revision C.01,

 ----------------------------------------------------------------------
 #t hf aug-cc-pvdz symm=none int=(grid=ultrafine) guess=(read,tcheck) s
 table=(opt,rrhf)
 ----------------------------------------------------------------------
 -----
 title
 -----
 Symbolic Z-matrix:
 Charge =  0 Multiplicity = 1

 SCF Done:  E(RHF) =  -269.914870449     A.U. after   14 cycles

 1\1\GINC-SE454\Stability\RHF\Aug-CC-pVDZ\C5H10O1\OHZDE\09-Apr-2025\0\\
 #t hf aug-cc-pvdz symm=none int=(grid=ultrafine) guess=(read,tcheck) s
 table=(opt,rrhf)\\title\\0,1\O,0,2.92715535,0.77389812,0.46560652\C,0,
 2.96726419,0.36122351,1.69657143\C,0,0.07977125,-0.62461973,-0.5366458
 8\C,0,-1.38397306,-1.06242082,-0.32361171\C,0,-1.79375338,0.42406196,-
 0.36661137\C,0,-0.32727808,0.79622588,-0.0655368\H,0,2.10444402,0.5623
 673,-0.01081172\H,0,0.84319948,-1.16766505,0.026941\H,0,1.99392492,-0.
 16242123,1.898152\H,0,0.35064018,-0.63518125,-1.59409128\H,0,-1.528046

 Normal termination of Gaussian 16 at Wed Apr  9 16:52:09 2025.
 Gaussian 16:  ES64L-G16RevC.01  3-Jul-2019

 ----------------------------------------------------------------------
 #t hf aug-cc-pvdz iop(5/13=1,5/36=2,99/5=2) pseudo=read geom=check gue
 ss=(read,tcheck) scf=(maxcycle=1)
 ----------------------------------------------------------------------
 -----
 title
 -----
 Structure from the checkpoint file:  "Grambow2020_wb97xd3_006161_reverse_mol2.chk"
 Charge =  0 Multiplicity = 1

                         Standard orientation:
 ---------------------------------------------------------------------
 Center     Atomic      Atomic             Coordinates (Angstroms)
 Number     Number       Type             X           Y           Z
 ---------------------------------------------------------------------
      1          8           0       -2.613028   -0.193452   -0.480577
      2          6           0       -2.960024    0.208765    0.704749
      3          6           0        0.600186    0.668645   -0.482761
      4          6           0        1.978798    0.829064    0.190512
      5          6           0        2.120444   -0.706891    0.177129
      6          6           0        0.591720   -0.806798   -0.003773
      7          1           0       -1.659930   -0.132007   -0.671370
      8          1           0       -0.194945    1.337360   -0.142263
      9          1           0       -2.021919    0.543492    1.224505
     10          1           0        0.675261    0.737922   -1.569608
     11          1           0        1.879561    1.212575    1.206989
     12          1           0        2.731347    1.417365   -0.333406
     13          1           0        2.649678   -1.052572   -0.712004
     14          1           0        2.557179   -1.185907    1.052665
     15          1           0        0.087281   -0.916036    0.958972
     16          1           0        0.213974   -1.571287   -0.684999
 ---------------------------------------------------------------------

 SCF Done:  E(RHF) =  -270.201256864     A.U. after    2 cycles

 The electronic state is 1-A.
 Alpha  occ. eigenvalues --  -20.62254 -11.31381 -11.24847 -11.24718 -11.24165
 Alpha  occ. eigenvalues --  -11.24118  -1.54006  -1.15102  -0.91811  -0.91663
 Alpha  occ. eigenvalues --   -0.88484  -0.77461  -0.74840  -0.67761  -0.67336
 Alpha  occ. eigenvalues --   -0.58361  -0.58114  -0.56439  -0.56329  -0.52009
 Alpha  occ. eigenvalues --   -0.47803  -0.46689  -0.46646  -0.36807
 Alpha virt. eigenvalues --    0.03155   0.03344   0.03447   0.04379   0.06057
 Alpha virt. eigenvalues --    0.06231   0.06556   0.06806   0.07792   0.09445
 Alpha virt. eigenvalues --    0.10171   0.12847   0.13026   0.13207   0.14185

 Mulliken charges:
               1
     1  O   -0.925816
     2  C    0.179159
     3  C   -0.011273
     4  C   -0.100615
     5  C   -0.146186
     6  C    0.083951
     7  H    0.728467
     8  H   -0.057421
     9  H    0.127743
    10  H    0.012390
    11  H    0.029667
    12  H    0.043633
    13  H    0.053516
    14  H    0.036518
    15  H    0.018456
    16  H   -0.072188
 Sum of Mulliken charges =  -0.00000

 Dipole moment (field-independent basis, Debye):
    X=              4.0862    Y=              0.1630    Z=             -0.7093  Tot=              4.1505

 Test job not archived.
 1\1\GINC-SE454\SP\RHF\Aug-CC-pVDZ\C5H10O1\OHZDE\09-Apr-2025\0\\#t hf a
 ug-cc-pvdz iop(5/13=1,5/36=2,99/5=2) pseudo=read geom=check guess=(rea
 d,tcheck) scf=(maxcycle=1)\\title\\0,1\O,0,2.92715535,0.77389812,0.465
 60652\C,0,2.96726419,0.36122351,1.69657143\C,0,0.07977125,-0.62461973,
 -0.53664588\C,0,-1.38397306,-1.06242082,-0.32361171\C,0,-1.79375338,0.
 42406196,-0.36661137\C,0,-0.32727808,0.79622588,-0.0655368\H,0,2.10444
 402,0.5623673,-0.01081172\H,0,0.84319948,-1.16766505,0.026941\H,0,1.99
 392492,-0.16242123,1.898152\H,0,0.35064018,-0.63518125,-1.59409128\H,0

 Normal termination of Gaussian 16 at Wed Apr  9 16:52:14 2025.
