 Gaussian 16, Revision C.01,

 ----------------------------------------------------------------------
 #t hf aug-cc-pvdz symm=none int=(grid=ultrafine) guess=(read,tcheck) s
 table=(opt,rrhf)
 ----------------------------------------------------------------------
 -----
 title
 -----
 Symbolic Z-matrix:
 Charge =  0 Multiplicity = 1

 SCF Done:  E(RHF) =  -322.697201888     A.U. after   14 cycles
 Normal termination of Gaussian 16 at Wed Apr  9 17:51:34 2025.
 Gaussian 16:  ES64L-G16RevC.01  3-Jul-2019

 ----------------------------------------------------------------------
 #t hf aug-cc-pvdz iop(5/13=1,5/36=2,99/5=2) pseudo=read geom=check gue
 ss=(read,tcheck) scf=(maxcycle=1)
 ----------------------------------------------------------------------
 -----
 title
 -----
 Structure from the checkpoint file:  "Grambow2020_wb97xd3_006852_reverse_mol2.chk"
 Charge =  0 Multiplicity = 1

                         Standard orientation:
 ---------------------------------------------------------------------
 Center     Atomic      Atomic             Coordinates (Angstroms)
 Number     Number       Type             X           Y           Z
 ---------------------------------------------------------------------
      1          6           0        2.815419   -0.183703   -0.443102
      2          6           0        1.731605    0.088565    0.559740
      3          6           0        0.484323    0.299498    0.266488
      4          6           0       -0.795167    0.467794    0.030424
      5          7           0       -1.449693    1.714848   -0.076399
      6          6           0       -1.698991   -0.715828   -0.023123
      7          8           0       -1.345974   -1.862284   -0.044236
      8          1           0        3.253507   -1.168292   -0.265930
      9          1           0        3.617504    0.552281   -0.352695
     10          1           0        2.426147   -0.156110   -1.459621
     11          1           0        2.018598    0.096653    1.610103
     12          1           0       -0.810454    2.493604   -0.045200
     13          1           0       -2.036489    1.784184   -0.895668
     14          1           0       -2.776299   -0.445927   -0.044869
 ---------------------------------------------------------------------

 SCF Done:  E(RHF) =  -323.028333368     A.U. after    2 cycles

 The electronic state is 1-A.
 Alpha  occ. eigenvalues --  -20.54366 -15.51768 -11.34375 -11.28839 -11.26416
 Alpha  occ. eigenvalues --  -11.25787 -11.24471  -1.47859  -1.22645  -1.09163
 Alpha  occ. eigenvalues --   -1.01003  -0.92574  -0.85544  -0.73694  -0.72328
 Alpha  occ. eigenvalues --   -0.69637  -0.65913  -0.63153  -0.60177  -0.58606
 Alpha  occ. eigenvalues --   -0.55870  -0.54237  -0.51132  -0.42966  -0.38638
 Alpha  occ. eigenvalues --   -0.35538
 Alpha virt. eigenvalues --    0.02800   0.03634   0.04411   0.05037   0.05600
 Alpha virt. eigenvalues --    0.06402   0.06670   0.07941   0.10304   0.10690
 Alpha virt. eigenvalues --    0.11325   0.11700   0.13103   0.13576   0.13886

 Mulliken charges:
               1
     1  C   -0.624008
     2  C    0.422877
     3  C    0.252377
     4  C   -1.244932
     5  N    0.636753
     6  C    1.058299
     7  O   -1.193077
     8  H    0.223751
     9  H    0.205556
    10  H    0.098995
    11  H   -0.122700
    12  H    0.040115
    13  H    0.154698
    14  H    0.091297
 Sum of Mulliken charges =  -0.00000

 Dipole moment (field-independent basis, Debye):
    X=              1.2150    Y=              2.9564    Z=             -0.9246  Tot=              3.3274

 Test job not archived.
 1\1\GINC-SE226\SP\RHF\Aug-CC-pVDZ\C5H7N1O1\OHZDE\09-Apr-2025\0\\#t hf
 aug-cc-pvdz iop(5/13=1,5/36=2,99/5=2) pseudo=read geom=check guess=(re
 ad,tcheck) scf=(maxcycle=1)\\title\\0,1\C,0,2.37507075,-0.63845157,0.4
 114819\C,0,1.23694113,-0.62548547,-0.56778747\C,0,0.04248408,-0.184690
 18,-0.31249809\C,0,-1.16445572,0.29397549,-0.12455876\N,0,-2.30107055,
 -0.46834993,0.22461963\C,0,-1.440723,1.73205693,-0.40082777\O,0,-0.612
 26144,2.57133414,-0.62149471\H,0,3.19770525,-0.02320551,0.04071107\H,0
 ,2.75860279,-1.65277172,0.54280545\H,0,2.06384265,-0.25223224,1.380799

 Normal termination of Gaussian 16 at Wed Apr  9 17:51:38 2025.
