 Gaussian 16, Revision C.01,

 ----------------------------------------------------------------------
 #t hf aug-cc-pvdz symm=none int=(grid=ultrafine) guess=(read,tcheck) s
 table=(opt,rrhf)
 ----------------------------------------------------------------------
 -----
 title
 -----
 Symbolic Z-matrix:
 Charge =  0 Multiplicity = 1

 SCF Done:  E(RHF) =  -359.797773434     A.U. after   14 cycles
 Normal termination of Gaussian 16 at Wed Apr  9 19:17:52 2025.
 Gaussian 16:  ES64L-G16RevC.01  3-Jul-2019

 ----------------------------------------------------------------------
 #t hf aug-cc-pvdz iop(5/13=1,5/36=2,99/5=2) pseudo=read geom=check gue
 ss=(read,tcheck) scf=(maxcycle=1)
 ----------------------------------------------------------------------
 -----
 title
 -----
 Structure from the checkpoint file:  "Grambow2020_wb97xd3_009262_reverse_mol2.chk"
 Charge =  0 Multiplicity = 1

                         Standard orientation:
 ---------------------------------------------------------------------
 Center     Atomic      Atomic             Coordinates (Angstroms)
 Number     Number       Type             X           Y           Z
 ---------------------------------------------------------------------
      1          6           0        2.687053   -0.055291   -0.002476
      2          6           0        1.310216   -0.692358    0.003613
      3          6           0        0.191637    0.304180    0.001311
      4          8           0        0.338943    1.500264   -0.000112
      5          6           0       -1.238893   -0.288107   -0.000527
      6          8           0       -1.428058   -1.484676   -0.001819
      7          7           0       -2.191452    0.659185    0.000176
      8          1           0        2.826043    0.571075   -0.884190
      9          1           0        2.830808    0.578786    0.872915
     10          1           0        3.461139   -0.823059   -0.001348
     11          1           0        1.153659   -1.352372   -0.855329
     12          1           0        1.158364   -1.343620    0.870213
     13          1           0       -1.917979    1.626337    0.000612
     14          1           0       -3.159025    0.393313   -0.000191
 ---------------------------------------------------------------------

 SCF Done:  E(RHF) =  -360.162319454     A.U. after    2 cycles

 The electronic state is 1-A.
 Alpha  occ. eigenvalues --  -20.56871 -20.53167 -15.53886 -11.37422 -11.36010
 Alpha  occ. eigenvalues --  -11.25233 -11.23401  -1.50788  -1.47934  -1.24103
 Alpha  occ. eigenvalues --   -1.07523  -0.95357  -0.87774  -0.80230  -0.75899
 Alpha  occ. eigenvalues --   -0.70807  -0.66622  -0.65519  -0.63052  -0.60769
 Alpha  occ. eigenvalues --   -0.55260  -0.53814  -0.53279  -0.50223  -0.50181
 Alpha  occ. eigenvalues --   -0.44995  -0.41087
 Alpha virt. eigenvalues --    0.03167   0.03885   0.04772   0.05016   0.06087
 Alpha virt. eigenvalues --    0.06682   0.07542   0.08092   0.10429   0.10852
 Alpha virt. eigenvalues --    0.12722   0.13026   0.14003   0.14033   0.14933

 Mulliken charges:
               1
     1  C   -0.256082
     2  C   -0.554047
     3  C    1.504295
     4  O   -1.467394
     5  C    0.212087
     6  O   -1.306230
     7  N    0.706407
     8  H    0.172204
     9  H    0.172568
    10  H    0.135513
    11  H    0.255674
    12  H    0.256238
    13  H    0.072409
    14  H    0.096359
 Sum of Mulliken charges =  -0.00000

 Dipole moment (field-independent basis, Debye):
    X=             -0.1011    Y=              0.9177    Z=              0.0070  Tot=              0.9233

 Test job not archived.
 1\1\GINC-SE340\SP\RHF\Aug-CC-pVDZ\C4H7N1O2\OHZDE\09-Apr-2025\0\\#t hf
 aug-cc-pvdz iop(5/13=1,5/36=2,99/5=2) pseudo=read geom=check guess=(re
 ad,tcheck) scf=(maxcycle=1)\\title\\0,1\C,0,-1.97783793,-1.07609614,0.
 4276339\C,0,-0.48315397,-0.98014048,0.18621148\C,0,-0.01725241,0.40884
 166,-0.12680378\O,0,-0.73535466,1.37441106,-0.19255191\C,0,1.50241827,
 0.57018357,-0.37538475\O,0,2.25702757,-0.37563078,-0.3156967\N,0,1.849
 95697,1.8378946,-0.6526135\H,0,-2.28164881,-0.44664588,1.26463021\H,0,
 -2.53938535,-0.74720667,-0.44730877\H,0,-2.26151226,-2.10481903,0.6510

 Normal termination of Gaussian 16 at Wed Apr  9 19:17:55 2025.
