 Gaussian 16, Revision C.01,

 ----------------------------------------------------------------------
 #t hf aug-cc-pvdz symm=none int=(grid=ultrafine) guess=(read,tcheck) s
 table=(opt,rrhf)
 ----------------------------------------------------------------------
 -----
 title
 -----
 Symbolic Z-matrix:
 Charge =  0 Multiplicity = 1

 SCF Done:  E(RHF) =  -308.928147444     A.U. after   15 cycles

 1\1\GINC-SE029\Stability\RHF\Aug-CC-pVDZ\C6H12O1\OHZDE\09-Apr-2025\0\\
 #t hf aug-cc-pvdz symm=none int=(grid=ultrafine) guess=(read,tcheck) s
 table=(opt,rrhf)\\title\\0,1\C,0,-0.96800785,-1.67614444,-0.81482524\C
 ,0,-0.77835209,-0.17927972,-0.74555483\C,0,-1.00893983,0.44333273,0.61
 877502\C,0,-0.15295455,1.70861531,0.82250143\O,0,0.74808638,1.81595716
 ,-0.28269367\C,0,1.25370116,0.65517656,-0.74747964\C,0,1.88487158,-0.2
 5372464,0.27412515\H,0,-1.99843384,-1.95128878,-0.57201139\H,0,-0.7491
 0461,-2.06223956,-1.81147293\H,0,-0.31781906,-2.18547104,-0.09956364\H

 Normal termination of Gaussian 16 at Wed Apr  9 17:36:12 2025.
 Gaussian 16:  ES64L-G16RevC.01  3-Jul-2019

 ----------------------------------------------------------------------
 #t hf aug-cc-pvdz iop(5/13=1,5/36=2,99/5=2) pseudo=read geom=check gue
 ss=(read,tcheck) scf=(maxcycle=1)
 ----------------------------------------------------------------------
 -----
 title
 -----
 Structure from the checkpoint file:  "Grambow2020_wb97xd3_006736_forward_mol1.chk"
 Charge =  0 Multiplicity = 1

                         Standard orientation:
 ---------------------------------------------------------------------
 Center     Atomic      Atomic             Coordinates (Angstroms)
 Number     Number       Type             X           Y           Z
 ---------------------------------------------------------------------
      1          6           0        2.348160    0.216687   -0.017056
      2          6           0        1.037197   -0.370092   -0.484430
      3          6           0        0.282767   -1.183706    0.550500
      4          6           0       -1.240491   -1.127794    0.323093
      5          8           0       -1.499701   -0.166039   -0.702914
      6          6           0       -0.718617    0.933457   -0.692853
      7          6           0       -0.623314    1.671727    0.616356
      8          1           0        3.052885   -0.572506    0.260394
      9          1           0        2.817516    0.819969   -0.795548
     10          1           0        2.201886    0.846896    0.863398
     11          1           0        1.146205   -0.933730   -1.416232
     12          1           0        0.531940   -0.811702    1.546349
     13          1           0        0.617340   -2.223196    0.514498
     14          1           0       -1.769651   -0.878553    1.247062
     15          1           0       -1.641357   -2.068249   -0.053437
     16          1           0        0.412649    0.583548   -1.118736
     17          1           0       -0.567123    1.080351    1.538336
     18          1           0        0.214528    2.368363    0.588995
     19          1           0       -1.533416    2.275446    0.674562
 ---------------------------------------------------------------------

 SCF Done:  E(RHF) =  -309.259695169     A.U. after    2 cycles

 The electronic state is 1-A.
 Alpha  occ. eigenvalues --  -20.55406 -11.28938 -11.28157 -11.26866 -11.24577
 Alpha  occ. eigenvalues --  -11.24067 -11.22489  -1.48624  -1.09482  -1.02334
 Alpha  occ. eigenvalues --   -0.98556  -0.90702  -0.81657  -0.77091  -0.68006
 Alpha  occ. eigenvalues --   -0.67245  -0.63769  -0.62284  -0.59698  -0.56708
 Alpha  occ. eigenvalues --   -0.55539  -0.55182  -0.53410  -0.51519  -0.48954
 Alpha  occ. eigenvalues --   -0.47798  -0.42952  -0.30176
 Alpha virt. eigenvalues --    0.03145   0.03432   0.03524   0.04409   0.05844
 Alpha virt. eigenvalues --    0.05985   0.06227   0.06632   0.07600   0.09115
 Alpha virt. eigenvalues --    0.09643   0.10147   0.11991   0.12714   0.13792

 Mulliken charges:
               1
     1  C   -0.225198
     2  C   -0.759728
     3  C   -0.377807
     4  C    0.621624
     5  O   -1.342407
     6  C    0.217510
     7  C   -0.266944
     8  H    0.183889
     9  H    0.120620
    10  H    0.196214
    11  H    0.051494
    12  H    0.162756
    13  H    0.144401
    14  H    0.187006
    15  H    0.005299
    16  H    0.648747
    17  H    0.122619
    18  H    0.183519
    19  H    0.126387
 Sum of Mulliken charges =  -0.00000

 Dipole moment (field-independent basis, Debye):
    X=              1.9944    Y=             -1.6878    Z=              2.3281  Tot=              3.4994

 Test job not archived.
 1\1\GINC-SE029\SP\RHF\Aug-CC-pVDZ\C6H12O1\OHZDE\09-Apr-2025\0\\#t hf a
 ug-cc-pvdz iop(5/13=1,5/36=2,99/5=2) pseudo=read geom=check guess=(rea
 d,tcheck) scf=(maxcycle=1)\\title\\0,1\C,0,-0.96800785,-1.67614444,-0.
 81482524\C,0,-0.77835209,-0.17927972,-0.74555483\C,0,-1.00893983,0.443
 33273,0.61877502\C,0,-0.15295455,1.70861531,0.82250143\O,0,0.74808638,
 1.81595716,-0.28269367\C,0,1.25370116,0.65517656,-0.74747964\C,0,1.884
 87158,-0.25372464,0.27412515\H,0,-1.99843384,-1.95128878,-0.57201139\H
 ,0,-0.74910461,-2.06223956,-1.81147293\H,0,-0.31781906,-2.18547104,-0.

 Normal termination of Gaussian 16 at Wed Apr  9 17:36:20 2025.
