 Gaussian 16, Revision C.01,

 ----------------------------------------------------------------------
 #t hf aug-cc-pvdz symm=none int=(grid=ultrafine) guess=(read,tcheck) s
 table=(opt,rrhf)
 ----------------------------------------------------------------------
 -----
 title
 -----
 Symbolic Z-matrix:
 Charge =  0 Multiplicity = 1

 SCF Done:  E(RHF) =  -354.667557803     A.U. after   16 cycles
 Normal termination of Gaussian 16 at Wed Apr  9 03:40:12 2025.
 Gaussian 16:  ES64L-G16RevC.01  3-Jul-2019

 ----------------------------------------------------------------------
 #t hf aug-cc-pvdz iop(5/13=1,5/36=2,99/5=2) pseudo=read geom=check gue
 ss=(read,tcheck) scf=(maxcycle=1)
 ----------------------------------------------------------------------
 -----
 title
 -----
 Structure from the checkpoint file:  "Grambow2020_wb97xd3_007472_forward_mol1.chk"
 Charge =  0 Multiplicity = 1

                         Standard orientation:
 ---------------------------------------------------------------------
 Center     Atomic      Atomic             Coordinates (Angstroms)
 Number     Number       Type             X           Y           Z
 ---------------------------------------------------------------------
      1          7           0        2.395325   -0.638640    0.314885
      2          6           0        1.660989    0.019636   -0.521221
      3          6           0        0.895502    1.151815   -0.131904
      4          7           0       -0.356327    1.210082    0.117817
      5          6           0       -1.537857   -0.407858    0.003052
      6          8           0       -2.628945    0.011371    0.124753
      7          7           0       -0.630630   -1.252330   -0.157730
      8          1           0        2.989222   -1.381386   -0.018746
      9          1           0        2.319684   -0.557980    1.323016
     10          1           0        1.497935    2.066004   -0.209684
     11          1           0       -0.736383    2.144567    0.205205
     12          1           0       -1.009282   -2.177522   -0.322175
 ---------------------------------------------------------------------

 SCF Done:  E(RHF) =  -355.020730632     A.U. after    2 cycles

 The electronic state is 1-A.
 Alpha  occ. eigenvalues --  -20.54417 -15.57057 -15.51356 -15.47233 -11.39450
 Alpha  occ. eigenvalues --  -11.32162 -11.28844  -1.50007  -1.28120  -1.23688
 Alpha  occ. eigenvalues --   -1.20608  -0.97844  -0.84100  -0.79061  -0.77580
 Alpha  occ. eigenvalues --   -0.74429  -0.69889  -0.68713  -0.61192  -0.60717
 Alpha  occ. eigenvalues --   -0.55937  -0.52559  -0.48187  -0.45180  -0.41585
 Alpha  occ. eigenvalues --   -0.36625
 Alpha virt. eigenvalues --    0.02215   0.03700   0.05047   0.05286   0.05766
 Alpha virt. eigenvalues --    0.08390   0.08708   0.10567   0.11017   0.11051
 Alpha virt. eigenvalues --    0.12392   0.13075   0.14093   0.14399   0.14970

 Mulliken charges:
               1
     1  N    0.811347
     2  C   -1.147816
     3  C   -0.648140
     4  N    0.854409
     5  C    0.125801
     6  O   -0.898884
     7  N    0.547770
     8  H    0.150012
     9  H    0.064983
    10  H   -0.080161
    11  H    0.088489
    12  H    0.132190
 Sum of Mulliken charges =  -0.00000

 Dipole moment (field-independent basis, Debye):
    X=              4.5237    Y=              0.5603    Z=              1.7689  Tot=              4.8894

 Test job not archived.
 1\1\GINC-SE335\SP\RHF\Aug-CC-pVDZ\C3H5N3O1\OHZDE\09-Apr-2025\0\\#t hf
 aug-cc-pvdz iop(5/13=1,5/36=2,99/5=2) pseudo=read geom=check guess=(re
 ad,tcheck) scf=(maxcycle=1)\\title\\0,1\N,0,2.09090399,0.28192035,-0.0
 7228145\C,0,1.03308235,0.47557298,-0.79002963\C,0,-0.08524217,1.210317
 ,-0.31162707\N,0,-1.1882104,0.75815806,0.14863961\C,0,-1.55057132,-1.2
 1028982,0.29294286\O,0,-2.68589507,-1.28292917,0.58756358\N,0,-0.39912
 212,-1.60224785,0.00557691\H,0,2.89502481,-0.16938495,-0.47898572\H,0,
 2.13127305,0.42767696,0.93055512\H,0,0.04136908,2.28003705,-0.52230219

 Normal termination of Gaussian 16 at Wed Apr  9 03:40:16 2025.
