 Gaussian 16, Revision C.01,

 ----------------------------------------------------------------------
 #t hf aug-cc-pvdz symm=none int=(grid=ultrafine) guess=(read,tcheck) s
 table=(opt,rrhf)
 ----------------------------------------------------------------------
 -----
 title
 -----
 Symbolic Z-matrix:
 Charge =  0 Multiplicity = 1

 SCF Done:  E(RHF) =  -234.058460420     A.U. after   14 cycles
 Normal termination of Gaussian 16 at Wed Apr  9 15:50:04 2025.
 Gaussian 16:  ES64L-G16RevC.01  3-Jul-2019

 ----------------------------------------------------------------------
 #t hf aug-cc-pvdz iop(5/13=1,5/36=2,99/5=2) pseudo=read geom=check gue
 ss=(read,tcheck) scf=(maxcycle=1)
 ----------------------------------------------------------------------
 -----
 title
 -----
 Structure from the checkpoint file:  "Grambow2020_b97d3_006794_reverse_mol2.chk"
 Charge =  0 Multiplicity = 1

                         Standard orientation:
 ---------------------------------------------------------------------
 Center     Atomic      Atomic             Coordinates (Angstroms)
 Number     Number       Type             X           Y           Z
 ---------------------------------------------------------------------
      1          6           0       -3.406078   -0.026426    0.383071
      2          6           0       -0.412855    0.072743   -0.917927
      3          6           0        0.250309    1.125889   -0.122661
      4          6           0        1.362525    0.008974   -0.384971
      5          6           0        2.465058   -0.062459    0.680821
      6          6           0        0.202463   -1.075722   -0.221251
      7          1           0       -2.791309   -0.193543    1.276111
      8          1           0       -4.106895   -0.861290    0.259861
      9          1           0       -3.965426    0.910713    0.492905
     10          1           0       -2.755423    0.037371   -0.501058
     11          1           0        0.137727    1.165036    0.974186
     12          1           0        0.336854    2.126283   -0.560975
     13          1           0        1.806074    0.043227   -1.381826
     14          1           0        3.073686   -0.963992    0.524176
     15          1           0        3.117003    0.818561    0.599714
     16          1           0        2.046796   -0.095345    1.693635
     17          1           0        0.245421   -2.035962   -0.747278
     18          1           0        0.086956   -1.209049    0.868060
 ---------------------------------------------------------------------

 SCF Done:  E(RHF) =  -234.316299291     A.U. after    2 cycles

 The electronic state is 1-A.
 Alpha  occ. eigenvalues --  -11.27725 -11.25634 -11.25034 -11.24617 -11.24583
 Alpha  occ. eigenvalues --  -11.21678  -1.17892  -0.99188  -0.93728  -0.91755
 Alpha  occ. eigenvalues --   -0.79907  -0.74324  -0.67299  -0.59508  -0.57693
 Alpha  occ. eigenvalues --   -0.57359  -0.54987  -0.54329  -0.54277  -0.51585
 Alpha  occ. eigenvalues --   -0.50442  -0.50374  -0.45250  -0.33373
 Alpha virt. eigenvalues --    0.03257   0.03514   0.03580   0.04324   0.05716
 Alpha virt. eigenvalues --    0.05837   0.06146   0.06889   0.07356   0.08384
 Alpha virt. eigenvalues --    0.09137   0.09602   0.11304   0.12235   0.14354

 Mulliken charges:
               1
     1  C   -0.347117
     2  C   -0.022556
     3  C    0.118250
     4  C   -0.285093
     5  C   -0.411792
     6  C    0.082308
     7  H    0.092557
     8  H    0.097797
     9  H    0.107133
    10  H    0.115991
    11  H    0.055352
    12  H   -0.046238
    13  H   -0.172112
    14  H    0.222738
    15  H    0.221530
    16  H    0.160097
    17  H   -0.044396
    18  H    0.055550
 Sum of Mulliken charges =  -0.00000

 Dipole moment (field-independent basis, Debye):
    X=              1.9539    Y=             -0.1367    Z=              2.1153  Tot=              2.8829

 Test job not archived.
 1\1\GINC-SE141\SP\RHF\Aug-CC-pVDZ\C6H12\OHZDE\09-Apr-2025\0\\#t hf aug
 -cc-pvdz iop(5/13=1,5/36=2,99/5=2) pseudo=read geom=check guess=(read,
 tcheck) scf=(maxcycle=1)\\title\\0,1\C,0,-3.26282163,0.36766216,0.3644
 5787\C,0,-0.31931684,0.26741602,-1.04534403\C,0,0.49666709,1.11225306,
 -0.14992732\C,0,1.44690855,-0.0889538,-0.60541968\C,0,2.56003563,-0.44
 091533,0.39140809\C,0,0.16095921,-1.03244982,-0.53287179\H,0,-2.650356
 88,0.00589875,1.19956464\H,0,-4.06914955,-0.3487974,0.16484936\H,0,-3.
 69263136,1.34376777,0.62067316\H,0,-2.63419663,0.46870224,-0.53205102\

 Normal termination of Gaussian 16 at Wed Apr  9 15:50:10 2025.
