 Gaussian 16, Revision C.01,

 ----------------------------------------------------------------------
 #t hf aug-cc-pvdz symm=none int=(grid=ultrafine) guess=(read,tcheck) s
 table=(opt,rrhf)
 ----------------------------------------------------------------------
 -----
 title
 -----
 Symbolic Z-matrix:
 Charge =  0 Multiplicity = 1

 SCF Done:  E(RHF) =  -323.714377677     A.U. after   16 cycles
 Normal termination of Gaussian 16 at Wed Apr  9 19:14:10 2025.
 Gaussian 16:  ES64L-G16RevC.01  3-Jul-2019

 ----------------------------------------------------------------------
 #t hf aug-cc-pvdz iop(5/13=1,5/36=2,99/5=2) pseudo=read geom=check gue
 ss=(read,tcheck) scf=(maxcycle=1)
 ----------------------------------------------------------------------
 -----
 title
 -----
 Structure from the checkpoint file:  "Grambow2020_wb97xd3_008932_reverse_mol1.chk"
 Charge =  0 Multiplicity = 1

                         Standard orientation:
 ---------------------------------------------------------------------
 Center     Atomic      Atomic             Coordinates (Angstroms)
 Number     Number       Type             X           Y           Z
 ---------------------------------------------------------------------
      1          6           0       -2.408561   -0.034648   -0.206352
      2          6           0       -1.036061   -0.161258    0.413402
      3          6           0       -0.148838   -1.380347    0.068212
      4          7           0        0.961033   -0.434503   -0.147719
      5          6           0        2.245255   -0.542730   -0.063480
      6          6           0        0.111825    0.667506   -0.163559
      7          8           0        0.588823    1.919613    0.171011
      8          1           0       -2.358566   -0.178671   -1.288027
      9          1           0       -2.815366    0.960479   -0.019053
     10          1           0       -3.106761   -0.765448    0.208119
     11          1           0       -1.080797   -0.042627    1.502576
     12          1           0        0.063709   -2.077800    0.876343
     13          1           0       -0.412703   -1.915383   -0.843581
     14          1           0        0.172347    1.565443   -0.967494
     15          1           0        2.822132    0.370550   -0.060474
     16          1           0        2.696471   -1.523064   -0.031807
 ---------------------------------------------------------------------

 SCF Done:  E(RHF) =  -324.053343399     A.U. after    2 cycles

 The electronic state is 1-A.
 Alpha  occ. eigenvalues --  -20.47929 -15.60813 -11.31318 -11.30304 -11.27846
 Alpha  occ. eigenvalues --  -11.24938 -11.22802  -1.39609  -1.32454  -1.12054
 Alpha  occ. eigenvalues --   -0.99674  -0.94440  -0.85124  -0.76706  -0.73327
 Alpha  occ. eigenvalues --   -0.71064  -0.66980  -0.61890  -0.59867  -0.59385
 Alpha  occ. eigenvalues --   -0.55670  -0.52983  -0.51623  -0.50394  -0.46764
 Alpha  occ. eigenvalues --   -0.39893  -0.25369
 Alpha virt. eigenvalues --    0.02654   0.03225   0.03647   0.04652   0.05048
 Alpha virt. eigenvalues --    0.05653   0.05937   0.06516   0.07591   0.08696
 Alpha virt. eigenvalues --    0.10783   0.11319   0.12475   0.13885   0.14122

 Mulliken charges:
               1
     1  C   -0.242526
     2  C   -0.141698
     3  C   -0.038610
     4  N    1.088220
     5  C   -0.181229
     6  C    0.038079
     7  O   -1.464666
     8  H    0.227051
     9  H    0.196289
    10  H    0.187820
    11  H    0.023073
    12  H    0.005114
    13  H    0.026855
    14  H    0.291558
    15  H    0.008489
    16  H   -0.023818
 Sum of Mulliken charges =   0.00000

 Dipole moment (field-independent basis, Debye):
    X=              0.4590    Y=             -5.1223    Z=             -0.5910  Tot=              5.1767

 Test job not archived.
 1\1\GINC-SE159\SP\RHF\Aug-CC-pVDZ\C5H9N1O1\OHZDE\09-Apr-2025\0\\#t hf
 aug-cc-pvdz iop(5/13=1,5/36=2,99/5=2) pseudo=read geom=check guess=(re
 ad,tcheck) scf=(maxcycle=1)\\title\\0,1\C,0,2.17106386,-0.22504542,0.2
 8587066\C,0,0.84703133,0.35874631,-0.15002799\C,0,-0.09862426,-0.47282
 485,-1.04820625\N,0,-1.19420307,-0.10064162,-0.13483413\C,0,-2.4707652
 6,0.02218807,-0.28759277\C,0,-0.31745927,0.36380472,0.84058309\O,0,-0.
 73131809,1.31273259,1.75463759\H,0,2.03421183,-1.22756618,0.69755544\H
 ,0,2.61939079,0.39771345,1.06177244\H,0,2.8777328,-0.28566503,-0.54496

 Normal termination of Gaussian 16 at Wed Apr  9 19:14:16 2025.
