 Gaussian 16, Revision C.01,

 ----------------------------------------------------------------------
 #t hf aug-cc-pvdz symm=none int=(grid=ultrafine) guess=(read,tcheck) s
 table=(opt,rrhf)
 ----------------------------------------------------------------------
 -----
 title
 -----
 Symbolic Z-matrix:
 Charge =  0 Multiplicity = 1

 SCF Done:  E(RHF) =  -283.645342037     A.U. after   14 cycles
 Normal termination of Gaussian 16 at Wed Apr  9 16:13:43 2025.
 Gaussian 16:  ES64L-G16RevC.01  3-Jul-2019

 ----------------------------------------------------------------------
 #t hf aug-cc-pvdz iop(5/13=1,5/36=2,99/5=2) pseudo=read geom=check gue
 ss=(read,tcheck) scf=(maxcycle=1)
 ----------------------------------------------------------------------
 -----
 title
 -----
 Structure from the checkpoint file:  "Grambow2020_b97d3_007168_reverse_mol2.chk"
 Charge =  0 Multiplicity = 1

                         Standard orientation:
 ---------------------------------------------------------------------
 Center     Atomic      Atomic             Coordinates (Angstroms)
 Number     Number       Type             X           Y           Z
 ---------------------------------------------------------------------
      1          6           0       -0.374127    1.660623   -0.010416
      2          7           0       -0.784312    0.271347    0.041640
      3          6           0       -1.833703   -0.341502    0.000062
      4          8           0       -2.770163   -1.069683   -0.028346
      5          6           0        2.378499   -0.621357    0.044925
      6          6           0        3.574676   -0.425021   -0.035416
      7          1           0        0.718678    1.696963   -0.080570
      8          1           0       -0.684456    2.191609    0.900418
      9          1           0       -0.802600    2.169107   -0.885058
     10          1           0        1.316711   -0.771663    0.110334
     11          1           0        4.631084   -0.264445   -0.104774
 ---------------------------------------------------------------------

 SCF Done:  E(RHF) =  -283.930142081     A.U. after    2 cycles

 The electronic state is 1-A.
 Alpha  occ. eigenvalues --  -20.60326 -15.53995 -11.42234 -11.30840 -11.25551
 Alpha  occ. eigenvalues --  -11.25217  -1.53599  -1.28231  -1.02842  -1.01868
 Alpha  occ. eigenvalues --   -0.77019  -0.76088  -0.71899  -0.69407  -0.68017
 Alpha  occ. eigenvalues --   -0.67034  -0.60426  -0.59510  -0.47660  -0.45222
 Alpha  occ. eigenvalues --   -0.41521  -0.41468
 Alpha virt. eigenvalues --    0.03017   0.03579   0.05018   0.05413   0.06501
 Alpha virt. eigenvalues --    0.08702   0.09953   0.10140   0.11161   0.11481
 Alpha virt. eigenvalues --    0.11620   0.11942   0.12179   0.14267   0.16109

 Mulliken charges:
               1
     1  C   -0.393646
     2  N    0.675553
     3  C    0.158422
     4  O   -0.858436
     5  C    0.441597
     6  C    0.022100
     7  H    0.074137
     8  H    0.187147
     9  H    0.162444
    10  H   -0.228496
    11  H   -0.240822
 Sum of Mulliken charges =  -0.00000

 Dipole moment (field-independent basis, Debye):
    X=              0.6607    Y=              2.6671    Z=             -0.0919  Tot=              2.7492

 Test job not archived.
 1\1\GINC-SE026\SP\RHF\Aug-CC-pVDZ\C4H5N1O1\OHZDE\09-Apr-2025\0\\#t hf
 aug-cc-pvdz iop(5/13=1,5/36=2,99/5=2) pseudo=read geom=check guess=(re
 ad,tcheck) scf=(maxcycle=1)\\title\\0,1\C,0,-1.42413124,0.17186775,-0.
 53200398\N,0,-0.9450852,0.03108785,0.82878383\C,0,-1.44243667,-0.08818
 698,1.93193808\O,0,-1.78026359,-0.21152715,3.06272232\C,0,2.13344061,-
 0.11576694,-0.31201299\C,0,2.98054651,-0.17694039,-1.18063853\H,0,-0.5
 6691843,0.09906555,-1.21049534\H,0,-1.90262581,1.15073229,-0.6760047\H
 ,0,-2.14380484,-0.61917614,-0.7839234\H,0,1.36706609,-0.06393975,0.439

 Normal termination of Gaussian 16 at Wed Apr  9 16:13:46 2025.
