 Gaussian 16, Revision C.01,

 ----------------------------------------------------------------------
 #t hf aug-cc-pvdz symm=none int=(grid=ultrafine) guess=(read,tcheck) s
 table=(opt,rrhf)
 ----------------------------------------------------------------------
 -----
 title
 -----
 Symbolic Z-matrix:
 Charge =  0 Multiplicity = 1

 SCF Done:  E(RHF) =  -304.492875371     A.U. after   17 cycles
 Normal termination of Gaussian 16 at Wed Apr  9 15:55:45 2025.
 Gaussian 16:  ES64L-G16RevC.01  3-Jul-2019

 ----------------------------------------------------------------------
 #t hf aug-cc-pvdz iop(5/13=1,5/36=2,99/5=2) pseudo=read geom=check gue
 ss=(read,tcheck) scf=(maxcycle=1)
 ----------------------------------------------------------------------
 -----
 title
 -----
 Structure from the checkpoint file:  "Grambow2020_b97d3_007025_forward_mol1.chk"
 Charge =  0 Multiplicity = 1

                         Standard orientation:
 ---------------------------------------------------------------------
 Center     Atomic      Atomic             Coordinates (Angstroms)
 Number     Number       Type             X           Y           Z
 ---------------------------------------------------------------------
      1          8           0        1.593161   -0.600151   -0.563695
      2          6           0        0.757802   -0.851749    0.686287
      3          6           0        0.955897    1.227066   -0.035772
      4          6           0       -0.105102    0.362823    0.573055
      5          6           0       -1.215489   -0.015659   -0.387453
      6          8           0       -2.395935   -0.118482   -0.081117
      7          1           0        2.495996   -0.470243   -0.227532
      8          1           0        0.276159   -1.832263    0.633983
      9          1           0        1.816681    1.471467    0.587292
     10          1           0        0.828494    1.782681   -0.963777
     11          1           0       -0.521368    0.779215    1.503237
     12          1           0       -0.832422   -0.316679   -1.391411
 ---------------------------------------------------------------------

 SCF Done:  E(RHF) =  -304.800022613     A.U. after    2 cycles

 The electronic state is 1-A.
 Alpha  occ. eigenvalues --  -20.60450 -20.53669 -11.41982 -11.33970 -11.27388
 Alpha  occ. eigenvalues --  -11.22350  -1.47022  -1.45542  -1.12633  -0.96182
 Alpha  occ. eigenvalues --   -0.84965  -0.79585  -0.72146  -0.70610  -0.64882
 Alpha  occ. eigenvalues --   -0.62357  -0.62126  -0.58778  -0.54929  -0.51007
 Alpha  occ. eigenvalues --   -0.46901  -0.41872  -0.27364
 Alpha virt. eigenvalues --    0.00552   0.01939   0.03304   0.04779   0.05487
 Alpha virt. eigenvalues --    0.06555   0.06990   0.10056   0.10301   0.10652
 Alpha virt. eigenvalues --    0.11656   0.13662   0.14075   0.15073   0.15505

 Mulliken charges:
               1
     1  O   -1.023007
     2  C    0.311302
     3  C    0.381452
     4  C   -0.170302
     5  C    1.013140
     6  O   -1.165549
     7  H    0.420017
     8  H   -0.097473
     9  H    0.065195
    10  H    0.055473
    11  H    0.030565
    12  H    0.179186
 Sum of Mulliken charges =  -0.00000

 Dipole moment (field-independent basis, Debye):
    X=              4.1797    Y=              4.7804    Z=             -1.8026  Tot=              6.6009

 Test job not archived.
 1\1\GINC-SE009\SP\RHF\Aug-CC-pVDZ\C4H6O2\OHZDE\09-Apr-2025\0\\#t hf au
 g-cc-pvdz iop(5/13=1,5/36=2,99/5=2) pseudo=read geom=check guess=(read
 ,tcheck) scf=(maxcycle=1)\\title\\0,1\O,0,-1.37216044,0.76951494,-0.11
 136489\C,0,-1.03437391,-0.70282634,0.09281885\C,0,0.34090966,0.5243494
 6,-1.12567082\C,0,0.43967019,-0.57986769,-0.11856799\C,0,1.00690871,-0
 .14358868,1.21810058\O,0,1.74657399,-0.82449215,1.91605044\H,0,-1.9340
 5621,0.77964882,-0.90456255\H,0,-1.38769817,-1.04482883,1.06971116\H,0
 ,-0.12662347,0.28573105,-2.08137118\H,0,0.87719468,1.4689211,-1.046193

 Normal termination of Gaussian 16 at Wed Apr  9 15:55:49 2025.
