 Gaussian 16, Revision C.01,

 ----------------------------------------------------------------------
 #t hf aug-cc-pvdz symm=none int=(grid=ultrafine) guess=(read,tcheck) s
 table=(opt,rrhf)
 ----------------------------------------------------------------------
 -----
 title
 -----
 Symbolic Z-matrix:
 Charge =  0 Multiplicity = 1

 SCF Done:  E(RHF) =  -337.467272591     A.U. after   16 cycles
 Normal termination of Gaussian 16 at Wed Apr  9 03:58:25 2025.
 Gaussian 16:  ES64L-G16RevC.01  3-Jul-2019

 ----------------------------------------------------------------------
 #t hf aug-cc-pvdz iop(5/13=1,5/36=2,99/5=2) pseudo=read geom=check gue
 ss=(read,tcheck) scf=(maxcycle=1)
 ----------------------------------------------------------------------
 -----
 title
 -----
 Structure from the checkpoint file:  "Grambow2020_wb97xd3_008700_forward_mol1.chk"
 Charge =  0 Multiplicity = 1

                         Standard orientation:
 ---------------------------------------------------------------------
 Center     Atomic      Atomic             Coordinates (Angstroms)
 Number     Number       Type             X           Y           Z
 ---------------------------------------------------------------------
      1          8           0       -2.496579   -0.388528   -0.026938
      2          6           0       -1.688311    0.503567    0.010504
      3          6           0       -0.243624    0.264122    0.029041
      4          6           0        0.801629    1.131374    0.018987
      5          7           0        1.968844    0.402942   -0.103472
      6          6           0        1.643927   -0.946734   -0.084274
      7          7           0        0.296982   -0.996941    0.031815
      8          1           0       -1.993402    1.564696    0.043213
      9          1           0        0.791512    2.209816    0.038079
     10          1           0        2.484002   -0.382702    0.718490
     11          1           0       -0.251989   -1.839557    0.071759
 ---------------------------------------------------------------------

 SCF Done:  E(RHF) =  -337.804841200     A.U. after    2 cycles

 The electronic state is 1-A.
 Alpha  occ. eigenvalues --  -20.57457 -15.57250 -15.54940 -11.37433 -11.30776
 Alpha  occ. eigenvalues --  -11.29866 -11.29603  -1.50798  -1.37352  -1.21530
 Alpha  occ. eigenvalues --   -1.08336  -0.94159  -0.87836  -0.85125  -0.77182
 Alpha  occ. eigenvalues --   -0.71315  -0.68235  -0.65897  -0.65296  -0.57092
 Alpha  occ. eigenvalues --   -0.54544  -0.50364  -0.45861  -0.42024  -0.38147
 Alpha virt. eigenvalues --    0.02945   0.04071   0.04210   0.04911   0.05767
 Alpha virt. eigenvalues --    0.08201   0.08591   0.09384   0.09868   0.12227
 Alpha virt. eigenvalues --    0.12504   0.12927   0.13849   0.14601   0.14815

 Mulliken charges:
               1
     1  O   -1.264556
     2  C    1.314636
     3  C    0.019186
     4  C   -0.658345
     5  N    0.396028
     6  C   -1.021044
     7  N    0.717190
     8  H    0.110446
     9  H   -0.133948
    10  H    0.478883
    11  H    0.041524
 Sum of Mulliken charges =   0.00000

 Dipole moment (field-independent basis, Debye):
    X=             -0.7770    Y=              2.1058    Z=              1.2517  Tot=              2.5700

 Test job not archived.
 1\1\GINC-SE082\SP\RHF\Aug-CC-pVDZ\C4H4N2O1\OHZDE\09-Apr-2025\0\\#t hf
 aug-cc-pvdz iop(5/13=1,5/36=2,99/5=2) pseudo=read geom=check guess=(re
 ad,tcheck) scf=(maxcycle=1)\\title\\0,1\O,0,-2.30136038,-1.35314578,0.
 07157255\C,0,-1.82932724,-0.24686086,0.00952963\C,0,-0.38596945,-0.001
 81705,-0.02881311\C,0,0.31679042,1.15429492,-0.1484592\N,0,1.65465014,
 0.83724968,-0.28117104\C,0,1.79051158,-0.5388485,-0.1568338\N,0,0.5378
 6724,-1.01455126,0.02983567\H,0,-2.46430208,0.65672703,-0.01242437\H,0
 ,-0.04562562,2.1689416,-0.1999442\H,0,2.41994677,0.32876647,0.56382112

 Normal termination of Gaussian 16 at Wed Apr  9 03:58:29 2025.
