 Gaussian 16, Revision C.01,

 ----------------------------------------------------------------------
 #t hf aug-cc-pvdz symm=none int=(grid=ultrafine) guess=(read,tcheck) s
 table=(opt,rrhf)
 ----------------------------------------------------------------------
 -----
 title
 -----
 Symbolic Z-matrix:
 Charge =  0 Multiplicity = 1

 SCF Done:  E(RHF) =  -381.873513512     A.U. after   12 cycles

 1\1\GINC-SE016\Stability\RHF\Aug-CC-pVDZ\C4H10O3\OHZDE\09-Apr-2025\0\\
 #t hf aug-cc-pvdz symm=none int=(grid=ultrafine) guess=(read,tcheck) s
 table=(opt,rrhf)\\title\\0,1\C,0,2.0974484,1.04288654,-0.40796187\O,0,
 1.12686631,0.32620219,0.32101283\C,0,0.34038343,-0.49932592,-0.5049531
 9\C,0,-0.65711785,-1.22704088,0.34087573\O,0,-1.87346334,-0.55178752,0
 .63555247\C,0,-1.92393638,-1.67907738,-0.22297945\O,0,-1.08685764,2.31
 271999,0.25995451\H,0,2.67171615,1.63144778,0.30535118\H,0,1.62656118,
 1.71575285,-1.13431539\H,0,2.7744862,0.36247158,-0.938607\H,0,-0.18457

 Normal termination of Gaussian 16 at Wed Apr  9 19:13:07 2025.
 Gaussian 16:  ES64L-G16RevC.01  3-Jul-2019

 ----------------------------------------------------------------------
 #t hf aug-cc-pvdz iop(5/13=1,5/36=2,99/5=2) pseudo=read geom=check gue
 ss=(read,tcheck) scf=(maxcycle=1)
 ----------------------------------------------------------------------
 -----
 title
 -----
 Structure from the checkpoint file:  "Grambow2020_wb97xd3_008925_reverse_mol2.chk"
 Charge =  0 Multiplicity = 1

                         Standard orientation:
 ---------------------------------------------------------------------
 Center     Atomic      Atomic             Coordinates (Angstroms)
 Number     Number       Type             X           Y           Z
 ---------------------------------------------------------------------
      1          6           0       -2.505794   -0.634606    0.116233
      2          8           0       -1.242001   -0.516132   -0.496843
      3          6           0       -0.192159   -0.875148    0.369881
      4          6           0        1.109593   -0.728617   -0.353979
      5          8           0        1.705952    0.562349   -0.361830
      6          6           0        2.343759   -0.465844    0.377378
      7          8           0       -0.657378    2.328623    0.148242
      8          1           0       -3.254596   -0.363611   -0.625967
      9          1           0       -2.590491    0.039573    0.976688
     10          1           0       -2.687708   -1.663470    0.449813
     11          1           0       -0.192436   -0.234049    1.261754
     12          1           0       -0.311255   -1.919554    0.694132
     13          1           0        1.167532   -1.243261   -1.309848
     14          1           0        0.290456    2.164041    0.131103
     15          1           0        3.290631   -0.808135   -0.027614
     16          1           0        2.308977   -0.348265    1.457109
     17          1           0       -1.006089    1.603295   -0.380798
 ---------------------------------------------------------------------

 SCF Done:  E(RHF) =  -382.268638432     A.U. after    2 cycles

 The electronic state is 1-A.
 Alpha  occ. eigenvalues --  -20.57438 -20.56421 -20.51878 -11.30781 -11.30678
 Alpha  occ. eigenvalues --  -11.30284 -11.29151  -1.51860  -1.48478  -1.40291
 Alpha  occ. eigenvalues --   -1.03804  -0.95034  -0.90570  -0.84126  -0.73385
 Alpha  occ. eigenvalues --   -0.69953  -0.68900  -0.66585  -0.65851  -0.61926
 Alpha  occ. eigenvalues --   -0.59160  -0.54892  -0.54500  -0.54237  -0.50483
 Alpha  occ. eigenvalues --   -0.46832  -0.46489  -0.45328  -0.43652
 Alpha virt. eigenvalues --    0.03021   0.03513   0.03760   0.04759   0.05840
 Alpha virt. eigenvalues --    0.06460   0.07030   0.08017   0.09035   0.10145
 Alpha virt. eigenvalues --    0.11360   0.11703   0.13141   0.13912   0.14490

 Mulliken charges:
               1
     1  C    0.135978
     2  O   -1.238908
     3  C    0.232919
     4  C    1.134440
     5  O   -1.278983
     6  C    0.394521
     7  O   -0.971381
     8  H    0.016843
     9  H    0.203979
    10  H    0.167144
    11  H    0.178854
    12  H    0.139313
    13  H   -0.099873
    14  H    0.442037
    15  H    0.011682
    16  H   -0.032852
    17  H    0.564288
 Sum of Mulliken charges =  -0.00000

 Dipole moment (field-independent basis, Debye):
    X=              0.7973    Y=             -4.3148    Z=              1.0744  Tot=              4.5174

 Test job not archived.
 1\1\GINC-SE016\SP\RHF\Aug-CC-pVDZ\C4H10O3\OHZDE\09-Apr-2025\0\\#t hf a
 ug-cc-pvdz iop(5/13=1,5/36=2,99/5=2) pseudo=read geom=check guess=(rea
 d,tcheck) scf=(maxcycle=1)\\title\\0,1\C,0,2.0974484,1.04288654,-0.407
 96187\O,0,1.12686631,0.32620219,0.32101283\C,0,0.34038343,-0.49932592,
 -0.50495319\C,0,-0.65711785,-1.22704088,0.34087573\O,0,-1.87346334,-0.
 55178752,0.63555247\C,0,-1.92393638,-1.67907738,-0.22297945\O,0,-1.086
 85764,2.31271999,0.25995451\H,0,2.67171615,1.63144778,0.30535118\H,0,1
 .62656118,1.71575285,-1.13431539\H,0,2.7744862,0.36247158,-0.938607\H,

 Normal termination of Gaussian 16 at Wed Apr  9 19:13:13 2025.
