 Gaussian 16, Revision C.01,

 ----------------------------------------------------------------------
 #t hf aug-cc-pvdz symm=none int=(grid=ultrafine) guess=(read,tcheck) s
 table=(opt,rrhf)
 ----------------------------------------------------------------------
 -----
 title
 -----
 Symbolic Z-matrix:
 Charge =  0 Multiplicity = 1

 SCF Done:  E(RHF) =  -338.617143987     A.U. after   17 cycles
 Normal termination of Gaussian 16 at Wed Apr  9 19:05:50 2025.
 Gaussian 16:  ES64L-G16RevC.01  3-Jul-2019

 ----------------------------------------------------------------------
 #t hf aug-cc-pvdz iop(5/13=1,5/36=2,99/5=2) pseudo=read geom=check gue
 ss=(read,tcheck) scf=(maxcycle=1)
 ----------------------------------------------------------------------
 -----
 title
 -----
 Structure from the checkpoint file:  "Grambow2020_wb97xd3_008548_reverse_mol2.chk"
 Charge =  0 Multiplicity = 1

                         Standard orientation:
 ---------------------------------------------------------------------
 Center     Atomic      Atomic             Coordinates (Angstroms)
 Number     Number       Type             X           Y           Z
 ---------------------------------------------------------------------
      1          6           0       -1.696316   -1.593712   -0.142141
      2          6           0       -0.839783   -0.377319    0.031527
      3          7           0       -1.626818    0.862750    0.015864
      4          8           0       -1.001858    1.876666   -0.070251
      5          6           0        1.718804   -0.186071    0.505476
      6          7           0        2.759934   -0.110137   -0.411743
      7          6           0        0.450172   -0.337284    0.235908
      8          1           0       -2.227508   -1.555689   -1.095706
      9          1           0       -1.092401   -2.498154   -0.110507
     10          1           0       -2.449320   -1.642151    0.647144
     11          1           0        3.550079    0.425763   -0.094597
     12          1           0        2.481075    0.142522   -1.346025
     13          1           0        2.023867   -0.187594    1.548242
 ---------------------------------------------------------------------

 SCF Done:  E(RHF) =  -338.957750989     A.U. after    2 cycles

 The electronic state is 1-A.
 Alpha  occ. eigenvalues --  -20.60372 -15.63180 -15.52556 -11.30623 -11.28067
 Alpha  occ. eigenvalues --  -11.25322 -11.24204  -1.59163  -1.23337  -1.13258
 Alpha  occ. eigenvalues --   -1.01867  -0.96547  -0.89430  -0.78012  -0.74863
 Alpha  occ. eigenvalues --   -0.72143  -0.68798  -0.63465  -0.62388  -0.58567
 Alpha  occ. eigenvalues --   -0.57481  -0.56596  -0.55211  -0.41385  -0.38450
 Alpha  occ. eigenvalues --   -0.36131
 Alpha virt. eigenvalues --    0.02571   0.04216   0.04338   0.05166   0.05586
 Alpha virt. eigenvalues --    0.05914   0.06175   0.10128   0.10448   0.10894
 Alpha virt. eigenvalues --    0.12779   0.13596   0.13999   0.14381   0.15145

 Mulliken charges:
               1
     1  C   -0.437520
     2  C   -0.970861
     3  N    1.342455
     4  O   -1.110898
     5  C   -0.467865
     6  N    0.411449
     7  C    0.597748
     8  H    0.213269
     9  H    0.144284
    10  H    0.230336
    11  H    0.162451
    12  H    0.032808
    13  H   -0.147657
 Sum of Mulliken charges =  -0.00000

 Dipole moment (field-independent basis, Debye):
    X=              2.6147    Y=             -1.0734    Z=              0.0363  Tot=              2.8267

 Test job not archived.
 1\1\GINC-SE168\SP\RHF\Aug-CC-pVDZ\C4H6N2O1\OHZDE\09-Apr-2025\0\\#t hf
 aug-cc-pvdz iop(5/13=1,5/36=2,99/5=2) pseudo=read geom=check guess=(re
 ad,tcheck) scf=(maxcycle=1)\\title\\0,1\C,0,-2.20195586,-0.09818894,0.
 02513279\C,0,-0.82764001,0.04472686,-0.5530133\N,0,-0.8347614,-0.00643
 542,-2.020928\O,0,0.23260824,-0.11832392,-2.54458613\C,0,1.4463839,0.5
 1983736,0.63469792\N,0,2.35714923,-0.396449,1.14649134\C,0,0.28843741,
 0.25122992,0.09435582\H,0,-2.64318196,-1.05378027,-0.26652045\H,0,-2.1
 7120293,-0.04059585,1.11116563\H,0,-2.85568739,0.69020019,-0.3535615\H

 Normal termination of Gaussian 16 at Wed Apr  9 19:05:54 2025.
