 Gaussian 16, Revision C.01,

 ----------------------------------------------------------------------
 #t hf aug-cc-pvdz symm=none int=(grid=ultrafine) guess=(read,tcheck) s
 table=(opt,rrhf)
 ----------------------------------------------------------------------
 -----
 title
 -----
 Symbolic Z-matrix:
 Charge =  0 Multiplicity = 1

 SCF Done:  E(RHF) =  -338.560201271     A.U. after   17 cycles
 Normal termination of Gaussian 16 at Wed Apr  9 19:09:53 2025.
 Gaussian 16:  ES64L-G16RevC.01  3-Jul-2019

 ----------------------------------------------------------------------
 #t hf aug-cc-pvdz iop(5/13=1,5/36=2,99/5=2) pseudo=read geom=check gue
 ss=(read,tcheck) scf=(maxcycle=1)
 ----------------------------------------------------------------------
 -----
 title
 -----
 Structure from the checkpoint file:  "Grambow2020_wb97xd3_008804_forward_mol1.chk"
 Charge =  0 Multiplicity = 1

                         Standard orientation:
 ---------------------------------------------------------------------
 Center     Atomic      Atomic             Coordinates (Angstroms)
 Number     Number       Type             X           Y           Z
 ---------------------------------------------------------------------
      1          7           0        1.195024   -1.720505   -0.217325
      2          6           0        0.490693   -0.625594    0.153530
      3          6           0       -0.792808   -0.131245    0.161174
      4          8           0       -2.021750   -0.709713    0.084528
      5          7           0       -0.676938    1.233891   -0.076841
      6          6           0        0.581244    1.657020   -0.132661
      7          6           0        1.406974    0.511854    0.106191
      8          1           0        0.949586   -2.612398    0.199022
      9          1           0        2.064597   -0.542932   -0.441373
     10          1           0       -2.018519   -1.350648   -0.633768
     11          1           0       -1.487262    1.816736   -0.217911
     12          1           0        0.814475    2.708267   -0.189403
     13          1           0        2.107908    0.592768    0.936968
 ---------------------------------------------------------------------

 SCF Done:  E(RHF) =  -338.903071534     A.U. after    2 cycles

 The electronic state is 1-A.
 Alpha  occ. eigenvalues --  -20.58006 -15.60232 -15.44173 -11.31773 -11.29868
 Alpha  occ. eigenvalues --  -11.26775 -11.22107  -1.49357  -1.33286  -1.17452
 Alpha  occ. eigenvalues --   -1.03340  -1.00050  -0.86907  -0.80135  -0.78158
 Alpha  occ. eigenvalues --   -0.72130  -0.68570  -0.65134  -0.61956  -0.58777
 Alpha  occ. eigenvalues --   -0.55352  -0.53932  -0.49636  -0.40885  -0.38499
 Alpha  occ. eigenvalues --   -0.27764
 Alpha virt. eigenvalues --    0.02403   0.04059   0.04406   0.05373   0.05875
 Alpha virt. eigenvalues --    0.06105   0.07050   0.09392   0.10447   0.11658
 Alpha virt. eigenvalues --    0.12032   0.13050   0.14007   0.15133   0.15496

 Mulliken charges:
               1
     1  N    0.643186
     2  C   -1.633916
     3  C    1.158773
     4  O   -1.414887
     5  N    0.737323
     6  C   -0.385030
     7  C   -0.143553
     8  H    0.027729
     9  H    0.701334
    10  H    0.245690
    11  H    0.071804
    12  H   -0.126026
    13  H    0.117575
 Sum of Mulliken charges =  -0.00000

 Dipole moment (field-independent basis, Debye):
    X=             -1.5456    Y=              4.0523    Z=             -0.2023  Tot=              4.3417

 Test job not archived.
 1\1\GINC-SE135\SP\RHF\Aug-CC-pVDZ\C4H6N2O1\OHZDE\09-Apr-2025\0\\#t hf
 aug-cc-pvdz iop(5/13=1,5/36=2,99/5=2) pseudo=read geom=check guess=(re
 ad,tcheck) scf=(maxcycle=1)\\title\\0,1\N,0,-1.83578374,0.89249774,0.1
 6761466\C,0,-0.67598137,0.29707943,-0.19677404\C,0,-0.12159876,-0.9498
 7031,-0.36879295\O,0,-0.64442862,-2.19039777,-0.56510646\N,0,1.2051204
 2,-0.83576305,0.03179249\C,0,1.55874605,0.4057659,0.34600985\C,0,0.404
 91473,1.22527414,0.12837237\H,0,-2.66788405,0.69628593,-0.37843357\H,0
 ,-0.73066119,1.74517943,0.66225754\H,0,-1.35427551,-2.33172723,0.06963

 Normal termination of Gaussian 16 at Wed Apr  9 19:09:57 2025.
