 Gaussian 16, Revision C.01,

 ----------------------------------------------------------------------
 #t hf aug-cc-pvdz symm=none int=(grid=ultrafine) guess=(read,tcheck) s
 table=(opt,rrhf)
 ----------------------------------------------------------------------
 -----
 title
 -----
 Symbolic Z-matrix:
 Charge =  0 Multiplicity = 1

 SCF Done:  E(RHF) =  -322.554721425     A.U. after   16 cycles
 Normal termination of Gaussian 16 at Wed Apr  9 18:21:21 2025.
 Gaussian 16:  ES64L-G16RevC.01  3-Jul-2019

 ----------------------------------------------------------------------
 #t hf aug-cc-pvdz iop(5/13=1,5/36=2,99/5=2) pseudo=read geom=check gue
 ss=(read,tcheck) scf=(maxcycle=1)
 ----------------------------------------------------------------------
 -----
 title
 -----
 Structure from the checkpoint file:  "Grambow2020_wb97xd3_007353_forward_mol1.chk"
 Charge =  0 Multiplicity = 1

                         Standard orientation:
 ---------------------------------------------------------------------
 Center     Atomic      Atomic             Coordinates (Angstroms)
 Number     Number       Type             X           Y           Z
 ---------------------------------------------------------------------
      1          8           0        2.086929   -0.833785   -0.218350
      2          6           0        0.998502   -0.272955   -0.271508
      3          6           0        0.731069    1.335251    0.115440
      4          7           0       -0.596190    0.844767    0.416861
      5          6           0       -1.406127    0.453927   -0.560215
      6          6           0       -1.560537   -0.956984   -0.054248
      7          6           0       -0.289284   -0.568426    0.707142
      8          1           0        1.279782    1.606325    1.015799
      9          1           0        0.776415    2.099470   -0.657557
     10          1           0        0.333577   -0.211400   -1.265879
     11          1           0       -1.780644    1.053731   -1.379719
     12          1           0       -1.457948   -1.749633   -0.792390
     13          1           0       -2.448782   -1.127107    0.557883
     14          1           0       -0.066246   -0.859351    1.730969
 ---------------------------------------------------------------------

 SCF Done:  E(RHF) =  -322.889327095     A.U. after    2 cycles

 The electronic state is 1-A.
 Alpha  occ. eigenvalues --  -20.44175 -15.58741 -11.36691 -11.31264 -11.28994
 Alpha  occ. eigenvalues --  -11.28657 -11.28271  -1.39899  -1.37053  -1.09209
 Alpha  occ. eigenvalues --   -1.00422  -0.92563  -0.85393  -0.77182  -0.73707
 Alpha  occ. eigenvalues --   -0.69854  -0.65641  -0.61377  -0.59324  -0.56072
 Alpha  occ. eigenvalues --   -0.55395  -0.53669  -0.53030  -0.46877  -0.33604
 Alpha  occ. eigenvalues --   -0.32476
 Alpha virt. eigenvalues --    0.02095   0.03167   0.03185   0.04093   0.04979
 Alpha virt. eigenvalues --    0.05374   0.05804   0.07311   0.08693   0.10492
 Alpha virt. eigenvalues --    0.11706   0.12188   0.12762   0.13353   0.14328

 Mulliken charges:
               1
     1  O   -1.418438
     2  C    1.134061
     3  C   -0.190954
     4  N    0.821655
     5  C   -0.354427
     6  C    0.230985
     7  C   -0.311810
     8  H   -0.038444
     9  H   -0.039581
    10  H    0.328679
    11  H   -0.187207
    12  H    0.121605
    13  H    0.090074
    14  H   -0.186198
 Sum of Mulliken charges =  -0.00000

 Dipole moment (field-independent basis, Debye):
    X=             -6.5376    Y=              2.0944    Z=             -0.3140  Tot=              6.8721

 Test job not archived.
 1\1\GINC-SE116\SP\RHF\Aug-CC-pVDZ\C5H7N1O1\OHZDE\09-Apr-2025\0\\#t hf
 aug-cc-pvdz iop(5/13=1,5/36=2,99/5=2) pseudo=read geom=check guess=(re
 ad,tcheck) scf=(maxcycle=1)\\title\\0,1\O,0,1.74543872,1.7221639,-0.53
 915643\C,0,0.98139688,0.86438814,-0.11196797\C,0,1.43047958,-0.6954671
 6,0.30366615\N,0,0.05140449,-0.97805442,-0.0300131\C,0,-0.93123144,-0.
 54614918,0.7518546\C,0,-1.60307413,0.27875224,-0.31523549\C,0,-0.22164
 025,0.13285051,-0.96108992\H,0,2.12004971,-1.10225938,-0.43405125\H,0,
 1.71505762,-0.92913513,1.32739694\H,0,0.31386028,1.00379402,0.87274052

 Normal termination of Gaussian 16 at Wed Apr  9 18:21:26 2025.
