 Gaussian 16, Revision C.01,

 ----------------------------------------------------------------------
 #t hf aug-cc-pvdz symm=none int=(grid=ultrafine) guess=(read,tcheck) s
 table=(opt,rrhf)
 ----------------------------------------------------------------------
 -----
 title
 -----
 Symbolic Z-matrix:
 Charge =  0 Multiplicity = 1

 SCF Done:  E(RHF) =  -302.752426822     A.U. after   16 cycles
 Normal termination of Gaussian 16 at Wed Apr  9 19:13:08 2025.
 Gaussian 16:  ES64L-G16RevC.01  3-Jul-2019

 ----------------------------------------------------------------------
 #t hf aug-cc-pvdz iop(5/13=1,5/36=2,99/5=2) pseudo=read geom=check gue
 ss=(read,tcheck) scf=(maxcycle=1)
 ----------------------------------------------------------------------
 -----
 title
 -----
 Structure from the checkpoint file:  "Grambow2020_wb97xd3_008907_reverse_mol1.chk"
 Charge =  0 Multiplicity = 1

                         Standard orientation:
 ---------------------------------------------------------------------
 Center     Atomic      Atomic             Coordinates (Angstroms)
 Number     Number       Type             X           Y           Z
 ---------------------------------------------------------------------
      1          6           0        1.085712    1.718440    0.250136
      2          7           0        0.255049    0.613699   -0.300301
      3          6           0       -1.105830    1.003073   -0.106132
      4          6           0       -1.808449   -0.229720    0.132541
      5          6           0       -0.918208   -1.265045    0.094938
      6          6           0        0.373189   -0.689482   -0.131960
      7          7           0        1.578444   -1.292057   -0.090311
      8          1           0        1.557630    1.376701    1.176848
      9          1           0        1.829929    2.070663   -0.466118
     10          1           0       -0.522347    1.922958    0.610182
     11          1           0       -1.498328    1.651365   -0.891848
     12          1           0       -2.876570   -0.319539    0.269757
     13          1           0       -1.113258   -2.313209    0.266172
     14          1           0        2.376089   -0.677326   -0.024537
     15          1           0        1.653923   -2.186703    0.356690
 ---------------------------------------------------------------------

 SCF Done:  E(RHF) =  -303.072384657     A.U. after    2 cycles

 The electronic state is 1-A.
 Alpha  occ. eigenvalues --  -15.54836 -15.52659 -11.35130 -11.27933 -11.25298
 Alpha  occ. eigenvalues --  -11.24199 -11.18611  -1.33052  -1.23329  -1.09087
 Alpha  occ. eigenvalues --   -0.99586  -0.89591  -0.84739  -0.81565  -0.74411
 Alpha  occ. eigenvalues --   -0.72133  -0.67157  -0.64550  -0.59474  -0.57208
 Alpha  occ. eigenvalues --   -0.56095  -0.54407  -0.49858  -0.40287  -0.39254
 Alpha  occ. eigenvalues --   -0.26268
 Alpha virt. eigenvalues --    0.02341   0.03463   0.04196   0.05603   0.05706
 Alpha virt. eigenvalues --    0.06187   0.06873   0.07378   0.08716   0.09791
 Alpha virt. eigenvalues --    0.10234   0.11949   0.12384   0.14488   0.14642

 Mulliken charges:
               1
     1  C   -0.598789
     2  N    0.786429
     3  C   -0.484793
     4  C    0.160941
     5  C    0.883657
     6  C   -2.077903
     7  N    0.821100
     8  H   -0.026072
     9  H   -0.076923
    10  H    0.582424
    11  H   -0.001436
    12  H   -0.053314
    13  H   -0.170114
    14  H    0.074496
    15  H    0.180294
 Sum of Mulliken charges =  -0.00000

 Dipole moment (field-independent basis, Debye):
    X=             -0.8760    Y=             -4.8051    Z=              0.3642  Tot=              4.8979

 Test job not archived.
 1\1\GINC-SE125\SP\RHF\Aug-CC-pVDZ\C5H8N2\OHZDE\09-Apr-2025\0\\#t hf au
 g-cc-pvdz iop(5/13=1,5/36=2,99/5=2) pseudo=read geom=check guess=(read
 ,tcheck) scf=(maxcycle=1)\\title\\0,1\C,0,-1.37792766,-1.25092659,0.51
 408438\N,0,-0.26476359,-0.58079302,-0.21063828\C,0,0.94386789,-1.10455
 812,0.34270034\C,0,1.87700251,-0.01083227,0.2840442\C,0,1.25313458,1.0
 795276,-0.25237397\C,0,-0.10276879,0.69490768,-0.50546143\N,0,-1.13795
 315,1.47189101,-0.88250444\H,0,-1.85741142,-0.52212978,1.17532458\H,0,
 -2.1008914,-1.70207476,-0.16762542\H,0,0.09392069,-1.58854809,1.204727

 Normal termination of Gaussian 16 at Wed Apr  9 19:13:17 2025.
