 Gaussian 16, Revision C.01,

 ----------------------------------------------------------------------
 #t hf aug-cc-pvdz symm=none int=(grid=ultrafine) guess=(read,tcheck) s
 table=(opt,rrhf)
 ----------------------------------------------------------------------
 -----
 title
 -----
 Symbolic Z-matrix:
 Charge =  0 Multiplicity = 1

 SCF Done:  E(RHF) =  -360.911749522     A.U. after   13 cycles
 Normal termination of Gaussian 16 at Wed Apr  9 17:28:36 2025.
 Gaussian 16:  ES64L-G16RevC.01  3-Jul-2019

 ----------------------------------------------------------------------
 #t hf aug-cc-pvdz iop(5/13=1,5/36=2,99/5=2) pseudo=read geom=check gue
 ss=(read,tcheck) scf=(maxcycle=1)
 ----------------------------------------------------------------------
 -----
 title
 -----
 Structure from the checkpoint file:  "Grambow2020_wb97xd3_006610_reverse_mol2.chk"
 Charge =  0 Multiplicity = 1

                         Standard orientation:
 ---------------------------------------------------------------------
 Center     Atomic      Atomic             Coordinates (Angstroms)
 Number     Number       Type             X           Y           Z
 ---------------------------------------------------------------------
      1          6           0        1.145243    1.390507   -0.337883
      2          6           0        1.534368    0.047154    0.190416
      3          8           0        2.521222   -0.594265   -0.491743
      4          6           0        0.992209   -0.534254    1.258888
      5          7           0       -2.211856    0.824979    0.430814
      6          6           0       -2.446464   -0.182495   -0.292685
      7          8           0       -1.546553   -1.128127   -0.543928
      8          1           0        0.275793    1.775270    0.190918
      9          1           0        0.890465    1.322749   -1.400338
     10          1           0        1.975650    2.094145   -0.233633
     11          1           0       -0.723287   -0.926233   -0.056229
     12          1           0        2.769937   -0.080294   -1.261928
     13          1           0        1.337202   -1.502870    1.595542
     14          1           0        0.229572   -0.016564    1.823135
     15          1           0       -3.031380    1.417160    0.494711
     16          1           0       -3.390447   -0.404553   -0.794926
 ---------------------------------------------------------------------

 SCF Done:  E(RHF) =  -361.285366053     A.U. after    2 cycles

 The electronic state is 1-A.
 Alpha  occ. eigenvalues --  -20.57953 -20.57828 -15.48274 -11.34927 -11.31235
 Alpha  occ. eigenvalues --  -11.24262 -11.21274  -1.50895  -1.49762  -1.20539
 Alpha  occ. eigenvalues --   -1.06530  -0.96044  -0.86628  -0.78829  -0.75971
 Alpha  occ. eigenvalues --   -0.69717  -0.68065  -0.65001  -0.61964  -0.59807
 Alpha  occ. eigenvalues --   -0.58357  -0.57417  -0.54443  -0.54196  -0.51677
 Alpha  occ. eigenvalues --   -0.48030  -0.43606  -0.34969
 Alpha virt. eigenvalues --    0.03241   0.03621   0.04655   0.04989   0.05715
 Alpha virt. eigenvalues --    0.06482   0.07210   0.08176   0.08951   0.09862
 Alpha virt. eigenvalues --    0.11706   0.12817   0.13613   0.13852   0.14725

 Mulliken charges:
               1
     1  C   -0.636052
     2  C    1.447706
     3  O   -1.534391
     4  C    0.026483
     5  N    0.581258
     6  C    0.068012
     7  O   -1.273175
     8  H    0.158147
     9  H    0.191021
    10  H    0.176492
    11  H    0.630070
    12  H    0.348552
    13  H   -0.147964
    14  H   -0.103727
    15  H    0.043243
    16  H    0.024326
 Sum of Mulliken charges =  -0.00000

 Dipole moment (field-independent basis, Debye):
    X=             -0.7730    Y=              1.5697    Z=             -1.7618  Tot=              2.4830

 Test job not archived.
 1\1\GINC-SE112\SP\RHF\Aug-CC-pVDZ\C4H9N1O2\OHZDE\09-Apr-2025\0\\#t hf
 aug-cc-pvdz iop(5/13=1,5/36=2,99/5=2) pseudo=read geom=check guess=(re
 ad,tcheck) scf=(maxcycle=1)\\title\\0,1\C,0,-1.3268899,-0.78203043,-0.
 54592337\C,0,-1.4367218,0.47231402,0.26009736\O,0,-2.28488449,1.417378
 86,-0.22787274\C,0,-0.77829451,0.70589067,1.39390543\N,0,2.08419662,-1
 .04000619,0.14600855\C,0,2.5052162,0.03130661,-0.37218699\O,0,1.807285
 84,1.16266697,-0.3821227\H,0,-0.54478411,-1.42669311,-0.15052719\H,0,-
 1.07573588,-0.54630144,-1.58499393\H,0,-2.27880659,-1.31998001,-0.5419

 Normal termination of Gaussian 16 at Wed Apr  9 17:28:42 2025.
