 Gaussian 16, Revision C.01,

 ----------------------------------------------------------------------
 #t hf aug-cc-pvdz symm=none int=(grid=ultrafine) guess=(read,tcheck) s
 table=(opt,rrhf)
 ----------------------------------------------------------------------
 -----
 title
 -----
 Symbolic Z-matrix:
 Charge =  0 Multiplicity = 1

 SCF Done:  E(RHF) =  -345.864908046     A.U. after   16 cycles

 1\1\GINC-SE080\Stability\RHF\Aug-CC-pVDZ\C5H12O2\OHZDE\09-Apr-2025\0\\
 #t hf aug-cc-pvdz symm=none int=(grid=ultrafine) guess=(read,tcheck) s
 table=(opt,rrhf)\\title\\0,1\C,0,1.95652396,-1.01531134,-0.92333608\C,
 0,1.26685702,-1.08096403,0.39138024\O,0,0.75261806,1.21269568,0.189058
 11\C,0,-0.4695267,1.52884282,0.65045558\C,0,-1.5352751,1.39202544,-0.4
 3947075\O,0,-1.41766624,0.09918731,-1.0668886\C,0,-1.21515587,-0.93220
 237,-0.24968038\H,0,2.18852837,0.0148927,-1.17440572\H,0,1.35727806,-1
 .45757067,-1.72168448\H,0,2.88024448,-1.60208289,-0.8525715\H,0,1.6507

 Normal termination of Gaussian 16 at Wed Apr  9 04:05:15 2025.
 Gaussian 16:  ES64L-G16RevC.01  3-Jul-2019

 ----------------------------------------------------------------------
 #t hf aug-cc-pvdz iop(5/13=1,5/36=2,99/5=2) pseudo=read geom=check gue
 ss=(read,tcheck) scf=(maxcycle=1)
 ----------------------------------------------------------------------
 -----
 title
 -----
 Structure from the checkpoint file:  "Grambow2020_wb97xd3_009166_forward_mol1.chk"
 Charge =  0 Multiplicity = 1

                         Standard orientation:
 ---------------------------------------------------------------------
 Center     Atomic      Atomic             Coordinates (Angstroms)
 Number     Number       Type             X           Y           Z
 ---------------------------------------------------------------------
      1          6           0       -2.351948    0.001339   -0.681435
      2          6           0       -1.772865   -0.063202    0.685653
      3          8           0       -0.027590   -1.405314   -0.162287
      4          6           0        1.168572   -1.137006    0.388785
      5          6           0        1.905642   -0.034589   -0.375338
      6          8           0        1.029076    1.096605   -0.551257
      7          6           0        0.299501    1.442452    0.507381
      8          1           0       -1.950737   -0.797542   -1.297066
      9          1           0       -2.158607    0.962355   -1.162181
     10          1           0       -3.440334   -0.101207   -0.595013
     11          1           0       -1.683372   -1.039463    1.136041
     12          1           0       -2.120618    0.711885    1.372678
     13          1           0        1.087325   -0.774924    1.444572
     14          1           0        1.841423   -2.014962    0.471655
     15          1           0        2.820092    0.297485    0.132092
     16          1           0        2.141702   -0.352804   -1.389392
     17          1           0       -0.532637    0.524942    0.671796
     18          1           0       -0.311977    2.317649    0.296149
     19          1           0        0.802443    1.482288    1.476744
 ---------------------------------------------------------------------

 SCF Done:  E(RHF) =  -346.230098513     A.U. after    2 cycles

 The electronic state is 1-A.
 Alpha  occ. eigenvalues --  -20.57985 -20.39117 -11.36566 -11.34692 -11.26594
 Alpha  occ. eigenvalues --  -11.24821 -11.22826  -1.51249  -1.29251  -1.07956
 Alpha  occ. eigenvalues --   -1.00484  -0.93219  -0.87207  -0.78506  -0.71416
 Alpha  occ. eigenvalues --   -0.69583  -0.67027  -0.65378  -0.61341  -0.59283
 Alpha  occ. eigenvalues --   -0.57748  -0.55117  -0.54154  -0.51642  -0.49034
 Alpha  occ. eigenvalues --   -0.46812  -0.43646  -0.31024  -0.29693
 Alpha virt. eigenvalues --    0.01663   0.02053   0.03376   0.04088   0.04808
 Alpha virt. eigenvalues --    0.06163   0.06312   0.06690   0.06808   0.07690
 Alpha virt. eigenvalues --    0.09204   0.09867   0.10659   0.12124   0.12898

 Mulliken charges:
               1
     1  C   -0.386775
     2  C   -0.247633
     3  O   -1.402253
     4  C    0.545549
     5  C    0.479893
     6  O   -1.176163
     7  C    0.345546
     8  H    0.279526
     9  H    0.175079
    10  H    0.163739
    11  H    0.195331
    12  H    0.055285
    13  H    0.159517
    14  H   -0.026686
    15  H    0.119271
    16  H    0.006316
    17  H    0.460177
    18  H   -0.031814
    19  H    0.286093
 Sum of Mulliken charges =  -0.00000

 Dipole moment (field-independent basis, Debye):
    X=             -2.3888    Y=              4.6062    Z=              2.5787  Tot=              5.7942

 Test job not archived.
 1\1\GINC-SE080\SP\RHF\Aug-CC-pVDZ\C5H12O2\OHZDE\09-Apr-2025\0\\#t hf a
 ug-cc-pvdz iop(5/13=1,5/36=2,99/5=2) pseudo=read geom=check guess=(rea
 d,tcheck) scf=(maxcycle=1)\\title\\0,1\C,0,1.95652396,-1.01531134,-0.9
 2333608\C,0,1.26685702,-1.08096403,0.39138024\O,0,0.75261806,1.2126956
 8,0.18905811\C,0,-0.4695267,1.52884282,0.65045558\C,0,-1.5352751,1.392
 02544,-0.43947075\O,0,-1.41766624,0.09918731,-1.0668886\C,0,-1.2151558
 7,-0.93220237,-0.24968038\H,0,2.18852837,0.0148927,-1.17440572\H,0,1.3
 5727806,-1.45757067,-1.72168448\H,0,2.88024448,-1.60208289,-0.8525715\

 Normal termination of Gaussian 16 at Wed Apr  9 04:05:22 2025.
