 Gaussian 16, Revision C.01,

 ----------------------------------------------------------------------
 #t hf aug-cc-pvdz symm=none int=(grid=ultrafine) guess=(read,tcheck) s
 table=(opt,rrhf)
 ----------------------------------------------------------------------
 -----
 title
 -----
 Symbolic Z-matrix:
 Charge =  0 Multiplicity = 1

 SCF Done:  E(RHF) =  -267.475294393     A.U. after   15 cycles
 Normal termination of Gaussian 16 at Wed Apr  9 15:50:41 2025.
 Gaussian 16:  ES64L-G16RevC.01  3-Jul-2019

 ----------------------------------------------------------------------
 #t hf aug-cc-pvdz iop(5/13=1,5/36=2,99/5=2) pseudo=read geom=check gue
 ss=(read,tcheck) scf=(maxcycle=1)
 ----------------------------------------------------------------------
 -----
 title
 -----
 Structure from the checkpoint file:  "Grambow2020_b97d3_006835_forward_mol1.chk"
 Charge =  0 Multiplicity = 1

                         Standard orientation:
 ---------------------------------------------------------------------
 Center     Atomic      Atomic             Coordinates (Angstroms)
 Number     Number       Type             X           Y           Z
 ---------------------------------------------------------------------
      1          6           0       -2.022302   -0.405166    0.056313
      2          6           0       -0.731558    0.313408   -0.145650
      3          6           0       -0.199165    1.519627   -0.274324
      4          6           0        0.788394    0.637853    0.393436
      5          6           0        0.686549   -1.094482   -0.011502
      6          8           0        1.738924   -0.197713   -0.241071
      7          1           0       -2.838064    0.276360   -0.224140
      8          1           0       -2.098554   -1.317020   -0.554747
      9          1           0       -2.163736   -0.688443    1.109714
     10          1           0        1.010111    0.771149    1.462873
     11          1           0        0.322261   -1.620857   -0.896098
     12          1           0        0.725087   -1.666931    0.921329
 ---------------------------------------------------------------------

 SCF Done:  E(RHF) =  -267.748594828     A.U. after    2 cycles

 The electronic state is 1-A.
 Alpha  occ. eigenvalues --  -20.60114 -11.37978 -11.36576 -11.28325 -11.26683
 Alpha  occ. eigenvalues --  -11.22859  -1.53995  -1.16674  -1.00968  -0.94192
 Alpha  occ. eigenvalues --   -0.85002  -0.72347  -0.70783  -0.67358  -0.64228
 Alpha  occ. eigenvalues --   -0.61065  -0.59456  -0.53419  -0.51366  -0.46374
 Alpha  occ. eigenvalues --   -0.37993  -0.35196
 Alpha virt. eigenvalues --    0.02573   0.03431   0.03883   0.05116   0.06310
 Alpha virt. eigenvalues --    0.06556   0.09123   0.09545   0.10403   0.10824
 Alpha virt. eigenvalues --    0.12531   0.13700   0.14484   0.14674   0.15510

 Mulliken charges:
               1
     1  C   -0.566730
     2  C    0.189837
     3  C   -0.615874
     4  C    0.943513
     5  C    0.414867
     6  O   -1.300666
     7  H    0.183726
     8  H    0.223011
     9  H    0.269726
    10  H    0.092190
    11  H    0.062329
    12  H    0.104072
 Sum of Mulliken charges =  -0.00000

 Dipole moment (field-independent basis, Debye):
    X=             -0.9718    Y=             -4.4534    Z=              1.9396  Tot=              4.9537

 Test job not archived.
 1\1\GINC-SE173\SP\RHF\Aug-CC-pVDZ\C5H6O1\OHZDE\09-Apr-2025\0\\#t hf au
 g-cc-pvdz iop(5/13=1,5/36=2,99/5=2) pseudo=read geom=check guess=(read
 ,tcheck) scf=(maxcycle=1)\\title\\0,1\C,0,-1.57911539,-0.20520731,0.60
 874754\C,0,-0.44212756,0.07363579,-0.31465021\C,0,-0.12799326,0.652693
 99,-1.46398664\C,0,1.03369227,0.76153406,-0.54892331\C,0,1.19680879,-0
 .53538929,0.66215649\O,0,2.06774563,-0.19063366,-0.3804377\H,0,-2.5135
 0685,-0.09504338,0.04008613\H,0,-1.54104265,-1.22030003,1.03162244\H,0
 ,-1.60343488,0.51066455,1.44351575\H,0,1.29813247,1.73482419,-0.109150

 Normal termination of Gaussian 16 at Wed Apr  9 15:50:45 2025.
