 Gaussian 16, Revision C.01,

 ----------------------------------------------------------------------
 #t hf aug-cc-pvdz symm=none int=(grid=ultrafine) guess=(read,tcheck) s
 table=(opt,rrhf)
 ----------------------------------------------------------------------
 -----
 title
 -----
 Symbolic Z-matrix:
 Charge =  0 Multiplicity = 1

 SCF Done:  E(RHF) =  -343.608208462     A.U. after   15 cycles
 Normal termination of Gaussian 16 at Wed Apr  9 03:45:33 2025.
 Gaussian 16:  ES64L-G16RevC.01  3-Jul-2019

 ----------------------------------------------------------------------
 #t hf aug-cc-pvdz iop(5/13=1,5/36=2,99/5=2) pseudo=read geom=check gue
 ss=(read,tcheck) scf=(maxcycle=1)
 ----------------------------------------------------------------------
 -----
 title
 -----
 Structure from the checkpoint file:  "Grambow2020_wb97xd3_007810_forward_mol1.chk"
 Charge =  0 Multiplicity = 1

                         Standard orientation:
 ---------------------------------------------------------------------
 Center     Atomic      Atomic             Coordinates (Angstroms)
 Number     Number       Type             X           Y           Z
 ---------------------------------------------------------------------
      1          6           0       -1.944650   -0.875219   -0.383351
      2          6           0       -0.621950    0.126225   -0.087309
      3          6           0       -1.143085    1.498230    0.316289
      4          6           0       -0.327275   -0.777530    0.985635
      5          6           0        1.775352   -0.053093    0.298608
      6          8           0        2.842441   -0.034019   -0.084743
      7          8           0        0.244392    0.091453   -1.061260
      8          1           0       -1.613748   -1.779998   -0.883664
      9          1           0       -2.624159   -1.093350    0.439459
     10          1           0       -2.467363   -0.237554   -1.093535
     11          1           0       -0.309079    2.071394    0.726582
     12          1           0       -1.502857    2.016573   -0.572277
     13          1           0       -1.944432    1.457669    1.058157
     14          1           0       -0.749528   -0.661665    1.981170
     15          1           0        0.086142   -1.744215    0.732897
 ---------------------------------------------------------------------

 SCF Done:  E(RHF) =  -343.954315078     A.U. after    2 cycles

 The electronic state is 1-A.
 Alpha  occ. eigenvalues --  -20.60005 -20.46249 -11.35494 -11.34672 -11.31029
 Alpha  occ. eigenvalues --  -11.27218 -11.23417  -1.55555  -1.38723  -1.10293
 Alpha  occ. eigenvalues --   -0.97475  -0.94746  -0.78303  -0.76588  -0.70016
 Alpha  occ. eigenvalues --   -0.66389  -0.62735  -0.60793  -0.59671  -0.59089
 Alpha  occ. eigenvalues --   -0.58563  -0.55131  -0.54066  -0.53032  -0.45129
 Alpha  occ. eigenvalues --   -0.37801  -0.35394
 Alpha virt. eigenvalues --    0.02092   0.02981   0.03507   0.04743   0.05925
 Alpha virt. eigenvalues --    0.06300   0.06460   0.06941   0.07599   0.09713
 Alpha virt. eigenvalues --    0.10997   0.12834   0.13550   0.13834   0.14387

 Mulliken charges:
               1
     1  C   -0.201764
     2  C    0.680298
     3  C   -0.150066
     4  C    0.234848
     5  C    0.693260
     6  O   -0.827872
     7  O   -1.612105
     8  H    0.082985
     9  H    0.193891
    10  H    0.251870
    11  H    0.222275
    12  H    0.170332
    13  H    0.205662
    14  H   -0.066847
    15  H    0.123234
 Sum of Mulliken charges =   0.00000

 Dipole moment (field-independent basis, Debye):
    X=             -3.9297    Y=             -1.6969    Z=              3.9996  Tot=              5.8582

 Test job not archived.
 1\1\GINC-SE398\SP\RHF\Aug-CC-pVDZ\C5H8O2\OHZDE\09-Apr-2025\0\\#t hf au
 g-cc-pvdz iop(5/13=1,5/36=2,99/5=2) pseudo=read geom=check guess=(read
 ,tcheck) scf=(maxcycle=1)\\title\\0,1\C,0,-0.94788012,1.18797663,-0.58
 490873\C,0,0.03015025,0.10690949,0.26055951\C,0,-0.86723568,-0.9194626
 ,0.93741075\C,0,0.54223828,-0.25507046,-1.02845282\C,0,2.37026392,-0.5
 5453789,0.38097822\O,0,3.39738367,-0.47313063,0.85468574\O,0,0.8943026
 8,0.72126345,1.01960368\H,0,-0.36266067,2.05051378,-0.88819302\H,0,-1.
 55771733,0.8052325,-1.40218274\H,0,-1.61218939,1.467858,0.23030076\H,0

 Normal termination of Gaussian 16 at Wed Apr  9 03:45:38 2025.
