 Gaussian 16, Revision C.01,

 ----------------------------------------------------------------------
 #t hf aug-cc-pvdz symm=none int=(grid=ultrafine) guess=(read,tcheck) s
 table=(opt,rrhf)
 ----------------------------------------------------------------------
 -----
 title
 -----
 Symbolic Z-matrix:
 Charge =  0 Multiplicity = 1

 SCF Done:  E(RHF) =  -358.571822050     A.U. after   15 cycles
 Normal termination of Gaussian 16 at Wed Apr  9 17:39:19 2025.
 Gaussian 16:  ES64L-G16RevC.01  3-Jul-2019

 ----------------------------------------------------------------------
 #t hf aug-cc-pvdz iop(5/13=1,5/36=2,99/5=2) pseudo=read geom=check gue
 ss=(read,tcheck) scf=(maxcycle=1)
 ----------------------------------------------------------------------
 -----
 title
 -----
 Structure from the checkpoint file:  "Grambow2020_wb97xd3_006757_reverse_mol2.chk"
 Charge =  0 Multiplicity = 1

                         Standard orientation:
 ---------------------------------------------------------------------
 Center     Atomic      Atomic             Coordinates (Angstroms)
 Number     Number       Type             X           Y           Z
 ---------------------------------------------------------------------
      1          8           0       -2.636211    0.378804    0.001916
      2          6           0       -1.758842   -0.431242   -0.001409
      3          6           0       -0.300538   -0.069517   -0.001258
      4          8           0        0.529957   -1.137448    0.003218
      5          7           0        0.182822    1.093385   -0.003732
      6          6           0        1.636852    0.930976    0.002440
      7          6           0        1.864443   -0.594838   -0.001700
      8          1           0       -1.953073   -1.519932   -0.005447
      9          1           0        2.050817    1.418852    0.886458
     10          1           0        2.062195    1.424862   -0.872638
     11          1           0        2.374710   -0.957051   -0.894389
     12          1           0        2.384149   -0.963539    0.882626
 ---------------------------------------------------------------------

 SCF Done:  E(RHF) =  -358.930639098     A.U. after    2 cycles

 The electronic state is 1-A.
 Alpha  occ. eigenvalues --  -20.59908 -20.57216 -15.51113 -11.36318 -11.35283
 Alpha  occ. eigenvalues --  -11.31509 -11.28334  -1.54227  -1.50382  -1.24977
 Alpha  occ. eigenvalues --   -1.06509  -0.92729  -0.89449  -0.78073  -0.74213
 Alpha  occ. eigenvalues --   -0.71609  -0.68402  -0.63849  -0.62643  -0.59259
 Alpha  occ. eigenvalues --   -0.58325  -0.54237  -0.52777  -0.49530  -0.44600
 Alpha  occ. eigenvalues --   -0.41292
 Alpha virt. eigenvalues --    0.03067   0.03969   0.04301   0.04594   0.05704
 Alpha virt. eigenvalues --    0.06688   0.07601   0.09376   0.11074   0.11403
 Alpha virt. eigenvalues --    0.13145   0.13491   0.14627   0.14953   0.15176

 Mulliken charges:
               1
     1  O   -1.163190
     2  C    1.348821
     3  C    0.020371
     4  O   -1.413418
     5  N    0.667069
     6  C   -0.468424
     7  C    0.536550
     8  H    0.144942
     9  H    0.076138
    10  H    0.076848
    11  H    0.087509
    12  H    0.086783
 Sum of Mulliken charges =  -0.00000

 Dipole moment (field-independent basis, Debye):
    X=              3.7116    Y=             -2.6003    Z=             -0.0023  Tot=              4.5318

 Test job not archived.
 1\1\GINC-SE232\SP\RHF\Aug-CC-pVDZ\C4H5N1O2\OHZDE\09-Apr-2025\0\\#t hf
 aug-cc-pvdz iop(5/13=1,5/36=2,99/5=2) pseudo=read geom=check guess=(re
 ad,tcheck) scf=(maxcycle=1)\\title\\0,1\O,0,2.7401713,-0.27648795,1.62
 934998\C,0,2.19967833,0.26816683,0.71437359\C,0,0.76901446,0.01565422,
 0.33105717\O,0,0.34871279,0.74166483,-0.73029747\N,0,-0.02845051,-0.77
 940228,0.89490029\C,0,-1.2941995,-0.67093868,0.16913702\C,0,-1.0247261
 7,0.36294502,-0.94369302\H,0,2.71464135,1.00666663,0.07217535\H,0,-2.0
 7973933,-0.35672919,0.85839547\H,0,-1.57497178,-1.65021907,-0.221733\H

 Normal termination of Gaussian 16 at Wed Apr  9 17:39:23 2025.
