 Gaussian 16, Revision C.01,

 ----------------------------------------------------------------------
 #t hf aug-cc-pvdz symm=none int=(grid=ultrafine) guess=(read,tcheck) s
 table=(opt,rrhf)
 ----------------------------------------------------------------------
 -----
 title
 -----
 Symbolic Z-matrix:
 Charge =  0 Multiplicity = 1

 SCF Done:  E(RHF) =  -322.627186372     A.U. after   16 cycles
 Normal termination of Gaussian 16 at Wed Apr  9 03:33:24 2025.
 Gaussian 16:  ES64L-G16RevC.01  3-Jul-2019

 ----------------------------------------------------------------------
 #t hf aug-cc-pvdz iop(5/13=1,5/36=2,99/5=2) pseudo=read geom=check gue
 ss=(read,tcheck) scf=(maxcycle=1)
 ----------------------------------------------------------------------
 -----
 title
 -----
 Structure from the checkpoint file:  "Grambow2020_wb97xd3_007014_forward_mol1.chk"
 Charge =  0 Multiplicity = 1

                         Standard orientation:
 ---------------------------------------------------------------------
 Center     Atomic      Atomic             Coordinates (Angstroms)
 Number     Number       Type             X           Y           Z
 ---------------------------------------------------------------------
      1          6           0       -2.115448   -0.607068    0.060517
      2          6           0       -0.632977   -0.445558    0.051691
      3          6           0        0.345371   -1.433694   -0.129955
      4          6           0        1.601140   -0.874133   -0.115057
      5          7           0        1.440948    0.455778    0.134909
      6          6           0       -0.024874    0.850395    0.000144
      7          8           0       -0.382273    1.998089   -0.180004
      8          1           0       -2.402743   -1.617762    0.350610
      9          1           0       -2.532868   -0.401794   -0.928798
     10          1           0       -2.574598    0.098960    0.752849
     11          1           0        0.577463    0.484135    1.210171
     12          1           0        0.147982   -2.493951   -0.182946
     13          1           0        2.562559   -1.352460   -0.022216
     14          1           0        2.154481    1.168060    0.111946
 ---------------------------------------------------------------------

 SCF Done:  E(RHF) =  -322.960568442     A.U. after    2 cycles

 The electronic state is 1-A.
 Alpha  occ. eigenvalues --  -20.49011 -15.60267 -11.36230 -11.28262 -11.25853
 Alpha  occ. eigenvalues --  -11.25237 -11.23789  -1.44654  -1.31732  -1.10365
 Alpha  occ. eigenvalues --   -1.01537  -0.95819  -0.85088  -0.78490  -0.74267
 Alpha  occ. eigenvalues --   -0.70015  -0.64064  -0.62802  -0.59932  -0.57902
 Alpha  occ. eigenvalues --   -0.56577  -0.54127  -0.50742  -0.42142  -0.40090
 Alpha  occ. eigenvalues --   -0.30279
 Alpha virt. eigenvalues --    0.02514   0.03523   0.04006   0.04937   0.05403
 Alpha virt. eigenvalues --    0.06270   0.07459   0.09812   0.10049   0.10765
 Alpha virt. eigenvalues --    0.11763   0.12493   0.13121   0.13374   0.14036

 Mulliken charges:
               1
     1  C   -0.608102
     2  C    0.179580
     3  C    0.653209
     4  C   -0.653115
     5  N    0.324601
     6  C    0.528986
     7  O   -1.489312
     8  H    0.136875
     9  H    0.276107
    10  H    0.202660
    11  H    0.794905
    12  H   -0.177323
    13  H   -0.206411
    14  H    0.037339
 Sum of Mulliken charges =  -0.00000

 Dipole moment (field-independent basis, Debye):
    X=              2.2665    Y=             -3.4026    Z=              1.0884  Tot=              4.2308

 Test job not archived.
 1\1\GINC-SE072\SP\RHF\Aug-CC-pVDZ\C5H7N1O1\OHZDE\09-Apr-2025\0\\#t hf
 aug-cc-pvdz iop(5/13=1,5/36=2,99/5=2) pseudo=read geom=check guess=(re
 ad,tcheck) scf=(maxcycle=1)\\title\\0,1\C,0,-1.97748376,0.26354776,0.2
 0271712\C,0,-0.49711104,0.12835755,0.08395212\C,0,0.49091825,1.0426963
 2,0.47683384\C,0,1.74326423,0.52807329,0.23792024\N,0,1.56779551,-0.68
 347334,-0.3605547\C,0,0.11186852,-1.12212199,-0.25866076\O,0,-0.235495
 23,-2.28024046,-0.38312189\H,0,-2.28020066,1.31057546,0.21974616\H,0,-
 2.33726484,-0.21308268,1.11841427\H,0,-2.47642795,-0.23086742,-0.63108

 Normal termination of Gaussian 16 at Wed Apr  9 03:33:28 2025.
