 Gaussian 16, Revision C.01,

 ----------------------------------------------------------------------
 #t hf aug-cc-pvdz symm=none int=(grid=ultrafine) guess=(read,tcheck) s
 table=(opt,rrhf)
 ----------------------------------------------------------------------
 -----
 title
 -----
 Symbolic Z-matrix:
 Charge =  0 Multiplicity = 1

 SCF Done:  E(RHF) =  -310.212540102     A.U. after   12 cycles

 1\1\GINC-SE192\Stability\RHF\Aug-CC-pVDZ\C6H14O1\OHZDE\09-Apr-2025\0\\
 #t hf aug-cc-pvdz symm=none int=(grid=ultrafine) guess=(read,tcheck) s
 table=(opt,rrhf)\\title\\0,1\C,0,-1.70778564,1.10190508,-0.13237731\C,
 0,-1.67058162,-0.417597,-0.0269083\C,0,-0.28378095,-0.99409158,-0.1781
 2656\C,0,0.05812448,-2.30505591,0.45470045\C,0,0.64588752,-1.03943658,
 1.00690919\O,0,1.75836993,1.83173811,-0.35264212\C,0,2.01948824,1.5242
 6965,-1.70256185\H,0,-2.72886119,1.47951781,-0.0566988\H,0,-1.29915663
 ,1.44408167,-1.0863684\H,0,-1.12240959,1.57038926,0.66210437\H,0,-2.07

 Normal termination of Gaussian 16 at Wed Apr  9 18:34:57 2025.
 Gaussian 16:  ES64L-G16RevC.01  3-Jul-2019

 ----------------------------------------------------------------------
 #t hf aug-cc-pvdz iop(5/13=1,5/36=2,99/5=2) pseudo=read geom=check gue
 ss=(read,tcheck) scf=(maxcycle=1)
 ----------------------------------------------------------------------
 -----
 title
 -----
 Structure from the checkpoint file:  "Grambow2020_wb97xd3_007724_reverse_mol2.chk"
 Charge =  0 Multiplicity = 1

                         Standard orientation:
 ---------------------------------------------------------------------
 Center     Atomic      Atomic             Coordinates (Angstroms)
 Number     Number       Type             X           Y           Z
 ---------------------------------------------------------------------
      1          6           0       -0.406468    2.091749    0.187056
      2          6           0       -1.488210    1.117819   -0.263155
      3          6           0       -0.987444   -0.296001   -0.432782
      4          6           0       -1.927142   -1.449258   -0.281243
      5          6           0       -0.878691   -1.204748    0.764299
      6          8           0        2.311301   -0.132767    0.697611
      7          6           0        2.745026   -0.346253   -0.625760
      8          1           0       -0.795123    3.108726    0.262021
      9          1           0        0.430092    2.109051   -0.515816
     10          1           0       -0.006704    1.817700    1.166051
     11          1           0       -2.308049    1.115308    0.462796
     12          1           0       -1.921174    1.457433   -1.209258
     13          1           0       -0.220236   -0.415360   -1.193099
     14          1           0        1.351046   -0.154674    0.708402
     15          1           0       -1.803576   -2.304135   -0.932575
     16          1           0       -2.955644   -1.225779   -0.026344
     17          1           0       -1.200974   -0.810356    1.720733
     18          1           0       -0.054397   -1.904498    0.826117
     19          1           0        3.834661   -0.350214   -0.613337
     20          1           0        2.412755    0.449248   -1.303924
     21          1           0        2.404490   -1.310168   -1.023143
 ---------------------------------------------------------------------

 SCF Done:  E(RHF) =  -310.553725532     A.U. after    2 cycles

 The electronic state is 1-A.
 Alpha  occ. eigenvalues --  -20.53851 -11.27769 -11.24197 -11.23722 -11.23546
 Alpha  occ. eigenvalues --  -11.23412 -11.22409  -1.44123  -1.16021  -1.03121
 Alpha  occ. eigenvalues --   -0.92429  -0.87767  -0.83108  -0.78399  -0.69396
 Alpha  occ. eigenvalues --   -0.67932  -0.64491  -0.61895  -0.60781  -0.59212
 Alpha  occ. eigenvalues --   -0.56962  -0.53959  -0.52353  -0.50430  -0.49762
 Alpha  occ. eigenvalues --   -0.48679  -0.43678  -0.42988  -0.42035
 Alpha virt. eigenvalues --    0.03227   0.03547   0.03708   0.04258   0.05391
 Alpha virt. eigenvalues --    0.06096   0.06206   0.06488   0.07346   0.08565
 Alpha virt. eigenvalues --    0.08929   0.09830   0.10075   0.11255   0.12574

 Mulliken charges:
               1
     1  C   -0.228075
     2  C   -0.611917
     3  C    0.270460
     4  C    0.419554
     5  C    0.200416
     6  O   -1.177248
     7  C    0.413536
     8  H    0.045589
     9  H    0.142390
    10  H    0.184995
    11  H    0.103232
    12  H    0.145959
    13  H   -0.231966
    14  H    0.633370
    15  H   -0.141061
    16  H   -0.111665
    17  H   -0.081314
    18  H   -0.188376
    19  H   -0.042966
    20  H    0.138408
    21  H    0.116680
 Sum of Mulliken charges =  -0.00000

 Dipole moment (field-independent basis, Debye):
    X=             -1.4065    Y=             -0.1584    Z=             -1.3757  Tot=              1.9738

 Test job not archived.
 1\1\GINC-SE192\SP\RHF\Aug-CC-pVDZ\C6H14O1\OHZDE\09-Apr-2025\0\\#t hf a
 ug-cc-pvdz iop(5/13=1,5/36=2,99/5=2) pseudo=read geom=check guess=(rea
 d,tcheck) scf=(maxcycle=1)\\title\\0,1\C,0,-1.70778564,1.10190508,-0.1
 3237731\C,0,-1.67058162,-0.417597,-0.0269083\C,0,-0.28378095,-0.994091
 58,-0.17812656\C,0,0.05812448,-2.30505591,0.45470045\C,0,0.64588752,-1
 .03943658,1.00690919\O,0,1.75836993,1.83173811,-0.35264212\C,0,2.01948
 824,1.52426965,-1.70256185\H,0,-2.72886119,1.47951781,-0.0566988\H,0,-
 1.29915663,1.44408167,-1.0863684\H,0,-1.12240959,1.57038926,0.66210437

 Normal termination of Gaussian 16 at Wed Apr  9 18:35:06 2025.
