 Gaussian 16, Revision C.01,

 ----------------------------------------------------------------------
 #t hf aug-cc-pvdz symm=none int=(grid=ultrafine) guess=(read,tcheck) s
 table=(opt,rrhf)
 ----------------------------------------------------------------------
 -----
 title
 -----
 Symbolic Z-matrix:
 Charge =  0 Multiplicity = 1

 SCF Done:  E(RHF) =  -288.044281309     A.U. after   14 cycles

 1\1\GINC-SE045\Stability\RHF\Aug-CC-pVDZ\C6H11N1\OHZDE\09-Apr-2025\0\\
 #t hf aug-cc-pvdz symm=none int=(grid=ultrafine) guess=(read,tcheck) s
 table=(opt,rrhf)\\title\\0,1\C,0,-3.20316061,0.25249217,-0.03044493\C,
 0,-1.84333091,-0.41285702,-0.2268482\C,0,-0.81028724,0.08472039,0.7511
 5853\C,0,2.63018441,-0.79169223,-0.12268879\C,0,2.56627987,0.72009926,
 -0.23672983\C,0,0.29195832,0.69254853,0.39450372\N,0,1.27094445,1.3269
 232,0.05431605\H,0,-3.9388323,-0.13854754,-0.73635236\H,0,-3.13014169,
 1.33193725,-0.17490858\H,0,-3.58189784,0.07781233,0.97928231\H,0,-1.95

 Normal termination of Gaussian 16 at Wed Apr  9 17:19:50 2025.
 Gaussian 16:  ES64L-G16RevC.01  3-Jul-2019

 ----------------------------------------------------------------------
 #t hf aug-cc-pvdz iop(5/13=1,5/36=2,99/5=2) pseudo=read geom=check gue
 ss=(read,tcheck) scf=(maxcycle=1)
 ----------------------------------------------------------------------
 -----
 title
 -----
 Structure from the checkpoint file:  "Grambow2020_wb97xd3_006566_reverse_mol2.chk"
 Charge =  0 Multiplicity = 1

                         Standard orientation:
 ---------------------------------------------------------------------
 Center     Atomic      Atomic             Coordinates (Angstroms)
 Number     Number       Type             X           Y           Z
 ---------------------------------------------------------------------
      1          6           0        3.301235   -0.124316   -0.205943
      2          6           0        1.955712    0.593782   -0.271562
      3          6           0        0.939790    0.004211    0.672667
      4          6           0       -2.499560    1.067463    0.033199
      5          6           0       -2.482930   -0.419531   -0.268751
      6          6           0       -0.190151   -0.527051    0.282030
      7          7           0       -1.197197   -1.089746   -0.099815
      8          1           0        4.025478    0.333113   -0.883187
      9          1           0        3.192599   -1.175277   -0.479954
     10          1           0        3.716218   -0.085984    0.803920
     11          1           0        2.098173    1.653228   -0.034894
     12          1           0        1.564604    0.555736   -1.290917
     13          1           0        1.152008   -0.002333    1.736530
     14          1           0       -2.209844    1.264233    1.067063
     15          1           0       -1.810166    1.610804   -0.616151
     16          1           0       -3.194065   -0.951895    0.367432
     17          1           0       -3.502406    1.468379   -0.123084
     18          1           0       -2.796801   -0.609122   -1.297887
 ---------------------------------------------------------------------

 SCF Done:  E(RHF) =  -288.356535538     A.U. after    2 cycles

 The electronic state is 1-A.
 Alpha  occ. eigenvalues --  -15.50953 -11.29737 -11.27333 -11.24054 -11.23105
 Alpha  occ. eigenvalues --  -11.23018 -11.22345  -1.25571  -1.08062  -1.03339
 Alpha  occ. eigenvalues --   -0.97462  -0.89038  -0.83638  -0.70459  -0.67728
 Alpha  occ. eigenvalues --   -0.65041  -0.63469  -0.61655  -0.58483  -0.54670
 Alpha  occ. eigenvalues --   -0.53667  -0.53075  -0.51352  -0.50282  -0.49204
 Alpha  occ. eigenvalues --   -0.44672  -0.34035
 Alpha virt. eigenvalues --    0.03651   0.03911   0.04016   0.04180   0.05006
 Alpha virt. eigenvalues --    0.05415   0.05739   0.07274   0.07600   0.08591
 Alpha virt. eigenvalues --    0.08896   0.10819   0.12299   0.12809   0.13392

 Mulliken charges:
               1
     1  C   -0.422680
     2  C   -0.622313
     3  C    1.485156
     4  C   -0.314823
     5  C   -0.416367
     6  C   -2.178189
     7  N    1.123967
     8  H    0.109293
     9  H    0.180733
    10  H    0.181609
    11  H    0.207272
    12  H    0.112751
    13  H   -0.152735
    14  H    0.197896
    15  H    0.195765
    16  H    0.108101
    17  H    0.099475
    18  H    0.105090
 Sum of Mulliken charges =   0.00000

 Dipole moment (field-independent basis, Debye):
    X=             -0.1477    Y=              1.8442    Z=              0.1832  Tot=              1.8592

 Test job not archived.
 1\1\GINC-SE045\SP\RHF\Aug-CC-pVDZ\C6H11N1\OHZDE\09-Apr-2025\0\\#t hf a
 ug-cc-pvdz iop(5/13=1,5/36=2,99/5=2) pseudo=read geom=check guess=(rea
 d,tcheck) scf=(maxcycle=1)\\title\\0,1\C,0,-3.20316061,0.25249217,-0.0
 3044493\C,0,-1.84333091,-0.41285702,-0.2268482\C,0,-0.81028724,0.08472
 039,0.75115853\C,0,2.63018441,-0.79169223,-0.12268879\C,0,2.56627987,0
 .72009926,-0.23672983\C,0,0.29195832,0.69254853,0.39450372\N,0,1.27094
 445,1.3269232,0.05431605\H,0,-3.9388323,-0.13854754,-0.73635236\H,0,-3
 .13014169,1.33193725,-0.17490858\H,0,-3.58189784,0.07781233,0.97928231

 Normal termination of Gaussian 16 at Wed Apr  9 17:19:58 2025.
