 Gaussian 16, Revision C.01,

 ----------------------------------------------------------------------
 #t hf aug-cc-pvdz symm=none int=(grid=ultrafine) guess=(read,tcheck) s
 table=(opt,rrhf)
 ----------------------------------------------------------------------
 -----
 title
 -----
 Symbolic Z-matrix:
 Charge =  0 Multiplicity = 1

 SCF Done:  E(RHF) =  -302.741138765     A.U. after   16 cycles
 Normal termination of Gaussian 16 at Wed Apr  9 19:20:07 2025.
 Gaussian 16:  ES64L-G16RevC.01  3-Jul-2019

 ----------------------------------------------------------------------
 #t hf aug-cc-pvdz iop(5/13=1,5/36=2,99/5=2) pseudo=read geom=check gue
 ss=(read,tcheck) scf=(maxcycle=1)
 ----------------------------------------------------------------------
 -----
 title
 -----
 Structure from the checkpoint file:  "Grambow2020_wb97xd3_009338_forward_mol1.chk"
 Charge =  0 Multiplicity = 1

                         Standard orientation:
 ---------------------------------------------------------------------
 Center     Atomic      Atomic             Coordinates (Angstroms)
 Number     Number       Type             X           Y           Z
 ---------------------------------------------------------------------
      1          6           0       -2.697572   -0.674956    0.403939
      2          7           0       -1.038173   -0.008830   -0.433638
      3          6           0        0.045917   -0.846219   -0.378856
      4          6           0        1.117174   -0.099324   -0.009205
      5          6           0        2.526051   -0.538803    0.211670
      6          6           0        0.577307    1.217698    0.131024
      7          7           0       -0.702096    1.266355   -0.126407
      8          1           0       -1.956593   -0.229645   -0.911234
      9          1           0       -2.821779    0.228823    1.012603
     10          1           0       -2.189979   -1.411377    1.040502
     11          1           0       -0.054401   -1.897528   -0.599151
     12          1           0        3.211129   -0.024232   -0.464423
     13          1           0        2.630407   -1.610465    0.042389
     14          1           0        2.848787   -0.328308    1.233033
     15          1           0        1.101048    2.119680    0.415168
 ---------------------------------------------------------------------

 SCF Done:  E(RHF) =  -303.056300512     A.U. after    2 cycles

 The electronic state is 1-A.
 Alpha  occ. eigenvalues --  -15.58503 -15.53950 -11.28801 -11.27491 -11.26703
 Alpha  occ. eigenvalues --  -11.24969 -11.24869  -1.38346  -1.13714  -1.09978
 Alpha  occ. eigenvalues --   -0.98055  -0.90950  -0.83246  -0.82265  -0.76562
 Alpha  occ. eigenvalues --   -0.67172  -0.64601  -0.61000  -0.59376  -0.58662
 Alpha  occ. eigenvalues --   -0.56499  -0.55449  -0.50488  -0.41592  -0.37359
 Alpha  occ. eigenvalues --   -0.37235
 Alpha virt. eigenvalues --    0.03186   0.03646   0.03987   0.04690   0.04739
 Alpha virt. eigenvalues --    0.06275   0.06869   0.07810   0.08550   0.09523
 Alpha virt. eigenvalues --    0.10649   0.11924   0.12737   0.13610   0.13835

 Mulliken charges:
               1
     1  C   -0.450921
     2  N    0.139764
     3  C   -0.155847
     4  C    0.781226
     5  C   -0.523543
     6  C   -0.577504
     7  N    0.073881
     8  H    0.407756
     9  H    0.101376
    10  H    0.132150
    11  H   -0.289228
    12  H    0.240644
    13  H    0.117596
    14  H    0.239787
    15  H   -0.237138
 Sum of Mulliken charges =  -0.00000

 Dipole moment (field-independent basis, Debye):
    X=              3.5026    Y=             -1.5635    Z=              0.7358  Tot=              3.9056

 Test job not archived.
 1\1\GINC-SE018\SP\RHF\Aug-CC-pVDZ\C5H8N2\OHZDE\09-Apr-2025\0\\#t hf au
 g-cc-pvdz iop(5/13=1,5/36=2,99/5=2) pseudo=read geom=check guess=(read
 ,tcheck) scf=(maxcycle=1)\\title\\0,1\C,0,-2.86878245,-0.5273825,-0.00
 546188\N,0,-1.16668933,0.30928254,-0.55476471\C,0,-0.07931735,-0.52241
 196,-0.62811147\C,0,0.9580988,0.11207755,-0.02538843\C,0,2.35470722,-0
 .37325569,0.17660422\C,0,0.39621884,1.36180642,0.38465188\N,0,-0.86464
 053,1.47523712,0.06390544\H,0,-2.05038874,0.21082536,-1.12898875\H,0,-
 3.04124824,0.20885775,0.78884381\H,0,-2.39484886,-1.39488817,0.4720307

 Normal termination of Gaussian 16 at Wed Apr  9 19:20:12 2025.
