 Gaussian 16, Revision C.01,

 ----------------------------------------------------------------------
 #t hf aug-cc-pvdz symm=none int=(grid=ultrafine) guess=(read,tcheck) s
 table=(opt,rrhf)
 ----------------------------------------------------------------------
 -----
 title
 -----
 Symbolic Z-matrix:
 Charge =  0 Multiplicity = 1

 SCF Done:  E(RHF) =  -323.690871792     A.U. after   16 cycles
 Normal termination of Gaussian 16 at Wed Apr  9 03:33:03 2025.
 Gaussian 16:  ES64L-G16RevC.01  3-Jul-2019

 ----------------------------------------------------------------------
 #t hf aug-cc-pvdz iop(5/13=1,5/36=2,99/5=2) pseudo=read geom=check gue
 ss=(read,tcheck) scf=(maxcycle=1)
 ----------------------------------------------------------------------
 -----
 title
 -----
 Structure from the checkpoint file:  "Grambow2020_wb97xd3_006969_reverse_mol1.chk"
 Charge =  0 Multiplicity = 1

                         Standard orientation:
 ---------------------------------------------------------------------
 Center     Atomic      Atomic             Coordinates (Angstroms)
 Number     Number       Type             X           Y           Z
 ---------------------------------------------------------------------
      1          6           0       -2.883618   -0.089864   -0.219766
      2          6           0       -1.647717   -0.635986    0.507003
      3          6           0       -0.346137   -0.495702   -0.217664
      4          8           0       -0.088565    1.047625   -0.502819
      5          6           0        1.139866    0.663697    0.602017
      6          6           0        2.204934   -0.150008    0.079812
      7          7           0        3.107570   -0.728080   -0.336084
      8          1           0       -3.023369   -0.594967   -1.176950
      9          1           0       -3.785981   -0.231423    0.377562
     10          1           0       -2.810267    0.982333   -0.428592
     11          1           0       -1.776019   -1.709125    0.678115
     12          1           0       -1.585667   -0.187865    1.509182
     13          1           0       -0.381578   -0.925880   -1.221114
     14          1           0       -0.782160    1.593390   -0.103584
     15          1           0        0.816787    0.323144    1.578609
     16          1           0        1.479813    1.713125    0.653507
 ---------------------------------------------------------------------

 SCF Done:  E(RHF) =  -324.025988911     A.U. after    2 cycles

 The electronic state is 1-A.
 Alpha  occ. eigenvalues --  -20.62340 -15.51814 -11.39987 -11.29036 -11.23763
 Alpha  occ. eigenvalues --  -11.23676 -11.23311  -1.50077  -1.24003  -1.05715
 Alpha  occ. eigenvalues --   -1.05144  -0.91336  -0.81471  -0.74323  -0.72954
 Alpha  occ. eigenvalues --   -0.68478  -0.63500  -0.61167  -0.60300  -0.57590
 Alpha  occ. eigenvalues --   -0.56350  -0.54060  -0.51029  -0.50092  -0.49465
 Alpha  occ. eigenvalues --   -0.48601  -0.29234
 Alpha virt. eigenvalues --    0.02268   0.03072   0.03523   0.04492   0.05703
 Alpha virt. eigenvalues --    0.05960   0.07079   0.07446   0.08409   0.09309
 Alpha virt. eigenvalues --    0.09891   0.10936   0.12193   0.13283   0.14237

 Mulliken charges:
               1
     1  C   -0.346061
     2  C   -0.491912
     3  C    0.522969
     4  O   -1.221784
     5  C    0.827629
     6  C   -1.435546
     7  N    0.908950
     8  H    0.152048
     9  H    0.115321
    10  H    0.084921
    11  H    0.205485
    12  H    0.044486
    13  H   -0.173765
    14  H    0.495789
    15  H    0.318311
    16  H   -0.006841
 Sum of Mulliken charges =  -0.00000

 Dipole moment (field-independent basis, Debye):
    X=             -4.1556    Y=              3.5316    Z=              2.5330  Tot=              6.0131

 Test job not archived.
 1\1\GINC-SE159\SP\RHF\Aug-CC-pVDZ\C5H9N1O1\OHZDE\09-Apr-2025\0\\#t hf
 aug-cc-pvdz iop(5/13=1,5/36=2,99/5=2) pseudo=read geom=check guess=(re
 ad,tcheck) scf=(maxcycle=1)\\title\\0,1\C,0,2.24503769,-0.34306568,-0.
 01479756\C,0,1.0260159,0.23274489,0.71754197\C,0,-0.11485726,0.6651413
 5,-0.14869904\O,0,-0.61329277,-0.58722838,-0.99288264\C,0,-1.92937218,
 -0.28291402,0.03299908\C,0,-2.69282431,0.8957507,-0.27856882\N,0,-3.36
 699131,1.78426677,-0.55772202\H,0,2.66200005,0.39061751,-0.70668771\H,
 0,3.02662816,-0.63291872,0.68961821\H,0,2.00233142,-1.23624534,-0.5995

 Normal termination of Gaussian 16 at Wed Apr  9 03:33:09 2025.
