 Gaussian 16, Revision C.01,

 ----------------------------------------------------------------------
 #t hf aug-cc-pvdz symm=none int=(grid=ultrafine) guess=(read,tcheck) s
 table=(opt,rrhf)
 ----------------------------------------------------------------------
 -----
 title
 -----
 Symbolic Z-matrix:
 Charge =  0 Multiplicity = 1

 SCF Done:  E(RHF) =  -231.661912106     A.U. after   15 cycles
 Normal termination of Gaussian 16 at Wed Apr  9 15:51:54 2025.
 Gaussian 16:  ES64L-G16RevC.01  3-Jul-2019

 ----------------------------------------------------------------------
 #t hf aug-cc-pvdz iop(5/13=1,5/36=2,99/5=2) pseudo=read geom=check gue
 ss=(read,tcheck) scf=(maxcycle=1)
 ----------------------------------------------------------------------
 -----
 title
 -----
 Structure from the checkpoint file:  "Grambow2020_b97d3_006869_reverse_mol1.chk"
 Charge =  0 Multiplicity = 1

                         Standard orientation:
 ---------------------------------------------------------------------
 Center     Atomic      Atomic             Coordinates (Angstroms)
 Number     Number       Type             X           Y           Z
 ---------------------------------------------------------------------
      1          6           0        1.228148   -0.690982   -0.214109
      2          6           0        0.763641    0.718719   -0.474250
      3          6           0       -0.777963    0.702380   -0.476112
      4          6           0       -1.212829   -0.716874   -0.213598
      5          6           0        0.014740   -1.089697    0.676341
      6          6           0       -0.012874    1.003105    0.788818
      7          1           0        2.167693   -0.743278    0.353399
      8          1           0        1.297856   -1.357298   -1.087768
      9          1           0        1.301884    1.496960   -1.020311
     10          1           0       -1.331386    1.467473   -1.025857
     11          1           0       -2.150713   -0.785289    0.356340
     12          1           0       -1.276524   -1.384237   -1.086936
     13          1           0       -0.002422   -0.126373    1.541733
     14          1           0       -0.023567    1.872144    1.446857
 ---------------------------------------------------------------------

 SCF Done:  E(RHF) =  -231.908768978     A.U. after    2 cycles

 The electronic state is 1-A.
 Alpha  occ. eigenvalues --  -11.28474 -11.25627 -11.25596 -11.25179 -11.23649
 Alpha  occ. eigenvalues --  -11.23611  -1.22278  -0.98813  -0.97466  -0.86298
 Alpha  occ. eigenvalues --   -0.76269  -0.74228  -0.66269  -0.63687  -0.60079
 Alpha  occ. eigenvalues --   -0.59246  -0.53427  -0.50962  -0.47206  -0.42869
 Alpha  occ. eigenvalues --   -0.42103  -0.30986
 Alpha virt. eigenvalues --    0.02986   0.03520   0.03763   0.04643   0.05983
 Alpha virt. eigenvalues --    0.06095   0.06908   0.07532   0.09177   0.10469
 Alpha virt. eigenvalues --    0.12120   0.12129   0.14090   0.14685   0.14943

 Mulliken charges:
               1
     1  C   -0.160723
     2  C    0.370899
     3  C    0.370573
     4  C   -0.161387
     5  C   -0.698652
     6  C   -0.114350
     7  H    0.098123
     8  H    0.118631
     9  H   -0.152307
    10  H   -0.151812
    11  H    0.099869
    12  H    0.112567
    13  H    0.532074
    14  H   -0.263502
 Sum of Mulliken charges =   0.00000

 Dipole moment (field-independent basis, Debye):
    X=             -0.0296    Y=              2.4152    Z=             -1.2590  Tot=              2.7238

 Test job not archived.
 1\1\GINC-SE113\SP\RHF\Aug-CC-pVDZ\C6H8\OHZDE\09-Apr-2025\0\\#t hf aug-
 cc-pvdz iop(5/13=1,5/36=2,99/5=2) pseudo=read geom=check guess=(read,t
 check) scf=(maxcycle=1)\\title\\0,1\C,0,-1.18302371,-0.26122552,0.7624
 9602\C,0,-0.48434289,0.97896531,0.26805711\C,0,0.96199565,0.58137695,-
 0.08809321\C,0,1.10600367,-0.89208917,0.19556829\C,0,-0.37823869,-1.25
 448254,-0.12632109\C,0,-0.12178475,0.56356017,-1.13735474\H,0,-2.25310
 494,-0.28784161,0.51397877\H,0,-1.05461028,-0.5092344,1.82744538\H,0,-
 0.71658406,2.01304979,0.53316039\H,0,1.75451173,1.33339853,-0.07245203

 Normal termination of Gaussian 16 at Wed Apr  9 15:51:58 2025.
