 Gaussian 16, Revision C.01,

 ----------------------------------------------------------------------
 #t hf aug-cc-pvdz symm=none int=(grid=ultrafine) guess=(read,tcheck) s
 table=(opt,rrhf)
 ----------------------------------------------------------------------
 -----
 title
 -----
 Symbolic Z-matrix:
 Charge =  0 Multiplicity = 1

 SCF Done:  E(RHF) =  -323.724562813     A.U. after   17 cycles
 Normal termination of Gaussian 16 at Wed Apr  9 17:49:08 2025.
 Gaussian 16:  ES64L-G16RevC.01  3-Jul-2019

 ----------------------------------------------------------------------
 #t hf aug-cc-pvdz iop(5/13=1,5/36=2,99/5=2) pseudo=read geom=check gue
 ss=(read,tcheck) scf=(maxcycle=1)
 ----------------------------------------------------------------------
 -----
 title
 -----
 Structure from the checkpoint file:  "Grambow2020_wb97xd3_006833_reverse_mol2.chk"
 Charge =  0 Multiplicity = 1

                         Standard orientation:
 ---------------------------------------------------------------------
 Center     Atomic      Atomic             Coordinates (Angstroms)
 Number     Number       Type             X           Y           Z
 ---------------------------------------------------------------------
      1          6           0       -2.197445   -0.804384    0.319540
      2          6           0       -1.359312    0.295838   -0.274255
      3          6           0       -0.382340    1.016265    0.574468
      4          6           0        0.588601    1.494850   -0.445119
      5          6           0        0.113138    0.082211   -0.506758
      6          7           0        0.801178   -1.095689   -0.181951
      7          8           0        2.003689   -1.024092   -0.266733
      8          1           0       -3.090541   -0.389035    0.788691
      9          1           0       -1.637665   -1.366513    1.067469
     10          1           0       -2.516321   -1.503906   -0.453616
     11          1           0       -1.848542    0.881040   -1.052309
     12          1           0       -0.197063    0.860564    1.626175
     13          1           0        2.622964    0.771740    2.659523
     14          1           0        1.611456    1.638139   -0.116523
     15          1           0        0.249170    2.180063   -1.217486
     16          1           0        2.592919    0.281783    2.098338
 ---------------------------------------------------------------------

 SCF Done:  E(RHF) =  -324.059660070     A.U. after    2 cycles

 The electronic state is 1-A.
 Alpha  occ. eigenvalues --  -20.59287 -15.63718 -11.28202 -11.28130 -11.28031
 Alpha  occ. eigenvalues --  -11.27314 -11.24300  -1.57968  -1.26825  -1.05612
 Alpha  occ. eigenvalues --   -1.03337  -0.90621  -0.81996  -0.78708  -0.72580
 Alpha  occ. eigenvalues --   -0.69398  -0.63780  -0.63478  -0.60747  -0.59393
 Alpha  occ. eigenvalues --   -0.58606  -0.54737  -0.53888  -0.53152  -0.45869
 Alpha  occ. eigenvalues --   -0.41062  -0.37788
 Alpha virt. eigenvalues --    0.03331   0.03642   0.03929   0.04933   0.05805
 Alpha virt. eigenvalues --    0.05819   0.06816   0.07511   0.08559   0.08941
 Alpha virt. eigenvalues --    0.10016   0.11408   0.12798   0.13079   0.14196

 Mulliken charges:
               1
     1  C   -0.416711
     2  C   -0.118463
     3  C    0.500181
     4  C    0.180581
     5  C   -0.723440
     6  N    1.574151
     7  O   -1.171128
     8  H    0.222663
     9  H    0.188608
    10  H    0.233961
    11  H   -0.152588
    12  H   -0.175113
    13  H    0.046430
    14  H   -0.058288
    15  H   -0.082667
    16  H   -0.048177
 Sum of Mulliken charges =  -0.00000

 Dipole moment (field-independent basis, Debye):
    X=             -2.1841    Y=              2.1946    Z=              0.4338  Tot=              3.1264

 Test job not archived.
 1\1\GINC-SE174\SP\RHF\Aug-CC-pVDZ\C5H9N1O1\OHZDE\09-Apr-2025\0\\#t hf
 aug-cc-pvdz iop(5/13=1,5/36=2,99/5=2) pseudo=read geom=check guess=(re
 ad,tcheck) scf=(maxcycle=1)\\title\\0,1\C,0,-1.61813895,-1.42319457,-0
 .64415604\C,0,-0.65839612,-0.34683255,-1.07529958\C,0,-0.37809424,0.79
 366477,-0.17279327\C,0,0.96880197,1.21137771,-0.64471859\C,0,0.6967729
 6,-0.23920807,-0.42742747\N,0,1.14892951,-1.07761586,0.60163624\O,0,2.
 18154337,-0.73270972,1.12422139\H,0,-2.64278033,-1.13525808,-0.8838263
 4\H,0,-1.54753598,-1.60798687,0.42804095\H,0,-1.40124813,-2.35956703,-

 Normal termination of Gaussian 16 at Wed Apr  9 17:49:14 2025.
