 Gaussian 16, Revision C.01,

 ----------------------------------------------------------------------
 #t hf aug-cc-pvdz symm=none int=(grid=ultrafine) guess=(read,tcheck) s
 table=(opt,rrhf)
 ----------------------------------------------------------------------
 -----
 title
 -----
 Symbolic Z-matrix:
 Charge =  0 Multiplicity = 1

 SCF Done:  E(RHF) =  -322.664514531     A.U. after   15 cycles
 Normal termination of Gaussian 16 at Wed Apr  9 18:02:38 2025.
 Gaussian 16:  ES64L-G16RevC.01  3-Jul-2019

 ----------------------------------------------------------------------
 #t hf aug-cc-pvdz iop(5/13=1,5/36=2,99/5=2) pseudo=read geom=check gue
 ss=(read,tcheck) scf=(maxcycle=1)
 ----------------------------------------------------------------------
 -----
 title
 -----
 Structure from the checkpoint file:  "Grambow2020_wb97xd3_006947_reverse_mol2.chk"
 Charge =  0 Multiplicity = 1

                         Standard orientation:
 ---------------------------------------------------------------------
 Center     Atomic      Atomic             Coordinates (Angstroms)
 Number     Number       Type             X           Y           Z
 ---------------------------------------------------------------------
      1          8           0        2.891328    0.150948   -0.001313
      2          6           0        2.025785   -0.664986   -0.181628
      3          7           0        0.683707   -0.393127   -0.178044
      4          6           0        0.166802    0.866427    0.048853
      5          6           0       -1.141984    1.137963    0.065243
      6          6           0       -2.126764    0.133819   -0.149282
      7          6           0       -2.929152   -0.742093   -0.328269
      8          1           0        2.232600   -1.731377   -0.370983
      9          1           0        0.035803   -1.150331   -0.331190
     10          1           0        0.916221    1.627738    0.215792
     11          1           0       -0.726577   -1.162409    2.904228
     12          1           0       -1.215843   -1.076292    2.347979
     13          1           0       -1.469158    2.151403    0.250823
     14          1           0       -3.657755   -1.501196   -0.489335
 ---------------------------------------------------------------------

 SCF Done:  E(RHF) =  -322.996283878     A.U. after    2 cycles

 The electronic state is 1-A.
 Alpha  occ. eigenvalues --  -20.53748 -15.56065 -11.37983 -11.31076 -11.26292
 Alpha  occ. eigenvalues --  -11.26049 -11.25043  -1.48830  -1.28563  -1.10121
 Alpha  occ. eigenvalues --   -1.02680  -0.91862  -0.85963  -0.78441  -0.73938
 Alpha  occ. eigenvalues --   -0.71421  -0.65259  -0.64281  -0.63445  -0.60043
 Alpha  occ. eigenvalues --   -0.59229  -0.51187  -0.45622  -0.45219  -0.42150
 Alpha  occ. eigenvalues --   -0.34188
 Alpha virt. eigenvalues --    0.02973   0.03754   0.03992   0.05882   0.06134
 Alpha virt. eigenvalues --    0.06878   0.07553   0.08658   0.09485   0.10159
 Alpha virt. eigenvalues --    0.11283   0.11957   0.12829   0.13273   0.14490

 Mulliken charges:
               1
     1  O   -1.101721
     2  C    0.633825
     3  N    0.937647
     4  C   -0.728213
     5  C    0.842681
     6  C   -0.172583
     7  C    0.287833
     8  H    0.080904
     9  H    0.076786
    10  H   -0.253216
    11  H    0.084761
    12  H   -0.080649
    13  H   -0.221620
    14  H   -0.386435
 Sum of Mulliken charges =   0.00000

 Dipole moment (field-independent basis, Debye):
    X=             -1.9654    Y=             -1.8453    Z=             -0.4289  Tot=              2.7298

 Test job not archived.
 1\1\GINC-SE232\SP\RHF\Aug-CC-pVDZ\C5H7N1O1\OHZDE\09-Apr-2025\0\\#t hf
 aug-cc-pvdz iop(5/13=1,5/36=2,99/5=2) pseudo=read geom=check guess=(re
 ad,tcheck) scf=(maxcycle=1)\\title\\0,1\O,0,-3.17587906,-0.30910029,-0
 .10422566\C,0,-2.36485197,0.44879693,0.35972749\N,0,-1.0154462,0.38013
 547,0.13727936\C,0,-0.42572321,-0.59022193,-0.64743864\C,0,0.89149103,
 -0.67096706,-0.86039249\C,0,1.81006683,0.2493142,-0.28296784\C,0,2.555
 55574,1.04115371,0.22724911\H,0,-2.63402764,1.28849095,1.02175175\H,0,
 -0.41642577,1.05950305,0.58025275\H,0,-1.12460743,-1.29134241,-1.08227

 Normal termination of Gaussian 16 at Wed Apr  9 18:02:43 2025.
