 Gaussian 16, Revision C.01,

 ----------------------------------------------------------------------
 #t hf aug-cc-pvdz symm=none int=(grid=ultrafine) guess=(read,tcheck) s
 table=(opt,rrhf)
 ----------------------------------------------------------------------
 -----
 title
 -----
 Symbolic Z-matrix:
 Charge =  0 Multiplicity = 1

 SCF Done:  E(RHF) =  -360.904543538     A.U. after   13 cycles
 Normal termination of Gaussian 16 at Wed Apr  9 17:31:39 2025.
 Gaussian 16:  ES64L-G16RevC.01  3-Jul-2019

 ----------------------------------------------------------------------
 #t hf aug-cc-pvdz iop(5/13=1,5/36=2,99/5=2) pseudo=read geom=check gue
 ss=(read,tcheck) scf=(maxcycle=1)
 ----------------------------------------------------------------------
 -----
 title
 -----
 Structure from the checkpoint file:  "Grambow2020_wb97xd3_006618_reverse_mol2.chk"
 Charge =  0 Multiplicity = 1

                         Standard orientation:
 ---------------------------------------------------------------------
 Center     Atomic      Atomic             Coordinates (Angstroms)
 Number     Number       Type             X           Y           Z
 ---------------------------------------------------------------------
      1          6           0       -1.288592    1.517464    0.364581
      2          6           0       -1.886639    0.258331   -0.196282
      3          8           0        2.264714    0.544180   -0.809417
      4          6           0       -1.625041   -1.065251    0.402023
      5          7           0       -0.971151   -0.675633   -0.848982
      6          6           0        1.865772   -0.461185   -0.026814
      7          8           0        1.654757   -0.361958    1.148300
      8          1           0       -1.972454    1.984390    1.076632
      9          1           0       -1.082411    2.236712   -0.431298
     10          1           0       -0.355259    1.294546    0.883229
     11          1           0       -2.859125    0.380624   -0.666453
     12          1           0        2.310222    1.337026   -0.258546
     13          1           0       -0.953389   -1.136688    1.250316
     14          1           0       -2.407939   -1.814389    0.364314
     15          1           0       -1.415430   -1.121325   -1.641141
     16          1           0        1.785073   -1.385396   -0.606295
 ---------------------------------------------------------------------

 SCF Done:  E(RHF) =  -361.279265905     A.U. after    2 cycles

 The electronic state is 1-A.
 Alpha  occ. eigenvalues --  -20.59952 -20.53523 -15.49712 -11.38952 -11.26445
 Alpha  occ. eigenvalues --  -11.25542 -11.22274  -1.54955  -1.45293  -1.26656
 Alpha  occ. eigenvalues --   -0.99388  -0.89230  -0.88538  -0.80291  -0.73119
 Alpha  occ. eigenvalues --   -0.71608  -0.70184  -0.63564  -0.61813  -0.58512
 Alpha  occ. eigenvalues --   -0.58324  -0.56752  -0.51839  -0.49850  -0.48422
 Alpha  occ. eigenvalues --   -0.47004  -0.44773  -0.41775
 Alpha virt. eigenvalues --    0.03432   0.04164   0.04461   0.04742   0.05400
 Alpha virt. eigenvalues --    0.06113   0.06576   0.07520   0.09209   0.10933
 Alpha virt. eigenvalues --    0.11692   0.13763   0.13925   0.14288   0.14813

 Mulliken charges:
               1
     1  C   -0.437164
     2  C   -0.732153
     3  O   -0.965886
     4  C    0.403046
     5  N    0.516253
     6  C    1.562285
     7  O   -0.963604
     8  H    0.215279
     9  H    0.235127
    10  H    0.060066
    11  H   -0.178520
    12  H    0.290155
    13  H   -0.100815
    14  H   -0.090753
    15  H    0.094314
    16  H    0.092369
 Sum of Mulliken charges =   0.00000

 Dipole moment (field-independent basis, Debye):
    X=             -1.7362    Y=              0.2397    Z=             -1.1763  Tot=              2.1108

 Test job not archived.
 1\1\GINC-SE029\SP\RHF\Aug-CC-pVDZ\C4H9N1O2\OHZDE\09-Apr-2025\0\\#t hf
 aug-cc-pvdz iop(5/13=1,5/36=2,99/5=2) pseudo=read geom=check guess=(re
 ad,tcheck) scf=(maxcycle=1)\\title\\0,1\C,0,-1.54309119,-0.60693003,-0
 .37753345\C,0,-0.45088682,-1.3672054,0.32011569\O,0,0.95918592,1.93496
 566,-1.8704868\C,0,0.27574479,-0.80728714,1.47630358\N,0,0.91229144,-0
 .86506865,0.15878497\C,0,1.13716136,2.00172671,-0.54902917\O,0,0.31226
 777,2.39350717,0.22642249\H,0,-2.51876742,-0.86495309,0.03982041\H,0,-
 1.55687197,-0.83975013,-1.44470553\H,0,-1.39311286,0.46674257,-0.25699

 Normal termination of Gaussian 16 at Wed Apr  9 17:31:45 2025.
