 Gaussian 16, Revision C.01,

 ----------------------------------------------------------------------
 #t hf aug-cc-pvdz symm=none int=(grid=ultrafine) guess=(read,tcheck) s
 table=(opt,rrhf)
 ----------------------------------------------------------------------
 -----
 title
 -----
 Symbolic Z-matrix:
 Charge =  0 Multiplicity = 1

 SCF Done:  E(RHF) =  -289.235198789     A.U. after   13 cycles

 1\1\GINC-SE096\Stability\RHF\Aug-CC-pVDZ\C6H13N1\OHZDE\09-Apr-2025\0\\
 #t hf aug-cc-pvdz symm=none int=(grid=ultrafine) guess=(read,tcheck) s
 table=(opt,rrhf)\\title\\0,1\C,0,-0.7185628,2.01752894,1.15723577\C,0,
 -1.44225766,0.70953449,0.97948263\N,0,-1.13530661,-0.36646419,0.400578
 64\C,0,-0.00418093,-2.03927303,-0.87136412\C,0,0.12869501,-0.62183434,
 -0.30647191\C,0,1.31752718,-0.59574242,0.65955294\C,0,0.3268443,0.3454
 1696,-1.47850634\H,0,-1.28738009,2.80766684,0.65951863\H,0,-0.69805104
 ,2.26796943,2.22072189\H,0,0.29732318,2.03245405,0.77708008\H,0,-2.431

 Normal termination of Gaussian 16 at Wed Apr  9 04:05:17 2025.
 Gaussian 16:  ES64L-G16RevC.01  3-Jul-2019

 ----------------------------------------------------------------------
 #t hf aug-cc-pvdz iop(5/13=1,5/36=2,99/5=2) pseudo=read geom=check gue
 ss=(read,tcheck) scf=(maxcycle=1)
 ----------------------------------------------------------------------
 -----
 title
 -----
 Structure from the checkpoint file:  "Grambow2020_wb97xd3_009132_reverse_mol2.chk"
 Charge =  0 Multiplicity = 1

                         Standard orientation:
 ---------------------------------------------------------------------
 Center     Atomic      Atomic             Coordinates (Angstroms)
 Number     Number       Type             X           Y           Z
 ---------------------------------------------------------------------
      1          6           0        2.384940   -0.379342    0.007384
      2          6           0        1.535326    0.863143   -0.016445
      3          7           0        0.289109    1.047667   -0.020300
      4          6           0       -2.073758    0.715235   -0.064152
      5          6           0       -0.728414   -0.013951    0.000878
      6          6           0       -0.671593   -0.808107    1.309807
      7          6           0       -0.618077   -0.927987   -1.224221
      8          1           0        2.972181   -0.424735   -0.913854
      9          1           0        3.098884   -0.303083    0.831163
     10          1           0        1.833243   -1.307652    0.110516
     11          1           0        2.132638    1.780769   -0.037729
     12          1           0       -2.907398    0.009090   -0.046360
     13          1           0       -2.173628    1.397486    0.781326
     14          1           0       -2.136351    1.308394   -0.977855
     15          1           0        0.233531   -1.408048    1.400444
     16          1           0       -0.711974   -0.126276    2.161370
     17          1           0       -1.527859   -1.482638    1.376356
     18          1           0       -0.603288   -0.328771   -2.136829
     19          1           0       -1.481977   -1.594418   -1.272502
     20          1           0        0.277691   -1.547732   -1.213451
 ---------------------------------------------------------------------

 SCF Done:  E(RHF) =  -289.551833011     A.U. after    2 cycles

 The electronic state is 1-A.
 Alpha  occ. eigenvalues --  -15.48089 -11.27909 -11.26263 -11.24127 -11.22082
 Alpha  occ. eigenvalues --  -11.22056 -11.20902  -1.22570  -1.07668  -0.99717
 Alpha  occ. eigenvalues --   -0.93973  -0.92905  -0.83991  -0.72143  -0.66336
 Alpha  occ. eigenvalues --   -0.64233  -0.61535  -0.59520  -0.59070  -0.56292
 Alpha  occ. eigenvalues --   -0.55138  -0.54949  -0.52377  -0.51632  -0.49124
 Alpha  occ. eigenvalues --   -0.46956  -0.42463  -0.40559
 Alpha virt. eigenvalues --    0.03599   0.03931   0.03995   0.04348   0.05510
 Alpha virt. eigenvalues --    0.05564   0.05884   0.06358   0.06828   0.09223
 Alpha virt. eigenvalues --    0.09450   0.09946   0.10037   0.11854   0.12391

 Mulliken charges:
               1
     1  C   -0.189099
     2  C   -0.802459
     3  N    1.824375
     4  C    0.415298
     5  C   -4.122318
     6  C    0.358147
     7  C    0.371937
     8  H    0.206800
     9  H    0.149130
    10  H    0.147455
    11  H   -0.139227
    12  H    0.220397
    13  H    0.204428
    14  H    0.202588
    15  H    0.139108
    16  H    0.205177
    17  H    0.230858
    18  H    0.208735
    19  H    0.222853
    20  H    0.145817
 Sum of Mulliken charges =  -0.00000

 Dipole moment (field-independent basis, Debye):
    X=              1.5228    Y=             -1.8031    Z=              0.0300  Tot=              2.3603

 Test job not archived.
 1\1\GINC-SE096\SP\RHF\Aug-CC-pVDZ\C6H13N1\OHZDE\09-Apr-2025\0\\#t hf a
 ug-cc-pvdz iop(5/13=1,5/36=2,99/5=2) pseudo=read geom=check guess=(rea
 d,tcheck) scf=(maxcycle=1)\\title\\0,1\C,0,-0.7185628,2.01752894,1.157
 23577\C,0,-1.44225766,0.70953449,0.97948263\N,0,-1.13530661,-0.3664641
 9,0.40057864\C,0,-0.00418093,-2.03927303,-0.87136412\C,0,0.12869501,-0
 .62183434,-0.30647191\C,0,1.31752718,-0.59574242,0.65955294\C,0,0.3268
 443,0.34541696,-1.47850634\H,0,-1.28738009,2.80766684,0.65951863\H,0,-
 0.69805104,2.26796943,2.22072189\H,0,0.29732318,2.03245405,0.77708008\

 Normal termination of Gaussian 16 at Wed Apr  9 04:05:26 2025.
