 Gaussian 16, Revision C.01,

 ----------------------------------------------------------------------
 #t hf aug-cc-pvdz symm=none int=(grid=ultrafine) guess=(read,tcheck) s
 table=(opt,rrhf)
 ----------------------------------------------------------------------
 -----
 title
 -----
 Symbolic Z-matrix:
 Charge =  0 Multiplicity = 1

 SCF Done:  E(RHF) =  -302.614084683     A.U. after   16 cycles
 Normal termination of Gaussian 16 at Wed Apr  9 19:18:08 2025.
 Gaussian 16:  ES64L-G16RevC.01  3-Jul-2019

 ----------------------------------------------------------------------
 #t hf aug-cc-pvdz iop(5/13=1,5/36=2,99/5=2) pseudo=read geom=check gue
 ss=(read,tcheck) scf=(maxcycle=1)
 ----------------------------------------------------------------------
 -----
 title
 -----
 Structure from the checkpoint file:  "Grambow2020_wb97xd3_009071_forward_mol1.chk"
 Charge =  0 Multiplicity = 1

                         Standard orientation:
 ---------------------------------------------------------------------
 Center     Atomic      Atomic             Coordinates (Angstroms)
 Number     Number       Type             X           Y           Z
 ---------------------------------------------------------------------
      1          6           0       -2.292137   -0.360588    0.178678
      2          7           0       -0.913463    0.006686   -0.067573
      3          6           0       -0.392508    1.326009    0.272310
      4          6           0        0.889018    1.205612   -0.294094
      5          6           0        1.121433   -0.138107   -0.576861
      6          6           0        1.895415   -0.824840    0.397836
      7          7           0       -0.111223   -0.815369   -0.584333
      8          1           0       -2.563689    0.014244    1.162674
      9          1           0       -2.386694   -1.442080    0.119754
     10          1           0       -2.924734    0.121428   -0.565757
     11          1           0        0.358883    0.434902    1.443812
     12          1           0        1.674545    1.929716   -0.131327
     13          1           0        0.997250   -0.390038    1.458993
     14          1           0        2.787736   -0.346620    0.788500
     15          1           0        1.902176   -1.909297    0.419480
 ---------------------------------------------------------------------

 SCF Done:  E(RHF) =  -302.931674707     A.U. after    2 cycles

 The electronic state is 1-A.
 Alpha  occ. eigenvalues --  -15.63883 -15.59749 -11.30891 -11.29213 -11.26572
 Alpha  occ. eigenvalues --  -11.23988 -11.22929  -1.44536  -1.17005  -1.09312
 Alpha  occ. eigenvalues --   -1.03091  -0.91803  -0.85681  -0.76988  -0.73073
 Alpha  occ. eigenvalues --   -0.72856  -0.63378  -0.62415  -0.61354  -0.59671
 Alpha  occ. eigenvalues --   -0.56913  -0.53590  -0.51971  -0.40854  -0.36065
 Alpha  occ. eigenvalues --   -0.33729
 Alpha virt. eigenvalues --    0.01810   0.03709   0.04229   0.04339   0.05117
 Alpha virt. eigenvalues --    0.05778   0.06289   0.06903   0.08323   0.08800
 Alpha virt. eigenvalues --    0.09511   0.11854   0.12757   0.13079   0.14187

 Mulliken charges:
               1
     1  C   -0.151311
     2  N    0.349808
     3  C   -1.009690
     4  C    0.790967
     5  C   -1.109331
     6  C   -0.204773
     7  N    0.190300
     8  H    0.175940
     9  H    0.075217
    10  H    0.245404
    11  H    0.380602
    12  H   -0.088684
    13  H    0.274865
    14  H    0.041241
    15  H    0.039445
 Sum of Mulliken charges =  -0.00000

 Dipole moment (field-independent basis, Debye):
    X=              0.7065    Y=             -2.5207    Z=              1.0183  Tot=              2.8089

 Test job not archived.
 1\1\GINC-SE054\SP\RHF\Aug-CC-pVDZ\C5H8N2\OHZDE\09-Apr-2025\0\\#t hf au
 g-cc-pvdz iop(5/13=1,5/36=2,99/5=2) pseudo=read geom=check guess=(read
 ,tcheck) scf=(maxcycle=1)\\title\\0,1\C,0,2.23065984,-0.61490225,-0.07
 946031\N,0,0.92968881,-0.07757301,0.25968831\C,0,0.59779593,1.32846157
 ,0.05858819\C,0,-0.66854691,1.34192295,0.66999103\C,0,-1.0868629,0.025
 30125,0.84627152\C,0,-1.98449513,-0.45076702,-0.1478602\N,0,0.03234087
 ,-0.81978884,0.73957102\H,0,2.52250367,-0.19426278,-1.03882356\H,0,2.1
 6694003,-1.69955796,-0.11819875\H,0,2.95097351,-0.29911667,0.6742832\H

 Normal termination of Gaussian 16 at Wed Apr  9 19:18:14 2025.
