 Gaussian 16, Revision C.01,

 ----------------------------------------------------------------------
 #t hf aug-cc-pvdz symm=none int=(grid=ultrafine) guess=(read,tcheck) s
 table=(opt,rrhf)
 ----------------------------------------------------------------------
 -----
 title
 -----
 Symbolic Z-matrix:
 Charge =  0 Multiplicity = 1

 SCF Done:  E(RHF) =  -354.724677004     A.U. after   15 cycles
 Normal termination of Gaussian 16 at Wed Apr  9 18:19:03 2025.
 Gaussian 16:  ES64L-G16RevC.01  3-Jul-2019

 ----------------------------------------------------------------------
 #t hf aug-cc-pvdz iop(5/13=1,5/36=2,99/5=2) pseudo=read geom=check gue
 ss=(read,tcheck) scf=(maxcycle=1)
 ----------------------------------------------------------------------
 -----
 title
 -----
 Structure from the checkpoint file:  "Grambow2020_wb97xd3_007314_reverse_mol2.chk"
 Charge =  0 Multiplicity = 1

                         Standard orientation:
 ---------------------------------------------------------------------
 Center     Atomic      Atomic             Coordinates (Angstroms)
 Number     Number       Type             X           Y           Z
 ---------------------------------------------------------------------
      1          8           0        3.165751    0.198751   -0.216807
      2          6           0        1.965811    0.243378    0.479920
      3          6           0       -0.259999   -0.586501   -0.058015
      4          7           0        0.885976   -0.339766   -0.289208
      5          7           0       -2.407006    1.132339   -0.034610
      6          6           0       -2.514715   -0.125887   -0.014772
      7          7           0       -1.416978   -0.981006    0.087362
      8          1           0        3.075756    0.712508   -1.022721
      9          1           0        1.679528    1.268330    0.738693
     10          1           0        2.117867   -0.332410    1.393476
     11          1           0       -3.321921    1.566861   -0.106871
     12          1           0       -3.457762   -0.672205   -0.055717
 ---------------------------------------------------------------------

 SCF Done:  E(RHF) =  -355.083405442     A.U. after    2 cycles

 The electronic state is 1-A.
 Alpha  occ. eigenvalues --  -20.57019 -15.53411 -15.51754 -15.49705 -11.38057
 Alpha  occ. eigenvalues --  -11.35530 -11.33829  -1.48649  -1.31986  -1.26876
 Alpha  occ. eigenvalues --   -1.19467  -0.99458  -0.92446  -0.78859  -0.75439
 Alpha  occ. eigenvalues --   -0.72602  -0.71137  -0.68114  -0.61883  -0.60973
 Alpha  occ. eigenvalues --   -0.55607  -0.52320  -0.49794  -0.49015  -0.45479
 Alpha  occ. eigenvalues --   -0.42605
 Alpha virt. eigenvalues --    0.03130   0.04447   0.04822   0.05414   0.05880
 Alpha virt. eigenvalues --    0.07795   0.08436   0.10130   0.10773   0.11599
 Alpha virt. eigenvalues --    0.12175   0.12735   0.13411   0.14272   0.15418

 Mulliken charges:
               1
     1  O   -1.082673
     2  C    0.863246
     3  C   -1.540386
     4  N    0.607659
     5  N    0.466476
     6  C   -0.557419
     7  N    0.699498
     8  H    0.320911
     9  H    0.086316
    10  H    0.053601
    11  H    0.102324
    12  H   -0.019553
 Sum of Mulliken charges =  -0.00000

 Dipole moment (field-independent basis, Debye):
    X=             -1.2849    Y=              0.9154    Z=              0.3150  Tot=              1.6088

 Test job not archived.
 1\1\GINC-SE115\SP\RHF\Aug-CC-pVDZ\C3H5N3O1\OHZDE\09-Apr-2025\0\\#t hf
 aug-cc-pvdz iop(5/13=1,5/36=2,99/5=2) pseudo=read geom=check guess=(re
 ad,tcheck) scf=(maxcycle=1)\\title\\0,1\O,0,-3.03511621,1.07485902,-0.
 26940801\C,0,-2.03335039,0.11968808,-0.37613272\C,0,0.18679172,-0.0275
 9797,0.6146143\N,0,-0.85024177,0.50968168,0.36266179\N,0,2.39213593,-0
 .32871916,-1.00105308\C,0,2.39612179,-0.55437915,0.24160082\N,0,1.2434
 7105,-0.50644537,1.02632028\H,0,-2.71892615,1.89934345,-0.64596033\H,0
 ,-1.7390166,-0.05160436,-1.41703381\H,0,-2.43975422,-0.80173828,0.0422

 Normal termination of Gaussian 16 at Wed Apr  9 18:19:08 2025.
