 Gaussian 16, Revision C.01,

 ----------------------------------------------------------------------
 #t hf aug-cc-pvdz symm=none int=(grid=ultrafine) guess=(read,tcheck) s
 table=(opt,rrhf)
 ----------------------------------------------------------------------
 -----
 title
 -----
 Symbolic Z-matrix:
 Charge =  0 Multiplicity = 1

 SCF Done:  E(RHF) =  -357.239779459     A.U. after   17 cycles
 Normal termination of Gaussian 16 at Wed Apr  9 03:59:22 2025.
 Gaussian 16:  ES64L-G16RevC.01  3-Jul-2019

 ----------------------------------------------------------------------
 #t hf aug-cc-pvdz iop(5/13=1,5/36=2,99/5=2) pseudo=read geom=check gue
 ss=(read,tcheck) scf=(maxcycle=1)
 ----------------------------------------------------------------------
 -----
 title
 -----
 Structure from the checkpoint file:  "Grambow2020_wb97xd3_008755_forward_mol1.chk"
 Charge =  0 Multiplicity = 1

                         Standard orientation:
 ---------------------------------------------------------------------
 Center     Atomic      Atomic             Coordinates (Angstroms)
 Number     Number       Type             X           Y           Z
 ---------------------------------------------------------------------
      1          8           0       -2.586521    0.428942    0.012590
      2          6           0       -1.731586   -0.407963   -0.001097
      3          6           0       -0.275144   -0.098003   -0.014347
      4          7           0        0.545032   -1.111318    0.006255
      5          8           0        1.796545   -0.654628   -0.007393
      6          6           0        1.706666    0.748545   -0.012220
      7          6           0        0.371476    1.208755   -0.110805
      8          1           0       -1.962285   -1.490027   -0.000345
      9          1           0        2.628180    1.234162   -0.305844
     10          1           0        1.410222    1.132577    1.051647
 ---------------------------------------------------------------------

 SCF Done:  E(RHF) =  -357.587481021     A.U. after    2 cycles

 The electronic state is 1-A.
 Alpha  occ. eigenvalues --  -20.66616 -20.56724 -15.64315 -11.36388 -11.35558
 Alpha  occ. eigenvalues --  -11.31296 -11.29562  -1.62828  -1.50160  -1.23468
 Alpha  occ. eigenvalues --   -1.14061  -0.95013  -0.87657  -0.83318  -0.75525
 Alpha  occ. eigenvalues --   -0.73595  -0.68345  -0.64519  -0.62837  -0.57295
 Alpha  occ. eigenvalues --   -0.56715  -0.53506  -0.45448  -0.44551  -0.41983
 Alpha virt. eigenvalues --    0.01335   0.02938   0.04203   0.04737   0.07664
 Alpha virt. eigenvalues --    0.07881   0.08301   0.09332   0.10259   0.11866
 Alpha virt. eigenvalues --    0.12683   0.14076   0.14527   0.15003   0.15744

 Mulliken charges:
               1
     1  O   -1.165369
     2  C    1.400123
     3  C   -0.999847
     4  N    1.586117
     5  O   -1.446893
     6  C    0.521336
     7  C   -0.668186
     8  H    0.151239
     9  H    0.113161
    10  H    0.508319
 Sum of Mulliken charges =  -0.00000

 Dipole moment (field-independent basis, Debye):
    X=              3.2718    Y=             -0.6039    Z=              0.4917  Tot=              3.3632

 Test job not archived.
 1\1\GINC-SE419\SP\RHF\Aug-CC-pVDZ\C4H3N1O2\OHZDE\09-Apr-2025\0\\#t hf
 aug-cc-pvdz iop(5/13=1,5/36=2,99/5=2) pseudo=read geom=check guess=(re
 ad,tcheck) scf=(maxcycle=1)\\title\\0,1\O,0,-2.3741847,0.98137925,-1.0
 9380044\C,0,-1.69937258,-0.00414139,-1.0238765\C,0,-0.38670028,-0.0559
 9167,-0.32267864\N,0,0.22441531,-1.20741563,-0.2966043\O,0,1.37185969,
 -1.0727015,0.36691556\C,0,1.43104484,0.26724056,0.78887129\C,0,0.35186
 845,1.04121156,0.2983695\H,0,-2.00654487,-0.96540007,-1.47742994\H,0,2
 .42414682,0.57729199,1.08693583\H,0,0.70649531,0.43322191,1.69145163\\

 Normal termination of Gaussian 16 at Wed Apr  9 03:59:25 2025.
