 Gaussian 16, Revision C.01,

 ----------------------------------------------------------------------
 #t hf aug-cc-pvdz symm=none int=(grid=ultrafine) guess=(read,tcheck) s
 table=(opt,rrhf)
 ----------------------------------------------------------------------
 -----
 title
 -----
 Symbolic Z-matrix:
 Charge =  0 Multiplicity = 1

 SCF Done:  E(RHF) =  -284.716669196     A.U. after   15 cycles
 Normal termination of Gaussian 16 at Wed Apr  9 03:06:51 2025.
 Gaussian 16:  ES64L-G16RevC.01  3-Jul-2019

 ----------------------------------------------------------------------
 #t hf aug-cc-pvdz iop(5/13=1,5/36=2,99/5=2) pseudo=read geom=check gue
 ss=(read,tcheck) scf=(maxcycle=1)
 ----------------------------------------------------------------------
 -----
 title
 -----
 Structure from the checkpoint file:  "Grambow2020_b97d3_006537_forward_mol1.chk"
 Charge =  0 Multiplicity = 1

                         Standard orientation:
 ---------------------------------------------------------------------
 Center     Atomic      Atomic             Coordinates (Angstroms)
 Number     Number       Type             X           Y           Z
 ---------------------------------------------------------------------
      1          6           0       -0.712825    1.172919   -0.185246
      2          6           0       -1.330158   -0.148362    0.336732
      3          8           0       -0.557510   -1.233909   -0.228616
      4          6           0        0.785749   -0.806575   -0.236938
      5          7           0        1.306106    0.021378    0.757852
      6          6           0        0.799002    0.906837   -0.175966
      7          1           0       -1.073617    1.456764   -1.184986
      8          1           0       -0.929943    1.991966    0.514952
      9          1           0       -1.263863   -0.180347    1.430321
     10          1           0       -2.366772   -0.299529    0.019715
     11          1           0        1.442289   -1.574171   -0.666804
     12          1           0        0.802600   -0.063021   -1.334951
     13          1           0        1.456037    1.641048   -0.685774
 ---------------------------------------------------------------------

 SCF Done:  E(RHF) =  -285.014744590     A.U. after    2 cycles

 The electronic state is 1-A.
 Alpha  occ. eigenvalues --  -20.56841 -15.43794 -11.37410 -11.35548 -11.30075
 Alpha  occ. eigenvalues --  -11.26374  -1.49066  -1.26187  -1.05959  -0.92952
 Alpha  occ. eigenvalues --   -0.86197  -0.80150  -0.73528  -0.69845  -0.64207
 Alpha  occ. eigenvalues --   -0.60517  -0.58263  -0.57140  -0.53989  -0.50787
 Alpha  occ. eigenvalues --   -0.49739  -0.41816  -0.36141
 Alpha virt. eigenvalues --    0.03109   0.03736   0.04121   0.04511   0.05575
 Alpha virt. eigenvalues --    0.06748   0.07549   0.09713   0.10876   0.12273
 Alpha virt. eigenvalues --    0.12954   0.13926   0.14174   0.14556   0.15035

 Mulliken charges:
               1
     1  C   -0.341338
     2  C    0.376126
     3  O   -1.334131
     4  C    0.676315
     5  N    0.542295
     6  C   -0.999961
     7  H    0.127987
     8  H    0.222805
     9  H    0.218648
    10  H    0.032557
    11  H    0.030364
    12  H    0.410006
    13  H    0.038326
 Sum of Mulliken charges =   0.00000

 Dipole moment (field-independent basis, Debye):
    X=             -1.8715    Y=              2.0539    Z=             -2.9966  Tot=              4.0866

 Test job not archived.
 1\1\GINC-SE129\SP\RHF\Aug-CC-pVDZ\C4H7N1O1\OHZDE\09-Apr-2025\0\\#t hf
 aug-cc-pvdz iop(5/13=1,5/36=2,99/5=2) pseudo=read geom=check guess=(re
 ad,tcheck) scf=(maxcycle=1)\\title\\0,1\C,0,0.6143489,-0.87654647,0.30
 564916\C,0,-0.90912342,-0.98698748,0.04839917\O,0,-1.4727901,0.3314044
 ,0.24623872\C,0,-0.53455252,1.24874763,-0.26875457\N,0,0.26183269,0.95
 187069,-1.37488262\C,0,0.99745884,0.47969109,-0.30291702\H,0,0.8814683
 3,-0.93866468,1.37101637\H,0,1.14628795,-1.66924347,-0.23926339\H,0,-1
 .08694342,-1.31197628,-0.9831614\H,0,-1.42082503,-1.65752367,0.7458683

 Normal termination of Gaussian 16 at Wed Apr  9 03:06:55 2025.
