 Gaussian 16, Revision C.01,

 ----------------------------------------------------------------------
 #t hf aug-cc-pvdz symm=none int=(grid=ultrafine) guess=(read,tcheck) s
 table=(opt,rrhf)
 ----------------------------------------------------------------------
 -----
 title
 -----
 Symbolic Z-matrix:
 Charge =  0 Multiplicity = 1

 SCF Done:  E(RHF) =  -195.058676775     A.U. after   14 cycles
 Normal termination of Gaussian 16 at Wed Apr  9 03:07:51 2025.
 Gaussian 16:  ES64L-G16RevC.01  3-Jul-2019

 ----------------------------------------------------------------------
 #t hf aug-cc-pvdz iop(5/13=1,5/36=2,99/5=2) pseudo=read geom=check gue
 ss=(read,tcheck) scf=(maxcycle=1)
 ----------------------------------------------------------------------
 -----
 title
 -----
 Structure from the checkpoint file:  "Grambow2020_b97d3_006577_reverse_mol2.chk"
 Charge =  0 Multiplicity = 1

                         Standard orientation:
 ---------------------------------------------------------------------
 Center     Atomic      Atomic             Coordinates (Angstroms)
 Number     Number       Type             X           Y           Z
 ---------------------------------------------------------------------
      1          6           0       -1.840795   -0.751329    0.014597
      2          6           0       -1.274294    0.573511   -0.358471
      3          6           0       -0.116758    0.921556    0.490073
      4          6           0        0.973262    0.348503   -0.511767
      5          6           0        1.891574   -0.676575    0.158891
      6          1           0       -1.237741   -1.431486    0.653860
      7          1           0       -2.290659   -1.300298   -0.825086
      8          1           0       -2.698015   -0.420293    0.641787
      9          1           0        0.488168   -0.116000   -1.390658
     10          1           0        0.038323    1.999241    0.629700
     11          1           0       -0.011481    0.399304    1.463204
     12          1           0        1.536192    1.196173   -0.920565
     13          1           0        2.433206   -0.227569    1.002847
     14          1           0        1.315164   -1.529446    0.544346
     15          1           0        2.628914   -1.063620   -0.559369
 ---------------------------------------------------------------------

 SCF Done:  E(RHF) =  -195.273453516     A.U. after    2 cycles

 The electronic state is 1-A.
 Alpha  occ. eigenvalues --  -11.26091 -11.25334 -11.23807 -11.23706 -11.23676
 Alpha  occ. eigenvalues --   -1.10146  -1.01358  -0.93549  -0.82107  -0.73731
 Alpha  occ. eigenvalues --   -0.64290  -0.60919  -0.58912  -0.58045  -0.55641
 Alpha  occ. eigenvalues --   -0.52095  -0.50928  -0.49180  -0.46575  -0.34036
 Alpha virt. eigenvalues --    0.03628   0.03693   0.03845   0.04495   0.06224
 Alpha virt. eigenvalues --    0.06521   0.06692   0.07121   0.08701   0.09622
 Alpha virt. eigenvalues --    0.10197   0.11609   0.13698   0.14100   0.15522

 Mulliken charges:
               1
     1  C   -0.380050
     2  C   -0.408375
     3  C   -0.034534
     4  C   -0.381855
     5  C   -0.382196
     6  H    0.115766
     7  H    0.167569
     8  H    0.279795
     9  H    0.222175
    10  H    0.102159
    11  H    0.104863
    12  H    0.124454
    13  H    0.189587
    14  H    0.168424
    15  H    0.112219
 Sum of Mulliken charges =  -0.00000

 Dipole moment (field-independent basis, Debye):
    X=              1.2011    Y=             -1.2232    Z=              1.3162  Tot=              2.1613

 Test job not archived.
 1\1\GINC-SE247\SP\RHF\Aug-CC-pVDZ\C5H10\OHZDE\09-Apr-2025\0\\#t hf aug
 -cc-pvdz iop(5/13=1,5/36=2,99/5=2) pseudo=read geom=check guess=(read,
 tcheck) scf=(maxcycle=1)\\title\\0,1\C,0,1.85060093,-0.87223426,-0.100
 33264\C,0,1.4654587,0.43934462,0.48850516\C,0,0.35158148,1.05775921,-0
 .2584172\C,0,-0.79007318,0.47808658,0.68010384\C,0,-1.84223608,-0.3066
 5338,-0.10793159\H,0,1.15610118,-1.36357304,-0.81531586\H,0,2.23669058
 ,-1.59704199,0.63069436\H,0,2.73506809,-0.55850781,-0.69788717\H,0,-0.
 35759394,-0.1744776,1.46154599\H,0,0.33553832,2.154902,-0.22724444\H,0

 Normal termination of Gaussian 16 at Wed Apr  9 03:07:55 2025.
