 Gaussian 16, Revision C.01,

 ----------------------------------------------------------------------
 #t hf aug-cc-pvdz symm=none int=(grid=ultrafine) guess=(read,tcheck) s
 table=(opt,rrhf)
 ----------------------------------------------------------------------
 -----
 title
 -----
 Symbolic Z-matrix:
 Charge =  0 Multiplicity = 1

 SCF Done:  E(RHF) =  -358.420767462     A.U. after   14 cycles
 Normal termination of Gaussian 16 at Wed Apr  9 17:38:33 2025.
 Gaussian 16:  ES64L-G16RevC.01  3-Jul-2019

 ----------------------------------------------------------------------
 #t hf aug-cc-pvdz iop(5/13=1,5/36=2,99/5=2) pseudo=read geom=check gue
 ss=(read,tcheck) scf=(maxcycle=1)
 ----------------------------------------------------------------------
 -----
 title
 -----
 Structure from the checkpoint file:  "Grambow2020_wb97xd3_006749_forward_mol1.chk"
 Charge =  0 Multiplicity = 1

                         Standard orientation:
 ---------------------------------------------------------------------
 Center     Atomic      Atomic             Coordinates (Angstroms)
 Number     Number       Type             X           Y           Z
 ---------------------------------------------------------------------
      1          8           0       -2.851201   -0.392519    0.000326
      2          6           0       -1.717772   -0.637386   -0.000343
      3          6           0       -0.354175    0.681453   -0.001231
      4          8           0        0.055868    1.792622    0.000263
      5          7           0        0.622489   -0.499730   -0.000860
      6          6           0        1.867981   -0.427476    0.737246
      7          6           0        1.869680   -0.427891   -0.735988
      8          1           0       -0.364999   -1.234422   -0.000498
      9          1           0        2.148069   -1.320616    1.281603
     10          1           0        2.036044    0.521157    1.238418
     11          1           0        2.040084    0.520300   -1.237513
     12          1           0        2.151758   -1.321327   -1.278804
 ---------------------------------------------------------------------

 SCF Done:  E(RHF) =  -358.776978986     A.U. after    2 cycles

 The electronic state is 1-A.
 Alpha  occ. eigenvalues --  -20.57893 -20.56026 -15.56770 -11.34844 -11.34433
 Alpha  occ. eigenvalues --  -11.31624 -11.31539  -1.52393  -1.50351  -1.33557
 Alpha  occ. eigenvalues --   -1.03991  -0.90211  -0.82459  -0.80178  -0.73984
 Alpha  occ. eigenvalues --   -0.71332  -0.64897  -0.61762  -0.61703  -0.58266
 Alpha  occ. eigenvalues --   -0.57962  -0.56022  -0.52790  -0.52347  -0.48554
 Alpha  occ. eigenvalues --   -0.32259
 Alpha virt. eigenvalues --    0.02553   0.03526   0.04401   0.05373   0.05974
 Alpha virt. eigenvalues --    0.07264   0.08603   0.09728   0.09732   0.10399
 Alpha virt. eigenvalues --    0.13133   0.13204   0.14315   0.14669   0.15259

 Mulliken charges:
               1
     1  O   -0.856962
     2  C    0.531593
     3  C    0.462507
     4  O   -0.972989
     5  N    0.683110
     6  C   -0.044637
     7  C   -0.046169
     8  H    0.565493
     9  H   -0.113785
    10  H   -0.046726
    11  H   -0.047237
    12  H   -0.114198
 Sum of Mulliken charges =  -0.00000

 Dipole moment (field-independent basis, Debye):
    X=              4.9898    Y=             -2.7143    Z=             -0.0000  Tot=              5.6802

 Test job not archived.
 1\1\GINC-SE029\SP\RHF\Aug-CC-pVDZ\C4H5N1O2\OHZDE\09-Apr-2025\0\\#t hf
 aug-cc-pvdz iop(5/13=1,5/36=2,99/5=2) pseudo=read geom=check guess=(re
 ad,tcheck) scf=(maxcycle=1)\\title\\0,1\O,0,3.33344438,0.44943563,0.81
 271671\C,0,2.17753182,0.36344585,0.8457688\C,0,1.10876156,-0.06691601,
 -0.66129864\O,0,0.93007584,-0.34286442,-1.79917291\N,0,-0.08075598,0.0
 5469191,0.29751569\C,0,-1.22432694,-0.82701062,0.17056851\C,0,-1.34277
 947,0.60461567,-0.15628922\H,0,0.73716995,0.32195961,1.17755647\H,0,-1
 .63294543,-1.20870045,1.09783144\H,0,-1.1595147,-1.52653333,-0.6575570

 Normal termination of Gaussian 16 at Wed Apr  9 17:38:37 2025.
