 Gaussian 16, Revision C.01,

 ----------------------------------------------------------------------
 #t hf aug-cc-pvdz symm=none int=(grid=ultrafine) guess=(read,tcheck) s
 table=(opt,rrhf)
 ----------------------------------------------------------------------
 -----
 title
 -----
 Symbolic Z-matrix:
 Charge =  0 Multiplicity = 1

 SCF Done:  E(RHF) =  -342.403136210     A.U. after   15 cycles
 Normal termination of Gaussian 16 at Wed Apr  9 03:59:38 2025.
 Gaussian 16:  ES64L-G16RevC.01  3-Jul-2019

 ----------------------------------------------------------------------
 #t hf aug-cc-pvdz iop(5/13=1,5/36=2,99/5=2) pseudo=read geom=check gue
 ss=(read,tcheck) scf=(maxcycle=1)
 ----------------------------------------------------------------------
 -----
 title
 -----
 Structure from the checkpoint file:  "Grambow2020_wb97xd3_008759_reverse_mol1.chk"
 Charge =  0 Multiplicity = 1

                         Standard orientation:
 ---------------------------------------------------------------------
 Center     Atomic      Atomic             Coordinates (Angstroms)
 Number     Number       Type             X           Y           Z
 ---------------------------------------------------------------------
      1          8           0       -2.279800    0.612779    0.025302
      2          6           0       -1.575414   -0.314702   -0.257366
      3          6           0       -0.275456   -0.612201    0.448583
      4          8           0        0.707232   -1.242165   -0.395158
      5          6           0        1.735199   -0.405118    0.078773
      6          6           0        1.073292    1.249180   -0.463051
      7          6           0        0.702690    0.503289    0.761490
      8          1           0       -1.844124   -1.033634   -1.058030
      9          1           0       -0.491116   -1.247979    1.314741
     10          1           0        2.082174    0.434891   -0.830512
     11          1           0        1.662396    2.144352   -0.300046
     12          1           0        0.399574    1.252615   -1.311347
     13          1           0        0.809776    0.962156    1.733466
 ---------------------------------------------------------------------

 SCF Done:  E(RHF) =  -342.747804706     A.U. after    2 cycles

 The electronic state is 1-A.
 Alpha  occ. eigenvalues --  -20.57739 -20.56787 -11.35743 -11.32461 -11.31732
 Alpha  occ. eigenvalues --  -11.30006 -11.27401  -1.51931  -1.49992  -1.14374
 Alpha  occ. eigenvalues --   -1.02465  -0.90477  -0.82618  -0.77136  -0.72963
 Alpha  occ. eigenvalues --   -0.70898  -0.68752  -0.64873  -0.60951  -0.58433
 Alpha  occ. eigenvalues --   -0.55406  -0.54129  -0.49320  -0.45311  -0.43726
 Alpha  occ. eigenvalues --   -0.35284
 Alpha virt. eigenvalues --    0.03227   0.03497   0.03970   0.05275   0.06022
 Alpha virt. eigenvalues --    0.06072   0.08857   0.09448   0.10179   0.11494
 Alpha virt. eigenvalues --    0.12991   0.13216   0.13865   0.14175   0.14369

 Mulliken charges:
               1
     1  O   -1.177771
     2  C    1.037721
     3  C    0.642027
     4  O   -1.313500
     5  C    0.257322
     6  C   -0.312958
     7  C    0.177836
     8  H    0.202061
     9  H    0.125125
    10  H    0.427942
    11  H    0.045066
    12  H    0.075100
    13  H   -0.185973
 Sum of Mulliken charges =   0.00000

 Dipole moment (field-independent basis, Debye):
    X=              0.0626    Y=              1.0321    Z=             -0.0157  Tot=              1.0341

 Test job not archived.
 1\1\GINC-SE452\SP\RHF\Aug-CC-pVDZ\C5H6O2\OHZDE\09-Apr-2025\0\\#t hf au
 g-cc-pvdz iop(5/13=1,5/36=2,99/5=2) pseudo=read geom=check guess=(read
 ,tcheck) scf=(maxcycle=1)\\title\\0,1\O,0,1.38064233,1.92019897,-0.893
 03835\C,0,1.596639,0.92997785,-0.25343677\C,0,0.85212677,-0.36640633,-
 0.458013\O,0,0.71825772,-1.1495984,0.74328506\C,0,-0.63680969,-1.42673
 655,0.48067934\C,0,-1.32537264,0.30351002,0.50357258\C,0,-0.65407205,-
 0.36915268,-0.63224418\H,0,2.37913392,0.89713336,0.53190024\H,0,1.3733
 1025,-0.94540523,-1.22877862\H,0,-1.39113172,-0.78260319,1.29853971\H,

 Normal termination of Gaussian 16 at Wed Apr  9 03:59:42 2025.
