 Gaussian 16, Revision C.01,

 ----------------------------------------------------------------------
 #t hf aug-cc-pvdz symm=none int=(grid=ultrafine) guess=(read,tcheck) s
 table=(opt,rrhf)
 ----------------------------------------------------------------------
 -----
 title
 -----
 Symbolic Z-matrix:
 Charge =  0 Multiplicity = 1

 SCF Done:  E(RHF) =  -306.601908036     A.U. after   16 cycles
 Normal termination of Gaussian 16 at Wed Apr  9 18:54:51 2025.
 Gaussian 16:  ES64L-G16RevC.01  3-Jul-2019

 ----------------------------------------------------------------------
 #t hf aug-cc-pvdz iop(5/13=1,5/36=2,99/5=2) pseudo=read geom=check gue
 ss=(read,tcheck) scf=(maxcycle=1)
 ----------------------------------------------------------------------
 -----
 title
 -----
 Structure from the checkpoint file:  "Grambow2020_wb97xd3_008221_reverse_mol2.chk"
 Charge =  0 Multiplicity = 1

                         Standard orientation:
 ---------------------------------------------------------------------
 Center     Atomic      Atomic             Coordinates (Angstroms)
 Number     Number       Type             X           Y           Z
 ---------------------------------------------------------------------
      1          6           0        1.298236   -0.596541   -0.312989
      2          8           0        2.432633    0.230767   -0.217008
      3          6           0       -0.421934    1.178441    0.451845
      4          6           0       -1.464091    1.104123   -0.402669
      5          6           0       -1.795609   -0.190041   -0.610363
      6          6           0       -1.099518   -1.072518    0.395450
      7          6           0        0.189199   -0.194946    0.657609
      8          1           0        0.888621   -0.599648   -1.333049
      9          1           0        1.640655   -1.608368   -0.087408
     10          1           0       -0.172440    2.022995    1.086062
     11          1           0        2.194024    1.109681   -0.520490
     12          1           0       -2.301643   -0.587544   -1.483995
     13          1           0       -1.641413   -1.210747    1.334809
     14          1           0       -0.891422   -2.068376   -0.008149
     15          1           0        0.584854   -0.275238    1.674988
 ---------------------------------------------------------------------

 SCF Done:  E(RHF) =  -306.920756560     A.U. after    2 cycles

 The electronic state is 1-A.
 Alpha  occ. eigenvalues --  -20.55702 -11.29745 -11.28524 -11.27900 -11.26321
 Alpha  occ. eigenvalues --  -11.26294 -11.20498  -1.46231  -1.17638  -1.01430
 Alpha  occ. eigenvalues --   -0.97556  -0.90351  -0.79620  -0.74052  -0.71794
 Alpha  occ. eigenvalues --   -0.66576  -0.63269  -0.62384  -0.58319  -0.56443
 Alpha  occ. eigenvalues --   -0.54017  -0.51664  -0.49798  -0.45049  -0.39200
 Alpha  occ. eigenvalues --   -0.31978
 Alpha virt. eigenvalues --    0.01886   0.03171   0.03391   0.03986   0.04402
 Alpha virt. eigenvalues --    0.05880   0.06084   0.07116   0.07388   0.09508
 Alpha virt. eigenvalues --    0.12310   0.13194   0.13662   0.14134   0.14432

 Mulliken charges:
               1
     1  C    0.862441
     2  O   -1.188508
     3  C    0.576513
     4  C   -0.677396
     5  C    0.465454
     6  C   -0.203017
     7  C   -0.731251
     8  H    0.207454
     9  H    0.076152
    10  H   -0.033947
    11  H    0.313109
    12  H   -0.025921
    13  H    0.142413
    14  H    0.147753
    15  H    0.068753
 Sum of Mulliken charges =  -0.00000

 Dipole moment (field-independent basis, Debye):
    X=             -0.0788    Y=             -2.2005    Z=              0.8716  Tot=              2.3682

 Test job not archived.
 1\1\GINC-SE112\SP\RHF\Aug-CC-pVDZ\C6H8O1\OHZDE\09-Apr-2025\0\\#t hf au
 g-cc-pvdz iop(5/13=1,5/36=2,99/5=2) pseudo=read geom=check guess=(read
 ,tcheck) scf=(maxcycle=1)\\title\\0,1\C,0,-0.97242083,-0.66870326,-0.8
 6162529\O,0,-1.48382777,-1.95756749,-0.6212082\C,0,0.63527008,-0.61090
 086,1.16482606\C,0,1.81446492,-0.13452316,0.712753\C,0,1.60163435,0.94
 008947,-0.07959297\C,0,0.17477829,1.41019593,0.05476701\C,0,-0.5153753
 6,0.03418503,0.41522976\H,0,-0.13098301,-0.69593601,-1.56841827\H,0,-1
 .78180223,-0.10313661,-1.32742389\H,0,0.4829967,-1.19066049,2.06950401

 Normal termination of Gaussian 16 at Wed Apr  9 18:54:57 2025.
