 Gaussian 16, Revision C.01,

 ----------------------------------------------------------------------
 #t hf aug-cc-pvdz symm=none int=(grid=ultrafine) guess=(read,tcheck) s
 table=(opt,rrhf)
 ----------------------------------------------------------------------
 -----
 title
 -----
 Symbolic Z-matrix:
 Charge =  0 Multiplicity = 1

 SCF Done:  E(RHF) =  -320.330370393     A.U. after   15 cycles
 Normal termination of Gaussian 16 at Wed Apr  9 18:30:06 2025.
 Gaussian 16:  ES64L-G16RevC.01  3-Jul-2019

 ----------------------------------------------------------------------
 #t hf aug-cc-pvdz iop(5/13=1,5/36=2,99/5=2) pseudo=read geom=check gue
 ss=(read,tcheck) scf=(maxcycle=1)
 ----------------------------------------------------------------------
 -----
 title
 -----
 Structure from the checkpoint file:  "Grambow2020_wb97xd3_007648_reverse_mol2.chk"
 Charge =  0 Multiplicity = 1

                         Standard orientation:
 ---------------------------------------------------------------------
 Center     Atomic      Atomic             Coordinates (Angstroms)
 Number     Number       Type             X           Y           Z
 ---------------------------------------------------------------------
      1          7           0       -2.841448    0.418215   -0.000431
      2          6           0       -1.739151    0.092126    0.000179
      3          6           0       -0.383329   -0.285193    0.000384
      4          6           0        0.331557   -1.423170    0.000470
      5          8           0        1.581294   -0.857939   -0.000651
      6          6           0        1.478403    1.589573    0.000321
      7          6           0        0.918960    0.404033   -0.000251
      8          1           0        0.186129   -2.492840    0.001075
      9          1           0        2.555115    1.688907   -0.000371
     10          1           0        0.859902    2.475718    0.000895
 ---------------------------------------------------------------------

 SCF Done:  E(RHF) =  -320.645211822     A.U. after    2 cycles

 The electronic state is 1-A.
 Alpha  occ. eigenvalues --  -20.61900 -15.52747 -11.37282 -11.34669 -11.29933
 Alpha  occ. eigenvalues --  -11.29845 -11.26580  -1.56894  -1.24928  -1.11764
 Alpha  occ. eigenvalues --   -1.06808  -0.89809  -0.87417  -0.73352  -0.71774
 Alpha  occ. eigenvalues --   -0.66842  -0.63251  -0.61425  -0.61103  -0.56609
 Alpha  occ. eigenvalues --   -0.54908  -0.51051  -0.41964  -0.37884
 Alpha virt. eigenvalues --    0.02908   0.03518   0.04333   0.04891   0.07494
 Alpha virt. eigenvalues --    0.08410   0.08838   0.10399   0.10417   0.11440
 Alpha virt. eigenvalues --    0.13129   0.13809   0.14106   0.14337   0.14920

 Mulliken charges:
               1
     1  N    1.021089
     2  C   -2.627161
     3  C    1.261675
     4  C    0.933744
     5  O   -1.495997
     6  C    0.115218
     7  C    1.072920
     8  H   -0.126345
     9  H   -0.094689
    10  H   -0.060454
 Sum of Mulliken charges =  -0.00000

 Dipole moment (field-independent basis, Debye):
    X=              3.7462    Y=             -1.4013    Z=              0.0027  Tot=              3.9998

 Test job not archived.
 1\1\GINC-SE229\SP\RHF\Aug-CC-pVDZ\C5H3N1O1\OHZDE\09-Apr-2025\0\\#t hf
 aug-cc-pvdz iop(5/13=1,5/36=2,99/5=2) pseudo=read geom=check guess=(re
 ad,tcheck) scf=(maxcycle=1)\\title\\0,1\N,0,3.00355218,-0.93577479,0.0
 9515261\C,0,1.9980592,-0.37897919,0.0763186\C,0,0.7562382,0.28273731,0
 .05112374\C,0,0.30270078,1.54697731,0.09646257\O,0,-1.03755729,1.26699
 741,0.01491158\C,0,-1.46174143,-1.1411165,-0.13325716\C,0,-0.66188301,
 -0.10674148,-0.03958379\H,0,0.67377778,2.55809825,0.16912192\H,0,-2.53
 338285,-1.00448752,-0.17903518\H,0,-1.04829556,-2.13901879,-0.16569087

 Normal termination of Gaussian 16 at Wed Apr  9 18:30:09 2025.
