 Gaussian 16, Revision C.01,

 ----------------------------------------------------------------------
 #t hf aug-cc-pvdz symm=none int=(grid=ultrafine) guess=(read,tcheck) s
 table=(opt,rrhf)
 ----------------------------------------------------------------------
 -----
 title
 -----
 Symbolic Z-matrix:
 Charge =  0 Multiplicity = 1

 SCF Done:  E(RHF) =  -339.817381914     A.U. after   14 cycles
 Normal termination of Gaussian 16 at Wed Apr  9 03:33:20 2025.
 Gaussian 16:  ES64L-G16RevC.01  3-Jul-2019

 ----------------------------------------------------------------------
 #t hf aug-cc-pvdz iop(5/13=1,5/36=2,99/5=2) pseudo=read geom=check gue
 ss=(read,tcheck) scf=(maxcycle=1)
 ----------------------------------------------------------------------
 -----
 title
 -----
 Structure from the checkpoint file:  "Grambow2020_wb97xd3_007000_reverse_mol2.chk"
 Charge =  0 Multiplicity = 1

                         Standard orientation:
 ---------------------------------------------------------------------
 Center     Atomic      Atomic             Coordinates (Angstroms)
 Number     Number       Type             X           Y           Z
 ---------------------------------------------------------------------
      1          6           0        0.970192    1.718729   -0.194240
      2          6           0        0.426744    0.377393    0.210580
      3          8           0       -2.774589   -0.482313   -0.602693
      4          6           0        1.412404   -0.720587    0.540780
      5          7           0        2.352679   -0.941191   -0.552862
      6          6           0       -0.853814    0.152107    0.289281
      7          7           0       -2.051584   -0.027189    0.509349
      8          1           0        0.174153    2.448640   -0.328850
      9          1           0        1.518873    1.633797   -1.135153
     10          1           0        1.660137    2.094882    0.567198
     11          1           0       -3.663387   -0.562234   -0.248327
     12          1           0        0.866461   -1.647419    0.716115
     13          1           0        1.907248   -0.453641    1.487682
     14          1           0        2.831415   -1.822449   -0.432706
     15          1           0        3.060990   -0.220253   -0.578236
 ---------------------------------------------------------------------

 SCF Done:  E(RHF) =  -340.169849944     A.U. after    2 cycles

 The electronic state is 1-A.
 Alpha  occ. eigenvalues --  -20.58887 -15.56721 -15.49448 -11.28730 -11.27727
 Alpha  occ. eigenvalues --  -11.26189 -11.24562  -1.50161  -1.20514  -1.18891
 Alpha  occ. eigenvalues --   -1.07702  -0.94725  -0.88835  -0.74301  -0.72243
 Alpha  occ. eigenvalues --   -0.70607  -0.66199  -0.64016  -0.63661  -0.59451
 Alpha  occ. eigenvalues --   -0.58103  -0.55814  -0.52461  -0.52222  -0.44808
 Alpha  occ. eigenvalues --   -0.41544  -0.36353
 Alpha virt. eigenvalues --    0.03153   0.04172   0.04420   0.04702   0.05683
 Alpha virt. eigenvalues --    0.06812   0.07074   0.08572   0.10011   0.11129
 Alpha virt. eigenvalues --    0.12348   0.13167   0.13538   0.14394   0.14802

 Mulliken charges:
               1
     1  C   -0.455265
     2  C    1.521230
     3  O   -1.115465
     4  C   -0.495359
     5  N    0.147198
     6  C   -2.650702
     7  N    1.687225
     8  H    0.111477
     9  H    0.262275
    10  H    0.212858
    11  H    0.341749
    12  H    0.022391
    13  H    0.128991
    14  H    0.135402
    15  H    0.145994
 Sum of Mulliken charges =  -0.00000

 Dipole moment (field-independent basis, Debye):
    X=              2.3152    Y=              0.2358    Z=              0.9716  Tot=              2.5219

 Test job not archived.
 1\1\GINC-SE398\SP\RHF\Aug-CC-pVDZ\C4H8N2O1\OHZDE\09-Apr-2025\0\\#t hf
 aug-cc-pvdz iop(5/13=1,5/36=2,99/5=2) pseudo=read geom=check guess=(re
 ad,tcheck) scf=(maxcycle=1)\\title\\0,1\C,0,0.36202348,1.56777961,-0.5
 3723053\C,0,0.29347754,0.11026342,-0.17758322\O,0,1.97193607,-1.052793
 29,2.55721366\C,0,-0.85464511,-0.70594301,-0.72689183\N,0,-2.14316687,
 -0.11064396,-0.38900549\C,0,1.19395223,-0.4525901,0.5768143\N,0,2.1136
 0618,-1.0240821,1.16235977\H,0,1.26867078,2.03205613,-0.15381632\H,0,-
 0.49676474,2.09885674,-0.1200735\H,0,0.34181706,1.69246857,-1.62412847

 Normal termination of Gaussian 16 at Wed Apr  9 03:33:25 2025.
