 Gaussian 16, Revision C.01,

 ----------------------------------------------------------------------
 #t hf aug-cc-pvdz symm=none int=(grid=ultrafine) guess=(read,tcheck) s
 table=(opt,rrhf)
 ----------------------------------------------------------------------
 -----
 title
 -----
 Symbolic Z-matrix:
 Charge =  0 Multiplicity = 1

 SCF Done:  E(RHF) =  -344.894709189     A.U. after   13 cycles

 1\1\GINC-SE021\Stability\RHF\Aug-CC-pVDZ\C5H10O2\OHZDE\09-Apr-2025\0\\
 #t hf aug-cc-pvdz symm=none int=(grid=ultrafine) guess=(read,tcheck) s
 table=(opt,rrhf)\\title\\0,1\C,0,-2.16288554,-0.50934563,0.35758501\C,
 0,-1.06258889,0.26568871,-0.35171629\O,0,-0.90375109,1.55738204,0.2019
 2985\C,0,0.2570043,-0.48709789,-0.32145186\C,0,1.50053797,0.21465231,-
 0.88057791\C,0,2.06420846,0.0330152,0.5305205\O,0,0.81494618,-0.496628
 52,1.01021709\H,0,-3.08722589,0.06813456,0.35752418\H,0,-2.34900873,-1
 .46638307,-0.13471661\H,0,-1.87857846,-0.71033375,1.39338239\H,0,-1.33

 Normal termination of Gaussian 16 at Wed Apr  9 03:34:34 2025.
 Gaussian 16:  ES64L-G16RevC.01  3-Jul-2019

 ----------------------------------------------------------------------
 #t hf aug-cc-pvdz iop(5/13=1,5/36=2,99/5=2) pseudo=read geom=check gue
 ss=(read,tcheck) scf=(maxcycle=1)
 ----------------------------------------------------------------------
 -----
 title
 -----
 Structure from the checkpoint file:  "Grambow2020_wb97xd3_007046_forward_mol2.chk"
 Charge =  0 Multiplicity = 1

                         Standard orientation:
 ---------------------------------------------------------------------
 Center     Atomic      Atomic             Coordinates (Angstroms)
 Number     Number       Type             X           Y           Z
 ---------------------------------------------------------------------
      1          6           0        2.183085   -0.724027    0.033413
      2          6           0        1.101650    0.283861    0.392719
      3          8           0        1.008573    1.307395   -0.578847
      4          6           0       -0.247373   -0.389940    0.579962
      5          6           0       -1.471826    0.501714    0.818955
      6          6           0       -2.013090   -0.140352   -0.460380
      7          8           0       -0.777366   -0.843306   -0.684277
      8          1           0        3.130580   -0.212361   -0.134930
      9          1           0        2.318700   -1.456072    0.832564
     10          1           0        1.912252   -1.262887   -0.877840
     11          1           0        1.358392    0.787054    1.330721
     12          1           0        0.648430    0.896826   -1.372017
     13          1           0       -0.154810   -1.224728    1.284287
     14          1           0       -2.032587    0.310222    1.731106
     15          1           0       -1.253296    1.563654    0.725807
     16          1           0       -2.249248    0.536320   -1.285059
     17          1           0       -2.842751   -0.838271   -0.317668
 ---------------------------------------------------------------------

 SCF Done:  E(RHF) =  -345.256759299     A.U. after    2 cycles

 The electronic state is 1-A.
 Alpha  occ. eigenvalues --  -20.54188 -20.54098 -11.28940 -11.28879 -11.28468
 Alpha  occ. eigenvalues --  -11.23545 -11.22308  -1.47530  -1.44303  -1.05140
 Alpha  occ. eigenvalues --   -1.02064  -0.93586  -0.84102  -0.76971  -0.71445
 Alpha  occ. eigenvalues --   -0.69068  -0.65002  -0.62466  -0.59975  -0.58762
 Alpha  occ. eigenvalues --   -0.55921  -0.54403  -0.52589  -0.49561  -0.47924
 Alpha  occ. eigenvalues --   -0.46621  -0.43690  -0.40981
 Alpha virt. eigenvalues --    0.03379   0.03805   0.04190   0.04452   0.05866
 Alpha virt. eigenvalues --    0.06061   0.06617   0.07332   0.07666   0.09219
 Alpha virt. eigenvalues --    0.11591   0.12505   0.13150   0.13918   0.14528

 Mulliken charges:
               1
     1  C   -0.287566
     2  C    0.747182
     3  O   -1.434729
     4  C    1.023207
     5  C   -0.196208
     6  C    0.626411
     7  O   -1.452736
     8  H    0.165018
     9  H    0.195720
    10  H    0.171892
    11  H    0.088360
    12  H    0.323977
    13  H   -0.062948
    14  H    0.049451
    15  H    0.041974
    16  H    0.011207
    17  H   -0.010212
 Sum of Mulliken charges =   0.00000

 Dipole moment (field-independent basis, Debye):
    X=             -1.1091    Y=             -0.4878    Z=              1.2576  Tot=              1.7463

 Test job not archived.
 1\1\GINC-SE021\SP\RHF\Aug-CC-pVDZ\C5H10O2\OHZDE\09-Apr-2025\0\\#t hf a
 ug-cc-pvdz iop(5/13=1,5/36=2,99/5=2) pseudo=read geom=check guess=(rea
 d,tcheck) scf=(maxcycle=1)\\title\\0,1\C,0,-2.16288554,-0.50934563,0.3
 5758501\C,0,-1.06258889,0.26568871,-0.35171629\O,0,-0.90375109,1.55738
 204,0.20192985\C,0,0.2570043,-0.48709789,-0.32145186\C,0,1.50053797,0.
 21465231,-0.88057791\C,0,2.06420846,0.0330152,0.5305205\O,0,0.81494618
 ,-0.49662852,1.01021709\H,0,-3.08722589,0.06813456,0.35752418\H,0,-2.3
 4900873,-1.46638307,-0.13471661\H,0,-1.87857846,-0.71033375,1.39338239

 Normal termination of Gaussian 16 at Wed Apr  9 03:34:41 2025.
