 Gaussian 16, Revision C.01,

 ----------------------------------------------------------------------
 #t hf aug-cc-pvdz symm=none int=(grid=ultrafine) guess=(read,tcheck) s
 table=(opt,rrhf)
 ----------------------------------------------------------------------
 -----
 title
 -----
 Symbolic Z-matrix:
 Charge =  0 Multiplicity = 1

 SCF Done:  E(RHF) =  -232.170396382     A.U. after   12 cycles

 1\1\GINC-SE220\Stability\RHF\Aug-CC-pVDZ\C4H10O1\OHZDE\09-Apr-2025\0\\
 #t hf aug-cc-pvdz symm=none int=(grid=ultrafine) guess=(read,tcheck) s
 table=(opt,rrhf)\\title\\0,1\C,0,1.86092942,-0.47506278,-0.73286332\O,
 0,0.96691,-0.49852391,0.36403223\C,0,-0.17947126,0.34828651,0.20854997
 \C,0,-1.1705979,-0.20069404,-0.82681029\C,0,-0.81088926,0.46243446,1.5
 9504659\H,0,2.74867206,-1.04338949,-0.42742552\H,0,2.16864402,0.556905
 57,-0.98842218\H,0,1.44177611,-0.9434105,-1.64126881\H,0,0.15998654,1.
 35124811,-0.11997265\H,0,-1.50522993,-1.20471878,-0.53020165\H,0,-0.72

 Normal termination of Gaussian 16 at Wed Apr  9 03:08:52 2025.
 Gaussian 16:  ES64L-G16RevC.01  3-Jul-2019

 ----------------------------------------------------------------------
 #t hf aug-cc-pvdz iop(5/13=1,5/36=2,99/5=2) pseudo=read geom=check gue
 ss=(read,tcheck) scf=(maxcycle=1)
 ----------------------------------------------------------------------
 -----
 title
 -----
 Structure from the checkpoint file:  "Grambow2020_b97d3_006609_forward_mol2.chk"
 Charge =  0 Multiplicity = 1

                         Standard orientation:
 ---------------------------------------------------------------------
 Center     Atomic      Atomic             Coordinates (Angstroms)
 Number     Number       Type             X           Y           Z
 ---------------------------------------------------------------------
      1          6           0        1.958452   -0.111845    0.083830
      2          8           0        0.701268   -0.596336   -0.349480
      3          6           0       -0.420703   -0.006302    0.320217
      4          6           0       -0.648400    1.451412   -0.102756
      5          6           0       -1.622542   -0.888970   -0.012311
      6          1           0        2.720025   -0.738900   -0.396986
      7          1           0        2.071893   -0.191868    1.181867
      8          1           0        2.138500    0.939230   -0.204379
      9          1           0       -0.239363   -0.035926    1.413528
     10          1           0       -0.810738    1.506006   -1.188429
     11          1           0        0.207744    2.090258    0.151875
     12          1           0       -1.533565    1.862785    0.402925
     13          1           0       -2.523404   -0.521947    0.497726
     14          1           0       -1.435403   -1.924538    0.299477
     15          1           0       -1.806675   -0.880176   -1.095644
 ---------------------------------------------------------------------

 SCF Done:  E(RHF) =  -232.422851478     A.U. after    2 cycles

 The electronic state is 1-A.
 Alpha  occ. eigenvalues --  -20.53794 -11.28684 -11.27919 -11.22676 -11.22252
 Alpha  occ. eigenvalues --   -1.44966  -1.05153  -0.94204  -0.91149  -0.79419
 Alpha  occ. eigenvalues --   -0.67075  -0.63931  -0.63330  -0.59095  -0.55445
 Alpha  occ. eigenvalues --   -0.54575  -0.53151  -0.50268  -0.49341  -0.46111
 Alpha  occ. eigenvalues --   -0.41080
 Alpha virt. eigenvalues --    0.03803   0.04095   0.04238   0.04504   0.06370
 Alpha virt. eigenvalues --    0.06789   0.07098   0.07364   0.08239   0.09758
 Alpha virt. eigenvalues --    0.12505   0.14002   0.14687   0.15313   0.15739

 Mulliken charges:
               1
     1  C    0.149647
     2  O   -1.409955
     3  C    0.372841
     4  C   -0.330046
     5  C   -0.376532
     6  H   -0.009035
     7  H    0.175864
     8  H    0.164276
     9  H    0.187823
    10  H    0.234014
    11  H    0.096145
    12  H    0.193138
    13  H    0.184405
    14  H    0.156962
    15  H    0.210454
 Sum of Mulliken charges =  -0.00000

 Dipole moment (field-independent basis, Debye):
    X=              0.0401    Y=              0.9462    Z=              0.9499  Tot=              1.3413

 Test job not archived.
 1\1\GINC-SE220\SP\RHF\Aug-CC-pVDZ\C4H10O1\OHZDE\09-Apr-2025\0\\#t hf a
 ug-cc-pvdz iop(5/13=1,5/36=2,99/5=2) pseudo=read geom=check guess=(rea
 d,tcheck) scf=(maxcycle=1)\\title\\0,1\C,0,1.86092942,-0.47506278,-0.7
 3286332\O,0,0.96691,-0.49852391,0.36403223\C,0,-0.17947126,0.34828651,
 0.20854997\C,0,-1.1705979,-0.20069404,-0.82681029\C,0,-0.81088926,0.46
 243446,1.59504659\H,0,2.74867206,-1.04338949,-0.42742552\H,0,2.1686440
 2,0.55690557,-0.98842218\H,0,1.44177611,-0.9434105,-1.64126881\H,0,0.1
 5998654,1.35124811,-0.11997265\H,0,-1.50522993,-1.20471878,-0.53020165

 Normal termination of Gaussian 16 at Wed Apr  9 03:08:56 2025.
