 Gaussian 16, Revision C.01,

 ----------------------------------------------------------------------
 #t hf aug-cc-pvdz symm=none int=(grid=ultrafine) guess=(read,tcheck) s
 table=(opt,rrhf)
 ----------------------------------------------------------------------
 -----
 title
 -----
 Symbolic Z-matrix:
 Charge =  0 Multiplicity = 1

 SCF Done:  E(RHF) =  -307.760479775     A.U. after   15 cycles

 1\1\GINC-SE029\Stability\RHF\Aug-CC-pVDZ\C6H10O1\OHZDE\09-Apr-2025\0\\
 #t hf aug-cc-pvdz symm=none int=(grid=ultrafine) guess=(read,tcheck) s
 table=(opt,rrhf)\\title\\0,1\C,0,2.01066835,0.59993921,-0.07805612\C,0
 ,0.92788212,-0.43773393,-0.35057033\C,0,0.01401491,-0.81963183,0.84282
 394\C,0,-1.26229633,-0.45847216,0.10901926\O,0,-2.497183,-0.87294081,0
 .57432386\C,0,-1.04121534,0.91124942,-0.46490682\C,0,-0.12901687,0.085
 69738,-1.35526397\H,0,2.74619486,0.20186513,0.62310437\H,0,1.60679389,
 1.51766286,0.35348141\H,0,2.5328895,0.8635734,-0.99955479\H,0,1.407284

 Normal termination of Gaussian 16 at Wed Apr  9 19:08:08 2025.
 Gaussian 16:  ES64L-G16RevC.01  3-Jul-2019

 ----------------------------------------------------------------------
 #t hf aug-cc-pvdz iop(5/13=1,5/36=2,99/5=2) pseudo=read geom=check gue
 ss=(read,tcheck) scf=(maxcycle=1)
 ----------------------------------------------------------------------
 -----
 title
 -----
 Structure from the checkpoint file:  "Grambow2020_wb97xd3_008622_forward_mol1.chk"
 Charge =  0 Multiplicity = 1

                         Standard orientation:
 ---------------------------------------------------------------------
 Center     Atomic      Atomic             Coordinates (Angstroms)
 Number     Number       Type             X           Y           Z
 ---------------------------------------------------------------------
      1          6           0       -2.372269   -0.026318   -0.370727
      2          6           0       -1.144791   -0.317658    0.484769
      3          6           0       -0.015357   -1.147898   -0.178758
      4          6           0        1.043364   -0.092543    0.072661
      5          8           0        2.389783   -0.387817   -0.042271
      6          6           0        0.463748    1.204878   -0.412259
      7          6           0       -0.369829    0.976982    0.836577
      8          1           0       -2.904250   -0.952644   -0.594344
      9          1           0       -2.113463    0.443032   -1.321667
     10          1           0       -3.060262    0.637920    0.155419
     11          1           0       -1.480683   -0.795256    1.406524
     12          1           0       -0.142277   -1.373814   -1.241064
     13          1           0        0.181515   -2.078550    0.352844
     14          1           0        2.825146    0.309347   -0.534982
     15          1           0        1.133436    2.060284   -0.341306
     16          1           0       -0.029839    1.151217   -1.380271
     17          1           0        0.843218    0.116341    1.243446
 ---------------------------------------------------------------------

 SCF Done:  E(RHF) =  -308.084662257     A.U. after    2 cycles

 The electronic state is 1-A.
 Alpha  occ. eigenvalues --  -20.57469 -11.32532 -11.26533 -11.24210 -11.24199
 Alpha  occ. eigenvalues --  -11.24121 -11.23391  -1.48557  -1.18832  -1.02425
 Alpha  occ. eigenvalues --   -0.96533  -0.87072  -0.83074  -0.73530  -0.69323
 Alpha  occ. eigenvalues --   -0.68831  -0.62399  -0.61589  -0.58480  -0.55958
 Alpha  occ. eigenvalues --   -0.54970  -0.52557  -0.51084  -0.49746  -0.45508
 Alpha  occ. eigenvalues --   -0.44059  -0.33512
 Alpha virt. eigenvalues --    0.03092   0.03545   0.03915   0.04287   0.05924
 Alpha virt. eigenvalues --    0.06216   0.06604   0.07127   0.07261   0.09707
 Alpha virt. eigenvalues --    0.10592   0.12183   0.13228   0.13761   0.14240

 Mulliken charges:
               1
     1  C   -0.209753
     2  C   -0.339891
     3  C   -0.055441
     4  C    0.900755
     5  O   -1.496313
     6  C    0.207253
     7  C   -0.440762
     8  H    0.186967
     9  H    0.152366
    10  H    0.170138
    11  H   -0.020679
    12  H    0.065219
    13  H    0.135505
    14  H    0.254867
    15  H   -0.042799
    16  H    0.064101
    17  H    0.468467
 Sum of Mulliken charges =   0.00000

 Dipole moment (field-independent basis, Debye):
    X=              0.0554    Y=             -0.4883    Z=             -2.4461  Tot=              2.4950

 Test job not archived.
 1\1\GINC-SE029\SP\RHF\Aug-CC-pVDZ\C6H10O1\OHZDE\09-Apr-2025\0\\#t hf a
 ug-cc-pvdz iop(5/13=1,5/36=2,99/5=2) pseudo=read geom=check guess=(rea
 d,tcheck) scf=(maxcycle=1)\\title\\0,1\C,0,2.01066835,0.59993921,-0.07
 805612\C,0,0.92788212,-0.43773393,-0.35057033\C,0,0.01401491,-0.819631
 83,0.84282394\C,0,-1.26229633,-0.45847216,0.10901926\O,0,-2.497183,-0.
 87294081,0.57432386\C,0,-1.04121534,0.91124942,-0.46490682\C,0,-0.1290
 1687,0.08569738,-1.35526397\H,0,2.74619486,0.20186513,0.62310437\H,0,1
 .60679389,1.51766286,0.35348141\H,0,2.5328895,0.8635734,-0.99955479\H,

 Normal termination of Gaussian 16 at Wed Apr  9 19:08:15 2025.
