 Gaussian 16, Revision C.01,

 ----------------------------------------------------------------------
 #t hf aug-cc-pvdz symm=none int=(grid=ultrafine) guess=(read,tcheck) s
 table=(opt,rrhf)
 ----------------------------------------------------------------------
 -----
 title
 -----
 Symbolic Z-matrix:
 Charge =  0 Multiplicity = 1

 SCF Done:  E(RHF) =  -316.409151245     A.U. after   15 cycles
 Normal termination of Gaussian 16 at Wed Apr  9 18:16:58 2025.
 Gaussian 16:  ES64L-G16RevC.01  3-Jul-2019

 ----------------------------------------------------------------------
 #t hf aug-cc-pvdz iop(5/13=1,5/36=2,99/5=2) pseudo=read geom=check gue
 ss=(read,tcheck) scf=(maxcycle=1)
 ----------------------------------------------------------------------
 -----
 title
 -----
 Structure from the checkpoint file:  "Grambow2020_wb97xd3_007268_reverse_mol2.chk"
 Charge =  0 Multiplicity = 1

                         Standard orientation:
 ---------------------------------------------------------------------
 Center     Atomic      Atomic             Coordinates (Angstroms)
 Number     Number       Type             X           Y           Z
 ---------------------------------------------------------------------
      1          7           0        1.582332   -0.856672    0.018999
      2          6           0        2.473198   -1.544239    0.326898
      3          6           0        0.583440    1.206479   -0.126640
      4          7           0        0.555424    2.339039    0.069056
      5          6           0       -2.583324    0.057019    0.303536
      6          6           0       -2.677937   -1.063531   -0.105082
      7          7           0        0.559227   -0.108361   -0.412730
      8          1           0       -2.502642    1.057381    0.667173
      9          1           0       -2.795030   -2.060081   -0.465753
     10          1           0       -0.353472   -0.549712   -0.320965
 ---------------------------------------------------------------------

 SCF Done:  E(RHF) =  -316.719342635     A.U. after    2 cycles

 The electronic state is 1-A.
 Alpha  occ. eigenvalues --  -15.65326 -15.60224 -15.53956 -11.34158 -11.31991
 Alpha  occ. eigenvalues --  -11.29015 -11.28644  -1.41542  -1.27404  -1.23331
 Alpha  occ. eigenvalues --   -1.07672  -0.97501  -0.88485  -0.80289  -0.72678
 Alpha  occ. eigenvalues --   -0.72425  -0.63731  -0.58482  -0.56863  -0.54222
 Alpha  occ. eigenvalues --   -0.51193  -0.47371  -0.46103  -0.45811
 Alpha virt. eigenvalues --    0.02461   0.03636   0.04908   0.07750   0.08236
 Alpha virt. eigenvalues --    0.08683   0.08950   0.09219   0.09835   0.10628
 Alpha virt. eigenvalues --    0.11869   0.12467   0.12739   0.12801   0.13740

 Mulliken charges:
               1
     1  N    0.626010
     2  C   -0.545038
     3  C   -1.305638
     4  N    0.793097
     5  C    0.350841
     6  C    0.001241
     7  N    0.175539
     8  H   -0.152327
     9  H   -0.219278
    10  H    0.275553
 Sum of Mulliken charges =  -0.00000

 Dipole moment (field-independent basis, Debye):
    X=             -3.2697    Y=             -2.8108    Z=             -0.5786  Tot=              4.3504

 Test job not archived.
 1\1\GINC-SE224\SP\RHF\Aug-CC-pVDZ\C4H3N3\OHZDE\09-Apr-2025\0\\#t hf au
 g-cc-pvdz iop(5/13=1,5/36=2,99/5=2) pseudo=read geom=check guess=(read
 ,tcheck) scf=(maxcycle=1)\\title\\0,1\N,0,2.19192012,0.35171551,-0.044
 69224\C,0,3.17745439,0.90306242,-0.33783124\C,0,0.87030224,-1.52608444
 ,0.00803524\N,0,0.65244078,-2.62417621,-0.25369893\C,0,-2.07212549,0.1
 4909843,-0.25763319\C,0,-1.97293192,1.24181706,0.21952428\N,0,1.068447
 55,-0.24575713,0.37236733\H,0,-2.16438899,-0.82587383,-0.6823473\H,0,-
 1.91726342,2.21915933,0.64214696\H,0,0.23915472,0.34336885,0.33448609\

 Normal termination of Gaussian 16 at Wed Apr  9 18:17:01 2025.
