 Gaussian 16, Revision C.01,

 ----------------------------------------------------------------------
 #t hf aug-cc-pvdz symm=none int=(grid=ultrafine) guess=(read,tcheck) s
 table=(opt,rrhf)
 ----------------------------------------------------------------------
 -----
 title
 -----
 Symbolic Z-matrix:
 Charge =  0 Multiplicity = 1

 SCF Done:  E(RHF) =  -231.680802006     A.U. after   15 cycles
 Normal termination of Gaussian 16 at Wed Apr  9 15:51:55 2025.
 Gaussian 16:  ES64L-G16RevC.01  3-Jul-2019

 ----------------------------------------------------------------------
 #t hf aug-cc-pvdz iop(5/13=1,5/36=2,99/5=2) pseudo=read geom=check gue
 ss=(read,tcheck) scf=(maxcycle=1)
 ----------------------------------------------------------------------
 -----
 title
 -----
 Structure from the checkpoint file:  "Grambow2020_b97d3_006872_reverse_mol1.chk"
 Charge =  0 Multiplicity = 1

                         Standard orientation:
 ---------------------------------------------------------------------
 Center     Atomic      Atomic             Coordinates (Angstroms)
 Number     Number       Type             X           Y           Z
 ---------------------------------------------------------------------
      1          6           0        1.286294   -0.532816   -0.369786
      2          6           0        0.980543    0.997890   -0.316313
      3          6           0       -0.945340    0.760651   -0.343326
      4          6           0       -1.202581   -0.745510   -0.272333
      5          6           0        0.099643   -0.875284    0.557573
      6          6           0        0.034844    0.677021    0.836034
      7          1           0        2.232472   -0.613407    0.189589
      8          1           0        1.398128   -1.050022   -1.335026
      9          1           0       -0.174375    1.096709   -1.220892
     10          1           0       -1.684463    1.562986   -0.388841
     11          1           0       -2.081629   -0.936334    0.357846
     12          1           0       -1.287122   -1.309897   -1.212540
     13          1           0        0.174668   -1.681422    1.297911
     14          1           0       -0.098092    1.239676    1.760855
 ---------------------------------------------------------------------

 SCF Done:  E(RHF) =  -231.927945759     A.U. after    2 cycles

 The electronic state is 1-A.
 Alpha  occ. eigenvalues --  -11.27421 -11.25646 -11.25037 -11.24921 -11.24847
 Alpha  occ. eigenvalues --  -11.23846  -1.21993  -0.99620  -0.96198  -0.86371
 Alpha  occ. eigenvalues --   -0.76430  -0.73335  -0.68498  -0.63188  -0.60519
 Alpha  occ. eigenvalues --   -0.54410  -0.53644  -0.49146  -0.47318  -0.45808
 Alpha  occ. eigenvalues --   -0.41459  -0.33841
 Alpha virt. eigenvalues --    0.03155   0.03494   0.03626   0.04596   0.05801
 Alpha virt. eigenvalues --    0.06302   0.06805   0.07465   0.09680   0.12334
 Alpha virt. eigenvalues --    0.12428   0.13694   0.13837   0.14422   0.14978

 Mulliken charges:
               1
     1  C   -0.117772
     2  C   -0.502571
     3  C   -0.392150
     4  C    0.176098
     5  C    0.103890
     6  C    0.364503
     7  H    0.178152
     8  H   -0.015855
     9  H    0.528350
    10  H   -0.111265
    11  H    0.105887
    12  H    0.012296
    13  H   -0.146920
    14  H   -0.182643
 Sum of Mulliken charges =   0.00000

 Dipole moment (field-independent basis, Debye):
    X=             -2.0004    Y=             -1.7553    Z=              0.7860  Tot=              2.7750

 Test job not archived.
 1\1\GINC-SE174\SP\RHF\Aug-CC-pVDZ\C6H8\OHZDE\09-Apr-2025\0\\#t hf aug-
 cc-pvdz iop(5/13=1,5/36=2,99/5=2) pseudo=read geom=check guess=(read,t
 check) scf=(maxcycle=1)\\title\\0,1\C,0,-1.2785059,-0.268447,0.6792062
 \C,0,-0.95193825,1.19892271,0.25543346\C,0,0.93225845,0.8453734,-0.045
 96552\C,0,1.13179313,-0.65928828,0.14354067\C,0,-0.3153944,-0.86255064
 ,-0.37192494\C,0,-0.27006064,0.59790708,-0.96891434\H,0,-2.32075316,-0
 .39421581,0.34372188\H,0,-1.2035992,-0.57889808,1.73263216\H,0,0.36558
 754,1.39615094,0.87759902\H,0,1.68491867,1.59078723,-0.3104967\H,0,1.8

 Normal termination of Gaussian 16 at Wed Apr  9 15:51:59 2025.
