 Gaussian 16, Revision C.01,

 ----------------------------------------------------------------------
 #t hf aug-cc-pvdz symm=none int=(grid=ultrafine) guess=(read,tcheck) s
 table=(opt,rrhf)
 ----------------------------------------------------------------------
 -----
 title
 -----
 Symbolic Z-matrix:
 Charge =  0 Multiplicity = 1

 SCF Done:  E(RHF) =  -359.633043796     A.U. after   15 cycles
 Normal termination of Gaussian 16 at Wed Apr  9 17:24:30 2025.
 Gaussian 16:  ES64L-G16RevC.01  3-Jul-2019

 ----------------------------------------------------------------------
 #t hf aug-cc-pvdz iop(5/13=1,5/36=2,99/5=2) pseudo=read geom=check gue
 ss=(read,tcheck) scf=(maxcycle=1)
 ----------------------------------------------------------------------
 -----
 title
 -----
 Structure from the checkpoint file:  "Grambow2020_wb97xd3_006595_forward_mol1.chk"
 Charge =  0 Multiplicity = 1

                         Standard orientation:
 ---------------------------------------------------------------------
 Center     Atomic      Atomic             Coordinates (Angstroms)
 Number     Number       Type             X           Y           Z
 ---------------------------------------------------------------------
      1          6           0       -2.234337   -0.678831   -0.116239
      2          7           0       -0.983889   -0.287428   -0.730747
      3          6           0       -0.333598    0.644177   -0.087299
      4          6           0        1.065874    0.827345   -0.659863
      5          8           0        1.878563   -0.358682   -0.190898
      6          6           0        1.346228   -1.130363    0.619885
      7          8           0       -0.567174    1.217566    0.997677
      8          1           0       -2.956842    0.144374   -0.116253
      9          1           0       -2.664216   -1.515314   -0.668347
     10          1           0       -2.115763   -0.973242    0.937083
     11          1           0        1.598327    1.688025   -0.262955
     12          1           0        1.141154    0.742455   -1.740005
     13          1           0        1.926594   -2.018580    0.862009
     14          1           0        0.401857   -0.900767    1.110560
 ---------------------------------------------------------------------

 SCF Done:  E(RHF) =  -359.995404053     A.U. after    2 cycles

 The electronic state is 1-A.
 Alpha  occ. eigenvalues --  -20.70755 -20.46626 -15.43198 -11.45785 -11.33060
 Alpha  occ. eigenvalues --  -11.30082 -11.21766  -1.64246  -1.40240  -1.16567
 Alpha  occ. eigenvalues --   -1.06993  -0.96433  -0.89532  -0.81321  -0.78919
 Alpha  occ. eigenvalues --   -0.72011  -0.69345  -0.64029  -0.61090  -0.60340
 Alpha  occ. eigenvalues --   -0.57959  -0.56371  -0.52016  -0.48612  -0.41853
 Alpha  occ. eigenvalues --   -0.38302  -0.33704
 Alpha virt. eigenvalues --    0.00714   0.01528   0.04078   0.05076   0.05302
 Alpha virt. eigenvalues --    0.06238   0.07305   0.07976   0.08263   0.10315
 Alpha virt. eigenvalues --    0.11224   0.12570   0.13228   0.13799   0.14998

 Mulliken charges:
               1
     1  C   -0.371705
     2  N    0.511686
     3  C    0.123856
     4  C    0.532682
     5  O   -0.987174
     6  C    0.719953
     7  O   -1.443089
     8  H    0.125028
     9  H    0.044546
    10  H    0.087104
    11  H    0.109716
    12  H    0.110097
    13  H    0.077889
    14  H    0.359411
 Sum of Mulliken charges =   0.00000

 Dipole moment (field-independent basis, Debye):
    X=              6.1333    Y=             -3.4468    Z=              0.6724  Tot=              7.0675

 Test job not archived.
 1\1\GINC-SE220\SP\RHF\Aug-CC-pVDZ\C4H7N1O2\OHZDE\09-Apr-2025\0\\#t hf
 aug-cc-pvdz iop(5/13=1,5/36=2,99/5=2) pseudo=read geom=check guess=(re
 ad,tcheck) scf=(maxcycle=1)\\title\\0,1\C,0,2.01547511,-0.64125999,-0.
 4307821\N,0,0.99457745,0.22352627,0.12089534\C,0,0.13968723,0.67790117
 ,-0.75517421\C,0,-1.02669449,1.37593603,-0.06800386\O,0,-1.89076005,0.
 2842632,0.52249966\C,0,-1.59635161,-0.88789123,0.24751331\O,0,0.007794
 53,0.45227723,-1.97673181\H,0,2.66725888,-0.1007286,-1.12553729\H,0,2.
 62869776,-1.04092152,0.37764301\H,0,1.59588233,-1.48045891,-1.00516107

 Normal termination of Gaussian 16 at Wed Apr  9 17:24:35 2025.
