 Gaussian 16, Revision C.01,

 ----------------------------------------------------------------------
 #t hf aug-cc-pvdz symm=none int=(grid=ultrafine) guess=(read,tcheck) s
 table=(opt,rrhf)
 ----------------------------------------------------------------------
 -----
 title
 -----
 Symbolic Z-matrix:
 Charge =  0 Multiplicity = 1

 SCF Done:  E(RHF) =  -245.837786004     A.U. after   14 cycles
 Normal termination of Gaussian 16 at Wed Apr  9 16:23:40 2025.
 Gaussian 16:  ES64L-G16RevC.01  3-Jul-2019

 ----------------------------------------------------------------------
 #t hf aug-cc-pvdz iop(5/13=1,5/36=2,99/5=2) pseudo=read geom=check gue
 ss=(read,tcheck) scf=(maxcycle=1)
 ----------------------------------------------------------------------
 -----
 title
 -----
 Structure from the checkpoint file:  "Grambow2020_b97d3_007206_reverse_mol2.chk"
 Charge =  0 Multiplicity = 1

                         Standard orientation:
 ---------------------------------------------------------------------
 Center     Atomic      Atomic             Coordinates (Angstroms)
 Number     Number       Type             X           Y           Z
 ---------------------------------------------------------------------
      1          8           0       -2.246473   -0.688567   -0.111906
      2          6           0       -2.084831    0.405843    0.187881
      3          6           0        1.300305    0.093340    0.424966
      4          6           0        1.746797   -1.045187   -0.142748
      5          7           0        0.883393    1.249999   -0.238700
      6          1           0        0.123501    1.751716    0.215323
      7          1           0        1.299020    0.200048    1.512046
      8          1           0        2.140050   -1.850620    0.472676
      9          1           0        1.763390   -1.182914   -1.225013
     10          1           0        0.688447    1.116335   -1.229478
 ---------------------------------------------------------------------

 SCF Done:  E(RHF) =  -246.081159013     A.U. after    2 cycles

 The electronic state is 1-A.
 Alpha  occ. eigenvalues --  -20.65861 -15.51120 -11.38462 -11.28115 -11.21775
 Alpha  occ. eigenvalues --   -1.59567  -1.21061  -0.99808  -0.80999  -0.80753
 Alpha  occ. eigenvalues --   -0.72840  -0.66028  -0.63227  -0.63069  -0.59560
 Alpha  occ. eigenvalues --   -0.56688  -0.53176  -0.52201  -0.33842
 Alpha virt. eigenvalues --    0.03947   0.04551   0.05068   0.06302   0.06727
 Alpha virt. eigenvalues --    0.07716   0.08774   0.09952   0.11883   0.12601
 Alpha virt. eigenvalues --    0.13905   0.14746   0.15242   0.16183   0.16490

 Mulliken charges:
               1
     1  O   -0.509031
     2  C    0.497216
     3  C   -0.450772
     4  C    0.137289
     5  N    0.492880
     6  H    0.141872
     7  H   -0.169808
     8  H   -0.076910
     9  H   -0.098998
    10  H    0.036264
 Sum of Mulliken charges =  -0.00000

 Dipole moment (field-independent basis, Debye):
    X=             -1.2765    Y=              0.3766    Z=             -0.0330  Tot=              1.3313

 Test job not archived.
 1\1\GINC-SE105\SP\RHF\Aug-CC-pVDZ\C3H5N1O1\OHZDE\09-Apr-2025\0\\#t hf
 aug-cc-pvdz iop(5/13=1,5/36=2,99/5=2) pseudo=read geom=check guess=(re
 ad,tcheck) scf=(maxcycle=1)\\title\\0,1\O,0,1.7637573,-1.63134965,1.56
 772074\C,0,2.263498,-0.65261922,1.2420219\C,0,-0.32989193,0.28805998,-
 0.75859423\C,0,-1.4399443,-0.44196821,-0.52894343\N,0,0.17210659,1.318
 73982,0.04004478\H,0,1.18725417,1.3832172,0.06476854\H,0,0.24164835,0.
 14236705,-1.67796766\H,0,-1.79381439,-1.15493347,-1.26960074\H,0,-2.03
 43406,-0.3194816,0.37782692\H,0,-0.21574519,1.3449481,0.98153019\\Vers

 Normal termination of Gaussian 16 at Wed Apr  9 16:23:47 2025.
