 Gaussian 16, Revision C.01,

 ----------------------------------------------------------------------
 #t hf aug-cc-pvdz symm=none int=(grid=ultrafine) guess=(read,tcheck) s
 table=(opt,rrhf)
 ----------------------------------------------------------------------
 -----
 title
 -----
 Symbolic Z-matrix:
 Charge =  0 Multiplicity = 1

 SCF Done:  E(RHF) =  -152.308570458     A.U. after   17 cycles
 Normal termination of Gaussian 16 at Wed Apr  9 03:09:06 2025.
 Gaussian 16:  ES64L-G16RevC.01  3-Jul-2019

 ----------------------------------------------------------------------
 #t hf aug-cc-pvdz iop(5/13=1,5/36=2,99/5=2) pseudo=read geom=check gue
 ss=(read,tcheck) scf=(maxcycle=1)
 ----------------------------------------------------------------------
 -----
 title
 -----
 Structure from the checkpoint file:  "Grambow2020_b97d3_006637_reverse_mol1.chk"
 Charge =  0 Multiplicity = 1

                         Standard orientation:
 ---------------------------------------------------------------------
 Center     Atomic      Atomic             Coordinates (Angstroms)
 Number     Number       Type             X           Y           Z
 ---------------------------------------------------------------------
      1          6           0        0.264273   -0.528690    0.000020
      2          6           0        1.381625    0.102295   -0.004283
      3          6           0       -1.131864   -0.548596    0.000302
      4          6           0       -0.985557    0.753035    0.001401
      5          1           0        2.458776    0.107465    0.019213
      6          1           0        0.370361    1.224265   -0.003849
 ---------------------------------------------------------------------

 SCF Done:  E(RHF) =  -152.458951004     A.U. after    2 cycles

 The electronic state is 1-A.
 Alpha  occ. eigenvalues --  -11.37492 -11.32428 -11.30577 -11.26976  -1.21899
 Alpha  occ. eigenvalues --   -1.03200  -0.77643  -0.74671  -0.62379  -0.54520
 Alpha  occ. eigenvalues --   -0.47830  -0.41776  -0.36499
 Alpha virt. eigenvalues --    0.02725   0.02895   0.05816   0.06005   0.06275
 Alpha virt. eigenvalues --    0.07462   0.09607   0.10878   0.11524   0.13714
 Alpha virt. eigenvalues --    0.13754   0.15193   0.16236   0.16773   0.16921

 Mulliken charges:
               1
     1  C    0.491054
     2  C   -0.333214
     3  C   -0.370213
     4  C   -0.353877
     5  H   -0.155973
     6  H    0.722223
 Sum of Mulliken charges =   0.00000

 Dipole moment (field-independent basis, Debye):
    X=              3.2443    Y=              0.7314    Z=              0.0365  Tot=              3.3260

 Test job not archived.
 1\1\GINC-SE054\SP\RHF\Aug-CC-pVDZ\C4H2\OHZDE\09-Apr-2025\0\\#t hf aug-
 cc-pvdz iop(5/13=1,5/36=2,99/5=2) pseudo=read geom=check guess=(read,t
 check) scf=(maxcycle=1)\\title\\0,1\C,0,0.05831668,-0.68434709,-0.2956
 4744\C,0,0.8668492,0.045961,0.38226084\C,0,-1.10379865,-0.84897855,-1.
 05194086\C,0,-1.24377979,0.43088625,-0.81110555\H,0,1.75335381,0.15805
 572,0.9842401\H,0,-0.20341725,1.03096666,-0.02488109\\Version=ES64L-G1
 6RevC.01\State=1-A\HF=-152.458951\RMSD=1.821e-02\Dipole=1.0008128,0.40
 93547,0.7369264\Quadrupole=0.8638768,-0.3117988,-0.552078,-0.3947711,1

 Normal termination of Gaussian 16 at Wed Apr  9 03:09:08 2025.
