 Gaussian 16, Revision C.01,

 ----------------------------------------------------------------------
 #t hf aug-cc-pvdz symm=none int=(grid=ultrafine) guess=(read,tcheck) s
 table=(opt,rrhf)
 ----------------------------------------------------------------------
 -----
 title
 -----
 Symbolic Z-matrix:
 Charge =  0 Multiplicity = 1

 SCF Done:  E(RHF) =  -344.797800321     A.U. after   13 cycles

 1\1\GINC-SE162\Stability\RHF\Aug-CC-pVDZ\C5H10O2\OHZDE\09-Apr-2025\0\\
 #t hf aug-cc-pvdz symm=none int=(grid=ultrafine) guess=(read,tcheck) s
 table=(opt,rrhf)\\title\\0,1\O,0,2.53579109,0.15971969,1.16771639\C,0,
 2.34266432,-0.17941764,0.03574253\C,0,-0.3630131,-1.98527013,0.2512908
 3\C,0,-0.86262262,-0.76571774,0.23492353\C,0,-1.57543373,0.10762414,-0
 .76432379\O,0,-1.61364538,1.18439998,0.18792619\C,0,-0.9584009,0.38833
 025,1.19729532\H,0,0.83160579,2.94287056,-0.88621786\H,0,2.73721659,-1
 .13203584,-0.36522259\H,0,1.76389085,0.44394711,-0.67084075\H,0,0.1213

 Normal termination of Gaussian 16 at Wed Apr  9 18:24:51 2025.
 Gaussian 16:  ES64L-G16RevC.01  3-Jul-2019

 ----------------------------------------------------------------------
 #t hf aug-cc-pvdz iop(5/13=1,5/36=2,99/5=2) pseudo=read geom=check gue
 ss=(read,tcheck) scf=(maxcycle=1)
 ----------------------------------------------------------------------
 -----
 title
 -----
 Structure from the checkpoint file:  "Grambow2020_wb97xd3_007539_reverse_mol2.chk"
 Charge =  0 Multiplicity = 1

                         Standard orientation:
 ---------------------------------------------------------------------
 Center     Atomic      Atomic             Coordinates (Angstroms)
 Number     Number       Type             X           Y           Z
 ---------------------------------------------------------------------
      1          8           0       -2.629727   -0.462590    0.489997
      2          6           0       -2.298417   -0.099410   -0.601796
      3          6           0        0.153021    1.960421    0.011232
      4          6           0        0.765456    0.795540    0.083063
      5          6           0        1.705279    0.001937   -0.786562
      6          8           0        1.700903   -1.071701    0.169978
      7          6           0        0.823642   -0.349446    1.059168
      8          1           0       -0.366786   -3.053795   -1.251720
      9          1           0       -2.717276    0.812580   -1.067367
     10          1           0       -1.559806   -0.659072   -1.205165
     11          1           0       -0.498096    2.302422    0.806919
     12          1           0        0.289647    2.616397   -0.840599
     13          1           0        0.186340   -2.710460   -0.884048
     14          1           0        2.703892    0.429239   -0.920215
     15          1           0        1.311975   -0.311225   -1.759540
     16          1           0       -0.119146   -0.876445    1.235207
     17          1           0        1.305951   -0.129561    2.016098
 ---------------------------------------------------------------------

 SCF Done:  E(RHF) =  -345.156597348     A.U. after    2 cycles

 The electronic state is 1-A.
 Alpha  occ. eigenvalues --  -20.56098 -20.54738 -11.35056 -11.30006 -11.29391
 Alpha  occ. eigenvalues --  -11.26182 -11.24474  -1.49175  -1.47615  -1.07874
 Alpha  occ. eigenvalues --   -0.95480  -0.92612  -0.87286  -0.74628  -0.70192
 Alpha  occ. eigenvalues --   -0.68678  -0.67890  -0.65394  -0.65123  -0.58414
 Alpha  occ. eigenvalues --   -0.58330  -0.58136  -0.53821  -0.49821  -0.48310
 Alpha  occ. eigenvalues --   -0.44373  -0.43097  -0.37738
 Alpha virt. eigenvalues --    0.02859   0.03725   0.04093   0.04793   0.06121
 Alpha virt. eigenvalues --    0.06203   0.06841   0.07235   0.08549   0.09844
 Alpha virt. eigenvalues --    0.10593   0.11605   0.11907   0.12528   0.13521

 Mulliken charges:
               1
     1  O   -0.868296
     2  C    0.609456
     3  C    0.198859
     4  C   -0.083942
     5  C    0.419973
     6  O   -1.247549
     7  C    0.551417
     8  H    0.105342
     9  H    0.112804
    10  H    0.127880
    11  H   -0.146946
    12  H   -0.137760
    13  H   -0.112712
    14  H    0.100746
    15  H    0.139635
    16  H    0.127482
    17  H    0.103610
 Sum of Mulliken charges =  -0.00000

 Dipole moment (field-independent basis, Debye):
    X=              0.2477    Y=              2.3679    Z=             -2.1546  Tot=              3.2110

 Test job not archived.
 1\1\GINC-SE162\SP\RHF\Aug-CC-pVDZ\C5H10O2\OHZDE\09-Apr-2025\0\\#t hf a
 ug-cc-pvdz iop(5/13=1,5/36=2,99/5=2) pseudo=read geom=check guess=(rea
 d,tcheck) scf=(maxcycle=1)\\title\\0,1\O,0,2.53579109,0.15971969,1.167
 71639\C,0,2.34266432,-0.17941764,0.03574253\C,0,-0.3630131,-1.98527013
 ,0.25129083\C,0,-0.86262262,-0.76571774,0.23492353\C,0,-1.57543373,0.1
 0762414,-0.76432379\O,0,-1.61364538,1.18439998,0.18792619\C,0,-0.95840
 09,0.38833025,1.19729532\H,0,0.83160579,2.94287056,-0.88621786\H,0,2.7
 3721659,-1.13203584,-0.36522259\H,0,1.76389085,0.44394711,-0.67084075\

 Normal termination of Gaussian 16 at Wed Apr  9 18:24:57 2025.
