 Gaussian 16, Revision C.01,

 ----------------------------------------------------------------------
 #t hf aug-cc-pvdz symm=none int=(grid=ultrafine) guess=(read,tcheck) s
 table=(opt,rrhf)
 ----------------------------------------------------------------------
 -----
 title
 -----
 Symbolic Z-matrix:
 Charge =  0 Multiplicity = 1

 SCF Done:  E(RHF) =  -358.448437174     A.U. after   16 cycles
 Normal termination of Gaussian 16 at Wed Apr  9 17:41:19 2025.
 Gaussian 16:  ES64L-G16RevC.01  3-Jul-2019

 ----------------------------------------------------------------------
 #t hf aug-cc-pvdz iop(5/13=1,5/36=2,99/5=2) pseudo=read geom=check gue
 ss=(read,tcheck) scf=(maxcycle=1)
 ----------------------------------------------------------------------
 -----
 title
 -----
 Structure from the checkpoint file:  "Grambow2020_wb97xd3_006776_reverse_mol1.chk"
 Charge =  0 Multiplicity = 1

                         Standard orientation:
 ---------------------------------------------------------------------
 Center     Atomic      Atomic             Coordinates (Angstroms)
 Number     Number       Type             X           Y           Z
 ---------------------------------------------------------------------
      1          8           0        2.020742   -0.017667   -0.343096
      2          6           0        1.083513   -0.430306    0.382050
      3          6           0        0.436157    0.858168    0.540809
      4          6           0       -0.505713    1.267322   -0.480072
      5          7           0       -1.552414    0.490397    0.208104
      6          6           0       -1.337974   -0.799695    0.077345
      7          8           0       -0.263131   -1.340809   -0.349672
      8          1           0        1.228625   -1.170981    1.172334
      9          1           0        0.685609    1.492133    1.384763
     10          1           0       -0.256265    0.878836   -1.468207
     11          1           0       -0.750285    2.323911   -0.495310
     12          1           0       -2.157580   -1.461808    0.371049
 ---------------------------------------------------------------------

 SCF Done:  E(RHF) =  -358.804826947     A.U. after    2 cycles

 The electronic state is 1-A.
 Alpha  occ. eigenvalues --  -20.55951 -20.53385 -15.51750 -11.38419 -11.38165
 Alpha  occ. eigenvalues --  -11.36615 -11.30253  -1.50234  -1.46051  -1.25710
 Alpha  occ. eigenvalues --   -1.08257  -0.95627  -0.86573  -0.78108  -0.77423
 Alpha  occ. eigenvalues --   -0.69467  -0.68771  -0.68029  -0.62731  -0.61339
 Alpha  occ. eigenvalues --   -0.55177  -0.53323  -0.48373  -0.45769  -0.42536
 Alpha  occ. eigenvalues --   -0.39647
 Alpha virt. eigenvalues --    0.02718   0.03543   0.04011   0.04258   0.05392
 Alpha virt. eigenvalues --    0.06111   0.08742   0.09558   0.10276   0.11236
 Alpha virt. eigenvalues --    0.12232   0.13009   0.13920   0.14471   0.15116

 Mulliken charges:
               1
     1  O   -1.172668
     2  C    1.440876
     3  C    0.085607
     4  C    0.095134
     5  N    0.352550
     6  C    0.180731
     7  O   -1.144233
     8  H    0.080075
     9  H   -0.075339
    10  H    0.097933
    11  H    0.026905
    12  H    0.032428
 Sum of Mulliken charges =  -0.00000

 Dipole moment (field-independent basis, Debye):
    X=             -0.8076    Y=              1.4032    Z=              2.2303  Tot=              2.7560

 Test job not archived.
 1\1\GINC-SE112\SP\RHF\Aug-CC-pVDZ\C4H5N1O2\OHZDE\09-Apr-2025\0\\#t hf
 aug-cc-pvdz iop(5/13=1,5/36=2,99/5=2) pseudo=read geom=check guess=(re
 ad,tcheck) scf=(maxcycle=1)\\title\\0,1\O,0,1.54750368,0.46514025,-1.4
 6843066\C,0,1.07717119,-0.4391941,-0.73667099\C,0,0.8010609,0.41574857
 ,0.40230862\C,0,-0.46413299,1.11972085,0.42307008\N,0,-1.0983705,-0.08
 585904,0.98618571\C,0,-1.17214245,-1.03893704,0.08417659\O,0,-0.568302
 71,-1.05384886,-1.04080788\H,0,1.50407911,-1.44403058,-0.68914056\H,0,
 1.54198685,0.53509781,1.18536768\H,0,-0.82500518,1.37399557,-0.5742627

 Normal termination of Gaussian 16 at Wed Apr  9 17:41:24 2025.
