 Gaussian 16, Revision C.01,

 ----------------------------------------------------------------------
 #t hf aug-cc-pvdz symm=none int=(grid=ultrafine) guess=(read,tcheck) s
 table=(opt,rrhf)
 ----------------------------------------------------------------------
 -----
 title
 -----
 Symbolic Z-matrix:
 Charge =  0 Multiplicity = 1

 SCF Done:  E(RHF) =  -302.840129341     A.U. after   14 cycles
 Normal termination of Gaussian 16 at Wed Apr  9 18:45:39 2025.
 Gaussian 16:  ES64L-G16RevC.01  3-Jul-2019

 ----------------------------------------------------------------------
 #t hf aug-cc-pvdz iop(5/13=1,5/36=2,99/5=2) pseudo=read geom=check gue
 ss=(read,tcheck) scf=(maxcycle=1)
 ----------------------------------------------------------------------
 -----
 title
 -----
 Structure from the checkpoint file:  "Grambow2020_wb97xd3_008035_reverse_mol2.chk"
 Charge =  0 Multiplicity = 1

                         Standard orientation:
 ---------------------------------------------------------------------
 Center     Atomic      Atomic             Coordinates (Angstroms)
 Number     Number       Type             X           Y           Z
 ---------------------------------------------------------------------
      1          6           0        1.934733    1.271146   -0.089630
      2          6           0        1.619026    0.015034   -0.360233
      3          6           0        0.889461   -0.901386    0.578534
      4          7           0       -0.204346   -1.586657   -0.089627
      5          6           0       -1.359151   -0.812779   -0.360781
      6          6           0       -1.529299    0.445707   -0.038105
      7          7           0       -1.732066    1.609254    0.291598
      8          1           0        1.644589    1.737572    0.846560
      9          1           0        2.493833    1.878877   -0.790635
     10          1           0       -1.369383    2.289689   -0.376129
     11          1           0        1.902953   -0.429919   -1.310347
     12          1           0        0.562001   -0.339297    1.466287
     13          1           0        1.583145   -1.673057    0.923919
     14          1           0       -0.452902   -2.438822    0.390773
     15          1           0       -2.137974   -1.289548   -0.942939
 ---------------------------------------------------------------------

 SCF Done:  E(RHF) =  -303.157824382     A.U. after    2 cycles

 The electronic state is 1-A.
 Alpha  occ. eigenvalues --  -15.51746 -15.50984 -11.30453 -11.27169 -11.27142
 Alpha  occ. eigenvalues --  -11.24271 -11.23446  -1.24945  -1.22428  -1.06832
 Alpha  occ. eigenvalues --   -1.00316  -0.92042  -0.79024  -0.77016  -0.72395
 Alpha  occ. eigenvalues --   -0.71051  -0.66271  -0.62531  -0.59402  -0.58642
 Alpha  occ. eigenvalues --   -0.55499  -0.51390  -0.49830  -0.47053  -0.38018
 Alpha  occ. eigenvalues --   -0.33616
 Alpha virt. eigenvalues --    0.03339   0.03835   0.04507   0.04716   0.05678
 Alpha virt. eigenvalues --    0.05801   0.06589   0.07309   0.09802   0.10864
 Alpha virt. eigenvalues --    0.11903   0.12460   0.13144   0.14345   0.14666

 Mulliken charges:
               1
     1  C   -0.129198
     2  C    0.659139
     3  C   -0.581008
     4  N    0.535272
     5  C    0.101501
     6  C   -1.637915
     7  N    0.858539
     8  H   -0.075823
     9  H   -0.107072
    10  H    0.204535
    11  H   -0.154827
    12  H    0.101958
    13  H    0.068904
    14  H    0.265694
    15  H   -0.109697
 Sum of Mulliken charges =  -0.00000

 Dipole moment (field-independent basis, Debye):
    X=              0.9784    Y=             -1.2271    Z=             -0.5599  Tot=              1.6663

 Test job not archived.
 1\1\GINC-SE219\SP\RHF\Aug-CC-pVDZ\C5H8N2\OHZDE\09-Apr-2025\0\\#t hf au
 g-cc-pvdz iop(5/13=1,5/36=2,99/5=2) pseudo=read geom=check guess=(read
 ,tcheck) scf=(maxcycle=1)\\title\\0,1\C,0,1.85312971,0.24803403,-0.950
 33154\C,0,1.0835831,0.86889033,-0.07109896\C,0,-0.37898555,1.14604234,
 -0.26463508\N,0,-1.15223851,0.76451355,0.9053923\C,0,-1.35786103,-0.62
 350199,1.09805908\C,0,-0.93671477,-1.57638274,0.30338272\N,0,-0.593315
 88,-2.48428128,-0.44592242\H,0,1.44930871,-0.13978019,-1.88023336\H,0,
 2.91245171,0.10478848,-0.77525097\H,0,0.3587164,-2.81025656,-0.2792976

 Normal termination of Gaussian 16 at Wed Apr  9 18:45:44 2025.
