 Gaussian 16, Revision C.01,

 ----------------------------------------------------------------------
 #t hf aug-cc-pvdz symm=none int=(grid=ultrafine) guess=(read,tcheck) s
 table=(opt,rrhf)
 ----------------------------------------------------------------------
 -----
 title
 -----
 Symbolic Z-matrix:
 Charge =  0 Multiplicity = 1

 SCF Done:  E(RHF) =  -323.897330312     A.U. after   15 cycles
 Normal termination of Gaussian 16 at Wed Apr  9 18:16:24 2025.
 Gaussian 16:  ES64L-G16RevC.01  3-Jul-2019

 ----------------------------------------------------------------------
 #t hf aug-cc-pvdz iop(5/13=1,5/36=2,99/5=2) pseudo=read geom=check gue
 ss=(read,tcheck) scf=(maxcycle=1)
 ----------------------------------------------------------------------
 -----
 title
 -----
 Structure from the checkpoint file:  "Grambow2020_wb97xd3_007251_reverse_mol2.chk"
 Charge =  0 Multiplicity = 1

                         Standard orientation:
 ---------------------------------------------------------------------
 Center     Atomic      Atomic             Coordinates (Angstroms)
 Number     Number       Type             X           Y           Z
 ---------------------------------------------------------------------
      1          6           0        0.928377    1.510976    0.332581
      2          6           0        0.880385    0.021644    0.089197
      3          6           0        2.104743   -0.562124   -0.568340
      4          6           0        0.073402   -0.822693    1.023763
      5          8           0       -2.572140    0.024568    0.004731
      6          6           0       -1.537864    0.124959   -0.601690
      7          7           0       -0.384646   -0.567697   -0.316228
      8          1           0        1.055632    2.056400   -0.605378
      9          1           0        1.774780    1.757756    0.975994
     10          1           0        0.017899    1.868168    0.816791
     11          1           0        2.986320   -0.403903    0.056456
     12          1           0        1.980685   -1.631742   -0.735346
     13          1           0        2.284530   -0.084524   -1.534130
     14          1           0        0.385214   -1.840298    1.230639
     15          1           0       -0.471090   -0.331618    1.823768
     16          1           0       -1.438588    0.750527   -1.506102
 ---------------------------------------------------------------------

 SCF Done:  E(RHF) =  -324.237139586     A.U. after    2 cycles

 The electronic state is 1-A.
 Alpha  occ. eigenvalues --  -20.52840 -15.52134 -11.35863 -11.29781 -11.27638
 Alpha  occ. eigenvalues --  -11.24824 -11.24116  -1.47358  -1.30961  -1.06369
 Alpha  occ. eigenvalues --   -0.98927  -0.96374  -0.82804  -0.77638  -0.71309
 Alpha  occ. eigenvalues --   -0.68206  -0.66094  -0.62491  -0.60209  -0.57145
 Alpha  occ. eigenvalues --   -0.56178  -0.54415  -0.52433  -0.51084  -0.49825
 Alpha  occ. eigenvalues --   -0.42909  -0.41468
 Alpha virt. eigenvalues --    0.03137   0.03755   0.03840   0.04385   0.05726
 Alpha virt. eigenvalues --    0.05895   0.06270   0.07200   0.09627   0.09836
 Alpha virt. eigenvalues --    0.11702   0.12188   0.13197   0.14045   0.14264

 Mulliken charges:
               1
     1  C   -0.340157
     2  C   -1.393980
     3  C   -0.439097
     4  C    0.455360
     5  O   -1.110238
     6  C    0.783218
     7  N    0.861581
     8  H    0.250401
     9  H    0.220711
    10  H    0.161457
    11  H    0.244586
    12  H    0.163413
    13  H    0.233633
    14  H   -0.094774
    15  H   -0.098778
    16  H    0.102665
 Sum of Mulliken charges =  -0.00000

 Dipole moment (field-independent basis, Debye):
    X=              3.9490    Y=              1.0656    Z=              0.1190  Tot=              4.0919

 Test job not archived.
 1\1\GINC-SE014\SP\RHF\Aug-CC-pVDZ\C5H9N1O1\OHZDE\09-Apr-2025\0\\#t hf
 aug-cc-pvdz iop(5/13=1,5/36=2,99/5=2) pseudo=read geom=check guess=(re
 ad,tcheck) scf=(maxcycle=1)\\title\\0,1\C,0,0.77678833,1.14105943,0.55
 651453\C,0,0.34259845,-0.1925523,-0.00259997\C,0,1.3495943,-0.87510412
 ,-0.8926969\C,0,-0.61090522,-1.01992506,0.79978783\O,0,-2.99687269,0.6
 4622218,0.26473314\C,0,-1.99804126,0.64088557,-0.40598212\N,0,-1.04673
 075,-0.35214841,-0.39793395\H,0,0.99751676,1.84829609,-0.24631997\H,0,
 1.68502128,1.02017856,1.14962427\H,0,0.00825557,1.57730652,1.1968756\H

 Normal termination of Gaussian 16 at Wed Apr  9 18:16:30 2025.
