 Gaussian 16, Revision C.01,

 ----------------------------------------------------------------------
 #t hf aug-cc-pvdz symm=none int=(grid=ultrafine) guess=(read,tcheck) s
 table=(opt,rrhf)
 ----------------------------------------------------------------------
 -----
 title
 -----
 Symbolic Z-matrix:
 Charge =  0 Multiplicity = 1

 SCF Done:  E(RHF) =  -318.851256547     A.U. after   14 cycles
 Normal termination of Gaussian 16 at Wed Apr  9 18:00:03 2025.
 Gaussian 16:  ES64L-G16RevC.01  3-Jul-2019

 ----------------------------------------------------------------------
 #t hf aug-cc-pvdz iop(5/13=1,5/36=2,99/5=2) pseudo=read geom=check gue
 ss=(read,tcheck) scf=(maxcycle=1)
 ----------------------------------------------------------------------
 -----
 title
 -----
 Structure from the checkpoint file:  "Grambow2020_wb97xd3_006924_reverse_mol2.chk"
 Charge =  0 Multiplicity = 1

                         Standard orientation:
 ---------------------------------------------------------------------
 Center     Atomic      Atomic             Coordinates (Angstroms)
 Number     Number       Type             X           Y           Z
 ---------------------------------------------------------------------
      1          7           0        2.442857   -0.398795    0.009910
      2          6           0        1.002149   -0.099556   -0.006685
      3          6           0       -0.069845   -0.978889   -0.025524
      4          6           0       -1.174810   -0.103173   -0.013198
      5          7           0       -2.533062   -0.501748   -0.081109
      6          6           0       -0.662219    1.190991    0.011707
      7          7           0        0.699917    1.187053    0.010474
      8          1           0        2.738010   -0.908083    0.841975
      9          1           0        2.756146   -0.911441   -0.813214
     10          1           0       -0.074293   -2.058023   -0.072876
     11          1           0       -3.146868    0.297831   -0.033216
     12          1           0       -2.775626   -1.131079    0.670541
     13          1           0       -1.213693    2.121291    0.021204
     14          1           0        2.876701    0.527694    0.012853
 ---------------------------------------------------------------------

 SCF Done:  E(RHF) =  -319.187173314     A.U. after    2 cycles

 The electronic state is 1-A.
 Alpha  occ. eigenvalues --  -15.66070 -15.46521 -15.44366 -11.25906 -11.21143
 Alpha  occ. eigenvalues --  -11.18879 -11.18657  -1.34278  -1.22254  -1.15416
 Alpha  occ. eigenvalues --   -0.98307  -0.93768  -0.83112  -0.82721  -0.79140
 Alpha  occ. eigenvalues --   -0.73168  -0.70210  -0.65810  -0.58178  -0.57479
 Alpha  occ. eigenvalues --   -0.53993  -0.51510  -0.47125  -0.43300  -0.29884
 Alpha  occ. eigenvalues --   -0.26011
 Alpha virt. eigenvalues --    0.00134   0.03754   0.03955   0.04751   0.05852
 Alpha virt. eigenvalues --    0.06502   0.08329   0.09118   0.10905   0.12143
 Alpha virt. eigenvalues --    0.13119   0.13397   0.14649   0.14890   0.16090

 Mulliken charges:
               1
     1  N    0.324276
     2  C   -2.288300
     3  C    0.844649
     4  C   -1.184081
     5  N    0.700185
     6  C   -0.122485
     7  N    0.764250
     8  H    0.476836
     9  H    0.479590
    10  H   -0.214638
    11  H    0.031329
    12  H    0.139798
    13  H   -0.213961
    14  H    0.262551
 Sum of Mulliken charges =  -0.00000

 Dipole moment (field-independent basis, Debye):
    X=              6.4048    Y=             -3.4044    Z=              1.1542  Tot=              7.3447

 Test job not archived.
 1\1\GINC-SE220\SP\RHF\Aug-CC-pVDZ\C4H7N3\OHZDE\09-Apr-2025\0\\#t hf au
 g-cc-pvdz iop(5/13=1,5/36=2,99/5=2) pseudo=read geom=check guess=(read
 ,tcheck) scf=(maxcycle=1)\\title\\0,1\N,0,-2.40448353,-0.05427002,-0.0
 6287701\C,0,-0.94358207,0.11308061,-0.00614478\C,0,0.03619578,-0.84829
 179,0.19020419\C,0,1.2204487,-0.08611507,0.12230776\N,0,2.52942306,-0.
 59239473,0.3187467\C,0,0.83743989,1.23302475,-0.10442006\N,0,-0.517436
 89,1.35228282,-0.17871087\H,0,-2.71166465,-0.64530019,-0.83433354\H,0,
 -2.80111694,-0.41739305,0.80275177\H,0,-0.06616073,-1.90637891,0.38195

 Normal termination of Gaussian 16 at Wed Apr  9 18:00:08 2025.
