 Gaussian 16, Revision C.01,

 ----------------------------------------------------------------------
 #t hf aug-cc-pvdz symm=none int=(grid=ultrafine) guess=(read,tcheck) s
 table=(opt,rrhf)
 ----------------------------------------------------------------------
 -----
 title
 -----
 Symbolic Z-matrix:
 Charge =  0 Multiplicity = 1

 SCF Done:  E(RHF) =  -358.356439540     A.U. after   16 cycles
 Normal termination of Gaussian 16 at Wed Apr  9 03:34:07 2025.
 Gaussian 16:  ES64L-G16RevC.01  3-Jul-2019

 ----------------------------------------------------------------------
 #t hf aug-cc-pvdz iop(5/13=1,5/36=2,99/5=2) pseudo=read geom=check gue
 ss=(read,tcheck) scf=(maxcycle=1)
 ----------------------------------------------------------------------
 -----
 title
 -----
 Structure from the checkpoint file:  "Grambow2020_wb97xd3_007069_forward_mol1.chk"
 Charge =  0 Multiplicity = 1

                         Standard orientation:
 ---------------------------------------------------------------------
 Center     Atomic      Atomic             Coordinates (Angstroms)
 Number     Number       Type             X           Y           Z
 ---------------------------------------------------------------------
      1          8           0        2.188842   -0.180151    0.149922
      2          6           0        1.008975   -0.059670    0.100253
      3          7           0        0.363302    1.170413   -0.315932
      4          6           0       -0.926039    1.123575   -0.057427
      5          6           0       -1.407368   -0.279578    0.255011
      6          8           0       -0.880096   -1.143818   -0.790230
      7          6           0       -0.128563   -1.001242    0.400545
      8          1           0        0.880474    1.926926   -0.737997
      9          1           0       -1.566485    1.968580   -0.274922
     10          1           0       -1.661448    1.229245    1.690118
     11          1           0       -1.998261    0.440626    1.438325
     12          1           0        0.050606   -1.865018    1.028179
 ---------------------------------------------------------------------

 SCF Done:  E(RHF) =  -358.711924876     A.U. after    2 cycles

 The electronic state is 1-A.
 Alpha  occ. eigenvalues --  -20.58370 -20.56744 -15.61195 -11.40976 -11.39371
 Alpha  occ. eigenvalues --  -11.31121 -11.27546  -1.53670  -1.50564  -1.34259
 Alpha  occ. eigenvalues --   -1.03511  -1.01555  -0.87255  -0.86138  -0.79373
 Alpha  occ. eigenvalues --   -0.71564  -0.69852  -0.67409  -0.64437  -0.61084
 Alpha  occ. eigenvalues --   -0.56474  -0.52063  -0.50503  -0.45747  -0.43355
 Alpha  occ. eigenvalues --   -0.33657
 Alpha virt. eigenvalues --    0.01711   0.02953   0.04190   0.04975   0.06264
 Alpha virt. eigenvalues --    0.07176   0.08579   0.09981   0.10283   0.10584
 Alpha virt. eigenvalues --    0.11814   0.12706   0.13252   0.13899   0.15239

 Mulliken charges:
               1
     1  O   -1.167328
     2  C    0.879978
     3  N    0.848449
     4  C   -0.572436
     5  C    0.068602
     6  O   -1.287429
     7  C    1.004485
     8  H    0.045038
     9  H   -0.081745
    10  H   -0.080706
    11  H    0.328354
    12  H    0.014738
 Sum of Mulliken charges =   0.00000

 Dipole moment (field-independent basis, Debye):
    X=              0.4441    Y=              4.0463    Z=             -0.6357  Tot=              4.1200

 Test job not archived.
 1\1\GINC-SE332\SP\RHF\Aug-CC-pVDZ\C4H5N1O2\OHZDE\09-Apr-2025\0\\#t hf
 aug-cc-pvdz iop(5/13=1,5/36=2,99/5=2) pseudo=read geom=check guess=(re
 ad,tcheck) scf=(maxcycle=1)\\title\\0,1\O,0,0.98219547,2.3527066,0.315
 41042\C,0,0.48630315,1.2745735,0.28734965\N,0,1.25885663,0.06072347,0.
 1058625\C,0,0.46280031,-0.96094528,-0.12631586\C,0,-0.98510448,-0.6591
 8422,0.20631731\O,0,-0.9927902,-0.06476646,1.53449862\C,0,-0.93833857,
 0.80067375,0.41596218\H,0,2.26641628,0.05791958,0.1581529\H,0,0.866711
 01,-1.94712728,-0.31554736\H,0,-0.48372586,-1.21937478,-1.75211078\H,0

 Normal termination of Gaussian 16 at Wed Apr  9 03:34:11 2025.
