 Gaussian 16, Revision C.01,

 ----------------------------------------------------------------------
 #t hf aug-cc-pvdz symm=none int=(grid=ultrafine) guess=(read,tcheck) s
 table=(opt,rrhf)
 ----------------------------------------------------------------------
 -----
 title
 -----
 Symbolic Z-matrix:
 Charge =  0 Multiplicity = 1

 SCF Done:  E(RHF) =  -305.656965513     A.U. after   15 cycles
 Normal termination of Gaussian 16 at Wed Apr  9 03:15:39 2025.
 Gaussian 16:  ES64L-G16RevC.01  3-Jul-2019

 ----------------------------------------------------------------------
 #t hf aug-cc-pvdz iop(5/13=1,5/36=2,99/5=2) pseudo=read geom=check gue
 ss=(read,tcheck) scf=(maxcycle=1)
 ----------------------------------------------------------------------
 -----
 title
 -----
 Structure from the checkpoint file:  "Grambow2020_b97d3_006959_forward_mol1.chk"
 Charge =  0 Multiplicity = 1

                         Standard orientation:
 ---------------------------------------------------------------------
 Center     Atomic      Atomic             Coordinates (Angstroms)
 Number     Number       Type             X           Y           Z
 ---------------------------------------------------------------------
      1          8           0       -1.290956   -1.209708    0.268549
      2          6           0       -1.695548    0.055415   -0.252334
      3          6           0       -0.883230    1.205132    0.285500
      4          6           0        1.273506    0.764215   -0.388375
      5          6           0        1.709872   -0.140664    0.667499
      6          8           0        1.296202   -0.580378   -0.689590
      7          1           0       -0.435443   -1.398887   -0.163543
      8          1           0       -1.669981    0.066755   -1.359955
      9          1           0       -2.756265    0.177467    0.031167
     10          1           0       -1.203658    2.195454   -0.067964
     11          1           0       -0.697135    1.191130    1.361082
     12          1           0        0.482495    1.514217   -0.621708
     13          1           0        1.031385   -0.481461    1.450248
     14          1           0        2.779038   -0.248574    0.865259
 ---------------------------------------------------------------------

 SCF Done:  E(RHF) =  -305.972581145     A.U. after    2 cycles

 The electronic state is 1-A.
 Alpha  occ. eigenvalues --  -20.59741 -20.54028 -11.33085 -11.32407 -11.29497
 Alpha  occ. eigenvalues --  -11.27040  -1.52715  -1.43705  -1.02257  -0.95901
 Alpha  occ. eigenvalues --   -0.86919  -0.82445  -0.71847  -0.68763  -0.67931
 Alpha  occ. eigenvalues --   -0.62935  -0.59105  -0.57745  -0.56634  -0.51292
 Alpha  occ. eigenvalues --   -0.49732  -0.48464  -0.44398  -0.30005
 Alpha virt. eigenvalues --    0.03530   0.03664   0.04260   0.04763   0.06148
 Alpha virt. eigenvalues --    0.06506   0.07111   0.07882   0.09432   0.10527
 Alpha virt. eigenvalues --    0.12714   0.13347   0.13692   0.14652   0.14864

 Mulliken charges:
               1
     1  O   -1.161693
     2  C    0.570500
     3  C   -0.461830
     4  C    0.463944
     5  C    0.543189
     6  O   -1.087805
     7  H    0.474541
     8  H    0.134480
     9  H    0.064046
    10  H    0.036109
    11  H    0.104513
    12  H    0.270353
    13  H    0.026718
    14  H    0.022936
 Sum of Mulliken charges =  -0.00000

 Dipole moment (field-independent basis, Debye):
    X=              0.3801    Y=              1.6999    Z=              0.8553  Tot=              1.9405

 Test job not archived.
 1\1\GINC-SE187\SP\RHF\Aug-CC-pVDZ\C4H8O2\OHZDE\09-Apr-2025\0\\#t hf au
 g-cc-pvdz iop(5/13=1,5/36=2,99/5=2) pseudo=read geom=check guess=(read
 ,tcheck) scf=(maxcycle=1)\\title\\0,1\O,0,1.3155693,0.99933113,0.76674
 998\C,0,1.59407582,-0.20274604,0.0505139\C,0,0.43791525,-1.16928476,0.
 04231623\C,0,-1.26508181,-0.03636813,-1.01424729\C,0,-1.8127686,0.7314
 2973,0.09688574\O,0,-0.91769801,1.29547069,-0.94564388\H,0,0.69409365,
 1.49401974,0.19802652\H,0,1.91171152,0.00749141,-0.98992611\H,0,2.4658
 9482,-0.66131433,0.55055159\H,0,0.64253736,-2.12175331,-0.46688333\H,0

 Normal termination of Gaussian 16 at Wed Apr  9 03:15:43 2025.
