 Gaussian 16, Revision C.01,

 ----------------------------------------------------------------------
 #t hf aug-cc-pvdz symm=none int=(grid=ultrafine) guess=(read,tcheck) s
 table=(opt,rrhf)
 ----------------------------------------------------------------------
 -----
 title
 -----
 Symbolic Z-matrix:
 Charge =  0 Multiplicity = 1

 SCF Done:  E(RHF) =  -283.710764861     A.U. after   14 cycles
 Normal termination of Gaussian 16 at Wed Apr  9 17:05:16 2025.
 Gaussian 16:  ES64L-G16RevC.01  3-Jul-2019

 ----------------------------------------------------------------------
 #t hf aug-cc-pvdz iop(5/13=1,5/36=2,99/5=2) pseudo=read geom=check gue
 ss=(read,tcheck) scf=(maxcycle=1)
 ----------------------------------------------------------------------
 -----
 title
 -----
 Structure from the checkpoint file:  "Grambow2020_wb97xd3_006236_reverse_mol2.chk"
 Charge =  0 Multiplicity = 1

                         Standard orientation:
 ---------------------------------------------------------------------
 Center     Atomic      Atomic             Coordinates (Angstroms)
 Number     Number       Type             X           Y           Z
 ---------------------------------------------------------------------
      1          8           0        2.025467   -0.106240   -0.000096
      2          6           0        0.682479    0.062216   -0.000052
      3          6           0       -0.122320    1.167809    0.000099
      4          6           0       -1.464330    0.680707   -0.000003
      5          6           0       -1.417567   -0.680695   -0.000343
      6          7           0       -0.089669   -1.051114   -0.000103
      7          1           0        0.202377    2.196261   -0.002300
      8          1           0        2.443141    0.756383    0.002431
      9          1           0       -2.360807    1.279763    0.001824
     10          1           0       -2.201698   -1.418465    0.001090
     11          1           0        0.271369   -1.986448    0.000240
 ---------------------------------------------------------------------

 SCF Done:  E(RHF) =  -284.002157109     A.U. after    2 cycles

 The electronic state is 1-A.
 Alpha  occ. eigenvalues --  -20.58995 -15.54129 -11.32423 -11.25116 -11.21880
 Alpha  occ. eigenvalues --  -11.20984  -1.50941  -1.29294  -1.05728  -0.98274
 Alpha  occ. eigenvalues --   -0.82584  -0.81703  -0.76659  -0.66905  -0.63624
 Alpha  occ. eigenvalues --   -0.63182  -0.61013  -0.56227  -0.53679  -0.53246
 Alpha  occ. eigenvalues --   -0.37414  -0.29226
 Alpha virt. eigenvalues --    0.03311   0.03923   0.04594   0.05507   0.06050
 Alpha virt. eigenvalues --    0.10973   0.11416   0.12307   0.12725   0.13603
 Alpha virt. eigenvalues --    0.13756   0.14302   0.15004   0.15507   0.16244

 Mulliken charges:
               1
     1  O   -1.544653
     2  C    0.359417
     3  C    0.417116
     4  C    0.410557
     5  C   -0.252249
     6  N    0.870392
     7  H   -0.196220
     8  H    0.293014
     9  H   -0.137567
    10  H   -0.202104
    11  H   -0.017703
 Sum of Mulliken charges =   0.00000

 Dipole moment (field-independent basis, Debye):
    X=              0.7290    Y=             -0.0643    Z=              0.0051  Tot=              0.7319

 Test job not archived.
 1\1\GINC-SE045\SP\RHF\Aug-CC-pVDZ\C4H5N1O1\OHZDE\09-Apr-2025\0\\#t hf
 aug-cc-pvdz iop(5/13=1,5/36=2,99/5=2) pseudo=read geom=check guess=(re
 ad,tcheck) scf=(maxcycle=1)\\title\\0,1\O,0,-1.49756084,1.59872631,0.3
 8651204\C,0,-0.62303351,0.59759176,0.13170664\C,0,-0.76625577,-0.66374
 224,-0.37678064\C,0,0.54298838,-1.23262773,-0.39933785\C,0,1.41291751,
 -0.30530758,0.08943789\N,0,0.68357579,0.81867418,0.41385955\H,0,-1.687
 49829,-1.12467829,-0.69615343\H,0,-2.37763833,1.30682983,0.14394831\H,
 0,0.80330708,-2.22188083,-0.74015293\H,0,2.47867899,-0.33992567,0.2381

 Normal termination of Gaussian 16 at Wed Apr  9 17:05:26 2025.
