 Gaussian 16, Revision C.01,

 ----------------------------------------------------------------------
 #t hf aug-cc-pvdz symm=none int=(grid=ultrafine) guess=(read,tcheck) s
 table=(opt,rrhf)
 ----------------------------------------------------------------------
 -----
 title
 -----
 Symbolic Z-matrix:
 Charge =  0 Multiplicity = 1

 SCF Done:  E(RHF) =  -338.731912124     A.U. after   14 cycles
 Normal termination of Gaussian 16 at Wed Apr  9 03:52:33 2025.
 Gaussian 16:  ES64L-G16RevC.01  3-Jul-2019

 ----------------------------------------------------------------------
 #t hf aug-cc-pvdz iop(5/13=1,5/36=2,99/5=2) pseudo=read geom=check gue
 ss=(read,tcheck) scf=(maxcycle=1)
 ----------------------------------------------------------------------
 -----
 title
 -----
 Structure from the checkpoint file:  "Grambow2020_wb97xd3_008303_reverse_mol2.chk"
 Charge =  0 Multiplicity = 1

                         Standard orientation:
 ---------------------------------------------------------------------
 Center     Atomic      Atomic             Coordinates (Angstroms)
 Number     Number       Type             X           Y           Z
 ---------------------------------------------------------------------
      1          6           0        1.836074   -0.926815    0.001079
      2          8           0        0.928877    1.789528   -0.000739
      3          6           0        0.089108    0.895248   -0.000048
      4          6           0       -1.312511    0.840134    0.001217
      5          7           0       -1.686517   -0.488832    0.000752
      6          6           0       -0.626939   -1.276483   -0.001153
      7          7           0        0.458109   -0.502671   -0.001025
      8          1           0        2.429986   -0.014122   -0.040507
      9          1           0        2.057315   -1.544197   -0.869887
     10          1           0        2.076761   -1.473228    0.913546
     11          1           0       -2.030919    1.637943   -0.000383
     12          1           0       -2.632670   -0.822022   -0.000066
     13          1           0       -0.647023   -2.352581   -0.001455
 ---------------------------------------------------------------------

 SCF Done:  E(RHF) =  -339.078421333     A.U. after    2 cycles

 The electronic state is 1-A.
 Alpha  occ. eigenvalues --  -20.45262 -15.59403 -15.56016 -11.34612 -11.31837
 Alpha  occ. eigenvalues --  -11.27856 -11.23535  -1.41271  -1.36475  -1.23762
 Alpha  occ. eigenvalues --   -1.02961  -1.01298  -0.86920  -0.84124  -0.78566
 Alpha  occ. eigenvalues --   -0.69857  -0.69257  -0.66109  -0.62216  -0.60624
 Alpha  occ. eigenvalues --   -0.58220  -0.55874  -0.50758  -0.44638  -0.39143
 Alpha  occ. eigenvalues --   -0.27440
 Alpha virt. eigenvalues --    0.01832   0.03333   0.04252   0.04624   0.05591
 Alpha virt. eigenvalues --    0.07772   0.08056   0.08535   0.11313   0.11737
 Alpha virt. eigenvalues --    0.12228   0.12587   0.12744   0.14318   0.14527

 Mulliken charges:
               1
     1  C   -0.287559
     2  O   -1.386918
     3  C    0.850043
     4  C   -0.106005
     5  N    0.650155
     6  C   -0.476707
     7  N    0.628174
     8  H    0.021821
     9  H    0.166192
    10  H    0.178441
    11  H   -0.148567
    12  H    0.007343
    13  H   -0.096415
 Sum of Mulliken charges =  -0.00000

 Dipole moment (field-independent basis, Debye):
    X=             -3.0435    Y=             -6.6450    Z=             -0.0050  Tot=              7.3088

 Test job not archived.
 1\1\GINC-SE072\SP\RHF\Aug-CC-pVDZ\C4H6N2O1\OHZDE\09-Apr-2025\0\\#t hf
 aug-cc-pvdz iop(5/13=1,5/36=2,99/5=2) pseudo=read geom=check guess=(re
 ad,tcheck) scf=(maxcycle=1)\\title\\0,1\C,0,1.56111623,0.99676043,-0.3
 7151237\O,0,1.08269248,-1.78093617,-0.87850895\C,0,0.1746473,-1.112492
 7,-0.39520193\C,0,-1.14512011,-1.36277509,0.00871382\N,0,-1.67608165,-
 0.18086257,0.48536116\C,0,-0.7910592,0.79618921,0.41318118\N,0,0.32987
 748,0.29541849,-0.10531933\H,0,2.25483949,0.24850892,-0.75405435\H,0,1
 .96688062,1.43589767,0.54019122\H,0,1.41566216,1.77266881,-1.12377721\

 Normal termination of Gaussian 16 at Wed Apr  9 03:52:37 2025.
