 Gaussian 16, Revision C.01,

 ----------------------------------------------------------------------
 #t hf aug-cc-pvdz symm=none int=(grid=ultrafine) guess=(read,tcheck) s
 table=(opt,rrhf)
 ----------------------------------------------------------------------
 -----
 title
 -----
 Symbolic Z-matrix:
 Charge =  0 Multiplicity = 1

 SCF Done:  E(RHF) =  -305.881944488     A.U. after   15 cycles
 Normal termination of Gaussian 16 at Wed Apr  9 03:06:25 2025.
 Gaussian 16:  ES64L-G16RevC.01  3-Jul-2019

 ----------------------------------------------------------------------
 #t hf aug-cc-pvdz iop(5/13=1,5/36=2,99/5=2) pseudo=read geom=check gue
 ss=(read,tcheck) scf=(maxcycle=1)
 ----------------------------------------------------------------------
 -----
 title
 -----
 Structure from the checkpoint file:  "Grambow2020_b97d3_006517_reverse_mol2.chk"
 Charge =  0 Multiplicity = 1

                         Standard orientation:
 ---------------------------------------------------------------------
 Center     Atomic      Atomic             Coordinates (Angstroms)
 Number     Number       Type             X           Y           Z
 ---------------------------------------------------------------------
      1          8           0       -1.507837   -0.993415    0.494372
      2          6           0       -1.628334   -0.021783   -0.236355
      3          6           0       -0.626523    1.101545   -0.383975
      4          6           0        0.603547    1.001936    0.528141
      5          6           0        1.685170    0.048261   -0.000622
      6          8           0        1.189090   -1.221920   -0.397308
      7          1           0        0.476493   -1.460826    0.229566
      8          1           0       -2.553492    0.104461   -0.850170
      9          1           0       -1.188329    2.034359   -0.197837
     10          1           0       -0.340726    1.148426   -1.449904
     11          1           0        1.049689    1.999827    0.654909
     12          1           0        0.274453    0.673097    1.525822
     13          1           0        2.478899   -0.041516    0.766673
     14          1           0        2.149820    0.485094   -0.898702
 ---------------------------------------------------------------------

 SCF Done:  E(RHF) =  -306.197730889     A.U. after    2 cycles

 The electronic state is 1-A.
 Alpha  occ. eigenvalues --  -20.55937 -20.53436 -11.35956 -11.28531 -11.26467
 Alpha  occ. eigenvalues --  -11.24805  -1.48278  -1.43216  -1.08480  -0.97330
 Alpha  occ. eigenvalues --   -0.85872  -0.78112  -0.70034  -0.67655  -0.66227
 Alpha  occ. eigenvalues --   -0.63226  -0.60740  -0.57639  -0.53479  -0.52140
 Alpha  occ. eigenvalues --   -0.52056  -0.47576  -0.42864  -0.42802
 Alpha virt. eigenvalues --    0.02921   0.03562   0.04176   0.04844   0.06289
 Alpha virt. eigenvalues --    0.06608   0.07126   0.08096   0.10382   0.11819
 Alpha virt. eigenvalues --    0.12281   0.13611   0.14153   0.14308   0.15243

 Mulliken charges:
               1
     1  O   -1.165481
     2  C    1.008729
     3  C   -0.460668
     4  C   -0.433387
     5  C    0.697133
     6  O   -1.226517
     7  H    0.474073
     8  H    0.135126
     9  H    0.212883
    10  H    0.238373
    11  H    0.168709
    12  H    0.117463
    13  H    0.111103
    14  H    0.122461
 Sum of Mulliken charges =  -0.00000

 Dipole moment (field-independent basis, Debye):
    X=             -0.7513    Y=              3.6310    Z=             -0.2953  Tot=              3.7196

 Test job not archived.
 1\1\GINC-SE083\SP\RHF\Aug-CC-pVDZ\C4H8O2\OHZDE\09-Apr-2025\0\\#t hf au
 g-cc-pvdz iop(5/13=1,5/36=2,99/5=2) pseudo=read geom=check guess=(read
 ,tcheck) scf=(maxcycle=1)\\title\\0,1\O,0,-2.09852597,0.57686624,-0.19
 462749\C,0,-1.73583513,-0.53279967,0.16543593\C,0,-0.33776234,-1.09274
 755,0.0271091\C,0,0.66336879,-0.17658412,-0.68936278\C,0,1.25454847,0.
 91456966,0.21555992\O,0,0.28258152,1.63521789,0.95903878\H,0,-0.502564
 04,1.73648844,0.3835972\H,0,-2.47123025,-1.24099527,0.61961381\H,0,-0.
 44866036,-2.05598996,-0.5023087\H,0,0.00951037,-1.36238871,1.04040905\

 Normal termination of Gaussian 16 at Wed Apr  9 03:06:32 2025.
