 Gaussian 16, Revision C.01,

 ----------------------------------------------------------------------
 #t hf aug-cc-pvdz symm=none int=(grid=ultrafine) guess=(read,tcheck) s
 table=(opt,rrhf)
 ----------------------------------------------------------------------
 -----
 title
 -----
 Symbolic Z-matrix:
 Charge =  0 Multiplicity = 1

 SCF Done:  E(RHF) =  -333.504722962     A.U. after   20 cycles
 Normal termination of Gaussian 16 at Wed Apr  9 03:33:09 2025.
 Gaussian 16:  ES64L-G16RevC.01  3-Jul-2019

 ----------------------------------------------------------------------
 #t hf aug-cc-pvdz iop(5/13=1,5/36=2,99/5=2) pseudo=read geom=check gue
 ss=(read,tcheck) scf=(maxcycle=1)
 ----------------------------------------------------------------------
 -----
 title
 -----
 Structure from the checkpoint file:  "Grambow2020_wb97xd3_006989_forward_mol1.chk"
 Charge =  0 Multiplicity = 1

                         Standard orientation:
 ---------------------------------------------------------------------
 Center     Atomic      Atomic             Coordinates (Angstroms)
 Number     Number       Type             X           Y           Z
 ---------------------------------------------------------------------
      1          7           0       -2.024770   -0.230750   -0.304212
      2          6           0       -0.875298    0.225275    0.238082
      3          6           0       -0.089819    1.355165    0.003463
      4          7           0        1.202152    0.957634    0.103632
      5          6           0        1.490300   -0.361681   -0.436434
      6          7           0        0.706383   -1.322760   -0.145728
      7          7           0        0.048268   -0.575080    0.887251
      8          1           0       -2.340019    0.113687   -1.193207
      9          1           0       -2.338148   -1.147234   -0.038204
     10          1           0       -0.339164    2.369944   -0.281956
     11          1           0        2.342014   -0.452260   -1.103902
 ---------------------------------------------------------------------

 SCF Done:  E(RHF) =  -333.831273604     A.U. after    2 cycles

 The electronic state is 1-A.
 Alpha  occ. eigenvalues --  -15.56320 -15.55494 -15.55435 -15.54172 -11.34112
 Alpha  occ. eigenvalues --  -11.32731 -11.29020  -1.38355  -1.25998  -1.20582
 Alpha  occ. eigenvalues --   -1.11831  -0.94355  -0.88568  -0.79946  -0.78461
 Alpha  occ. eigenvalues --   -0.73531  -0.70069  -0.67055  -0.63436  -0.59185
 Alpha  occ. eigenvalues --   -0.54204  -0.50933  -0.44417  -0.43030  -0.33614
 Alpha virt. eigenvalues --   -0.02005   0.02537   0.04365   0.04612   0.05429
 Alpha virt. eigenvalues --    0.08264   0.08945   0.09544   0.10723   0.10892
 Alpha virt. eigenvalues --    0.12227   0.13057   0.14468   0.14590   0.15643

 Mulliken charges:
               1
     1  N    0.868639
     2  C   -1.800145
     3  C    0.018903
     4  N    0.434837
     5  C   -0.333178
     6  N    0.278089
     7  N    0.230888
     8  H    0.155194
     9  H    0.154403
    10  H   -0.023316
    11  H    0.015687
 Sum of Mulliken charges =  -0.00000

 Dipole moment (field-independent basis, Debye):
    X=             -2.8898    Y=              1.4877    Z=             -3.3142  Tot=              4.6420

 Test job not archived.
 1\1\GINC-SE220\SP\RHF\Aug-CC-pVDZ\C3H4N4\OHZDE\09-Apr-2025\0\\#t hf au
 g-cc-pvdz iop(5/13=1,5/36=2,99/5=2) pseudo=read geom=check guess=(read
 ,tcheck) scf=(maxcycle=1)\\title\\0,1\N,0,1.72672461,-0.44021315,-0.50
 221648\C,0,0.60695386,0.31248677,-0.4485247\C,0,0.08572785,1.1837745,0
 .50952295\N,0,-1.25595222,0.99134679,0.52047218\C,0,-1.68766256,-0.387
 23912,0.35188844\N,0,-1.14642842,-1.08663009,-0.56496743\N,0,-0.537209
 18,0.05598342,-1.18341212\H,0,2.2363715,-0.65504797,0.33589768\H,0,1.8
 2321782,-1.08428762,-1.26691676\H,0,0.55624969,1.86211689,1.21086053\H

 Normal termination of Gaussian 16 at Wed Apr  9 03:33:14 2025.
