 Gaussian 16, Revision C.01,

 ----------------------------------------------------------------------
 #t hf aug-cc-pvdz symm=none int=(grid=ultrafine) guess=(read,tcheck) s
 table=(opt,rrhf)
 ----------------------------------------------------------------------
 -----
 title
 -----
 Symbolic Z-matrix:
 Charge =  0 Multiplicity = 1

 SCF Done:  E(RHF) =  -234.195534809     A.U. after   11 cycles
 Normal termination of Gaussian 16 at Wed Apr  9 15:50:04 2025.
 Gaussian 16:  ES64L-G16RevC.01  3-Jul-2019

 ----------------------------------------------------------------------
 #t hf aug-cc-pvdz iop(5/13=1,5/36=2,99/5=2) pseudo=read geom=check gue
 ss=(read,tcheck) scf=(maxcycle=1)
 ----------------------------------------------------------------------
 -----
 title
 -----
 Structure from the checkpoint file:  "Grambow2020_b97d3_006791_forward_mol2.chk"
 Charge =  0 Multiplicity = 1

                         Standard orientation:
 ---------------------------------------------------------------------
 Center     Atomic      Atomic             Coordinates (Angstroms)
 Number     Number       Type             X           Y           Z
 ---------------------------------------------------------------------
      1          6           0        2.348221   -0.000751    0.447011
      2          6           0        1.088384    0.000143   -0.410098
      3          6           0       -0.000248   -1.081154   -0.149374
      4          6           0       -1.088502    0.000789   -0.409539
      5          6           0       -2.348781   -0.000512    0.446870
      6          6           0        0.000497    1.081776   -0.148118
      7          1           0        2.088764    0.001428    1.516676
      8          1           0        2.967022    0.887533    0.248632
      9          1           0        2.963086   -0.892127    0.250905
     10          1           0        1.358589    0.001319   -1.477443
     11          1           0        0.001139   -1.386414    0.908573
     12          1           0       -0.000775   -1.981590   -0.778644
     13          1           0       -1.357847    0.001767   -1.477087
     14          1           0       -2.967410    0.887478    0.247540
     15          1           0       -2.962743   -0.892514    0.250735
     16          1           0       -2.089534    0.001953    1.516522
     17          1           0        0.001143    1.982751   -0.776808
     18          1           0        0.001139    1.386669    0.909884
 ---------------------------------------------------------------------

 SCF Done:  E(RHF) =  -234.457728703     A.U. after    2 cycles

 The electronic state is 1-A.
 Alpha  occ. eigenvalues --  -11.22957 -11.22941 -11.22133 -11.22132 -11.22130
 Alpha  occ. eigenvalues --  -11.22128  -1.13468  -1.00178  -0.93527  -0.89143
 Alpha  occ. eigenvalues --   -0.79615  -0.74408  -0.65876  -0.59766  -0.58878
 Alpha  occ. eigenvalues --   -0.58452  -0.55648  -0.53733  -0.53258  -0.49546
 Alpha  occ. eigenvalues --   -0.45329  -0.45227  -0.43170  -0.42409
 Alpha virt. eigenvalues --    0.03609   0.03774   0.03844   0.04128   0.06078
 Alpha virt. eigenvalues --    0.06169   0.06286   0.06358   0.06842   0.09096
 Alpha virt. eigenvalues --    0.09386   0.10080   0.12003   0.13296   0.15094

 Mulliken charges:
               1
     1  C   -0.420547
     2  C   -0.345333
     3  C    0.022041
     4  C   -0.344359
     5  C   -0.421191
     6  C    0.022558
     7  H    0.170007
     8  H    0.215599
     9  H    0.215944
    10  H   -0.005845
    11  H    0.098397
    12  H    0.048649
    13  H   -0.005495
    14  H    0.215732
    15  H    0.216533
    16  H    0.170461
    17  H    0.048947
    18  H    0.097905
 Sum of Mulliken charges =  -0.00000

 Dipole moment (field-independent basis, Debye):
    X=              0.0001    Y=              0.0001    Z=             -0.1775  Tot=              0.1775

 Test job not archived.
 1\1\GINC-SE120\SP\RHF\Aug-CC-pVDZ\C6H12\OHZDE\09-Apr-2025\0\\#t hf aug
 -cc-pvdz iop(5/13=1,5/36=2,99/5=2) pseudo=read geom=check guess=(read,
 tcheck) scf=(maxcycle=1)\\title\\0,1\C,0,-2.32741126,0.24863571,0.4279
 517\C,0,-1.07553104,0.23718971,-0.44066253\C,0,0.15062234,1.0911865,-0
 .00530327\C,0,1.08040094,-0.06064203,-0.48632636\C,0,2.32454545,-0.392
 61108,0.32831637\C,0,-0.1486554,-1.01258971,-0.40881914\H,0,-2.0760335
 8,0.00972379,1.47257388\H,0,-3.06190406,-0.49349897,0.07999316\H,0,-2.
 81238418,1.23641448,0.41518259\H,0,-1.33802807,0.47386789,-1.48340702\

 Normal termination of Gaussian 16 at Wed Apr  9 15:50:10 2025.
