 Gaussian 16, Revision C.01,

 ----------------------------------------------------------------------
 #t hf aug-cc-pvdz symm=none int=(grid=ultrafine) guess=(read,tcheck) s
 table=(opt,rrhf)
 ----------------------------------------------------------------------
 -----
 title
 -----
 Symbolic Z-matrix:
 Charge =  0 Multiplicity = 1

 SCF Done:  E(RHF) =  -342.439921455     A.U. after   16 cycles
 Normal termination of Gaussian 16 at Wed Apr  9 03:59:39 2025.
 Gaussian 16:  ES64L-G16RevC.01  3-Jul-2019

 ----------------------------------------------------------------------
 #t hf aug-cc-pvdz iop(5/13=1,5/36=2,99/5=2) pseudo=read geom=check gue
 ss=(read,tcheck) scf=(maxcycle=1)
 ----------------------------------------------------------------------
 -----
 title
 -----
 Structure from the checkpoint file:  "Grambow2020_wb97xd3_008771_reverse_mol2.chk"
 Charge =  0 Multiplicity = 1

                         Standard orientation:
 ---------------------------------------------------------------------
 Center     Atomic      Atomic             Coordinates (Angstroms)
 Number     Number       Type             X           Y           Z
 ---------------------------------------------------------------------
      1          8           0       -2.566900    0.082193   -0.244414
      2          6           0       -1.408452   -0.188784   -0.401400
      3          6           0        0.665851   -1.117259    0.512957
      4          8           0        1.577031   -0.674594   -0.340799
      5          6           0        1.516212    0.606731   -0.572680
      6          6           0        0.544207    1.205398    0.386830
      7          6           0       -0.343032   -0.020278    0.677996
      8          1           0       -1.047804   -0.630959   -1.354923
      9          1           0        0.517003   -2.185409    0.511470
     10          1           0        2.366410    1.041794   -1.072207
     11          1           0        1.077926    1.497446    1.309425
     12          1           0       -0.006766    2.069122    0.019751
     13          1           0       -0.836529    0.032359    1.645975
 ---------------------------------------------------------------------

 SCF Done:  E(RHF) =  -342.783862750     A.U. after    2 cycles

 The electronic state is 1-A.
 Alpha  occ. eigenvalues --  -20.69279 -20.54904 -11.34149 -11.31915 -11.28953
 Alpha  occ. eigenvalues --  -11.27279 -11.26787  -1.61730  -1.48273  -1.11703
 Alpha  occ. eigenvalues --   -1.04350  -0.91235  -0.81611  -0.80382  -0.76923
 Alpha  occ. eigenvalues --   -0.69348  -0.68367  -0.64872  -0.61608  -0.58899
 Alpha  occ. eigenvalues --   -0.57554  -0.55971  -0.54679  -0.49925  -0.42239
 Alpha  occ. eigenvalues --   -0.26228
 Alpha virt. eigenvalues --    0.03072   0.03634   0.03982   0.04344   0.05741
 Alpha virt. eigenvalues --    0.06094   0.06310   0.09453   0.10656   0.11066
 Alpha virt. eigenvalues --    0.12225   0.12978   0.13489   0.14005   0.14487

 Mulliken charges:
               1
     1  O   -1.172024
     2  C    1.083571
     3  C    0.822426
     4  O   -1.137684
     5  C    0.927097
     6  C   -0.487700
     7  C   -0.272475
     8  H    0.121939
     9  H   -0.116035
    10  H   -0.048667
    11  H    0.167156
    12  H    0.098655
    13  H    0.013741
 Sum of Mulliken charges =   0.00000

 Dipole moment (field-independent basis, Debye):
    X=              2.8326    Y=              0.7366    Z=             -0.1336  Tot=              2.9298

 Test job not archived.
 1\1\GINC-SE343\SP\RHF\Aug-CC-pVDZ\C5H6O2\OHZDE\09-Apr-2025\0\\#t hf au
 g-cc-pvdz iop(5/13=1,5/36=2,99/5=2) pseudo=read geom=check guess=(read
 ,tcheck) scf=(maxcycle=1)\\title\\0,1\O,0,1.40584333,2.2649474,-0.6757
 4926\C,0,1.18495656,1.147711,-0.29750618\C,0,0.37424715,-1.10904069,-0
 .79817138\O,0,0.19373639,-1.62171208,0.41000283\C,0,-0.5080464,-0.8703
 8676,1.21142221\C,0,-1.06893438,0.2587605,0.41500082\C,0,-0.03264978,0
 .33221851,-0.72296656\H,0,1.89926334,0.616476,0.36758653\H,0,1.1615680
 1,-1.56554467,-1.37681861\H,0,-0.86905977,-1.34048178,2.11160123\H,0,-

 Normal termination of Gaussian 16 at Wed Apr  9 03:59:43 2025.
