 Gaussian 16, Revision C.01,

 ----------------------------------------------------------------------
 #t hf aug-cc-pvdz symm=none int=(grid=ultrafine) guess=(read,tcheck) s
 table=(opt,rrhf)
 ----------------------------------------------------------------------
 -----
 title
 -----
 Symbolic Z-matrix:
 Charge =  0 Multiplicity = 1

 SCF Done:  E(RHF) =  -305.820257530     A.U. after   13 cycles
 Normal termination of Gaussian 16 at Wed Apr  9 16:01:51 2025.
 Gaussian 16:  ES64L-G16RevC.01  3-Jul-2019

 ----------------------------------------------------------------------
 #t hf aug-cc-pvdz iop(5/13=1,5/36=2,99/5=2) pseudo=read geom=check gue
 ss=(read,tcheck) scf=(maxcycle=1)
 ----------------------------------------------------------------------
 -----
 title
 -----
 Structure from the checkpoint file:  "Grambow2020_b97d3_007094_reverse_mol2.chk"
 Charge =  0 Multiplicity = 1

                         Standard orientation:
 ---------------------------------------------------------------------
 Center     Atomic      Atomic             Coordinates (Angstroms)
 Number     Number       Type             X           Y           Z
 ---------------------------------------------------------------------
      1          6           0        2.373295   -0.678084   -0.003438
      2          6           0        0.950674   -0.254157   -0.269804
      3          6           0        0.558418    1.154755   -0.424810
      4          8           0        0.286315    0.453729    0.808642
      5          6           0       -2.156045   -0.233218    0.506269
      6          8           0       -2.232641   -0.402963   -0.698125
      7          1           0        2.869414   -0.956714   -0.944410
      8          1           0        2.940602    0.136691    0.465131
      9          1           0        2.399259   -1.548909    0.666529
     10          1           0        0.301600   -0.991441   -0.753105
     11          1           0        1.317291    1.938179   -0.343893
     12          1           0       -2.386733    0.743425    0.988733
     13          1           0       -0.323625    1.393735   -1.024692
     14          1           0       -1.905249   -1.056872    1.212271
 ---------------------------------------------------------------------

 SCF Done:  E(RHF) =  -306.133692901     A.U. after    2 cycles

 The electronic state is 1-A.
 Alpha  occ. eigenvalues --  -20.56270 -20.54559 -11.34604 -11.29944 -11.29387
 Alpha  occ. eigenvalues --  -11.24227  -1.48624  -1.46454  -1.02141  -0.92214
 Alpha  occ. eigenvalues --   -0.86090  -0.82055  -0.70728  -0.67701  -0.65103
 Alpha  occ. eigenvalues --   -0.63465  -0.59324  -0.57124  -0.53488  -0.52264
 Alpha  occ. eigenvalues --   -0.51312  -0.44894  -0.44093  -0.41862
 Alpha virt. eigenvalues --    0.03732   0.03981   0.04192   0.04873   0.06083
 Alpha virt. eigenvalues --    0.06585   0.07839   0.07962   0.10055   0.11077
 Alpha virt. eigenvalues --    0.12338   0.13175   0.14504   0.15225   0.16229

 Mulliken charges:
               1
     1  C   -0.764074
     2  C    0.937042
     3  C    0.437343
     4  O   -1.204609
     5  C    0.566527
     6  O   -0.859495
     7  H    0.249419
     8  H    0.164956
     9  H    0.237099
    10  H   -0.030514
    11  H   -0.026458
    12  H    0.129841
    13  H    0.036066
    14  H    0.126857
 Sum of Mulliken charges =  -0.00000

 Dipole moment (field-independent basis, Debye):
    X=              1.5107    Y=              0.3065    Z=              0.7943  Tot=              1.7341

 Test job not archived.
 1\1\GINC-SE043\SP\RHF\Aug-CC-pVDZ\C4H8O2\OHZDE\09-Apr-2025\0\\#t hf au
 g-cc-pvdz iop(5/13=1,5/36=2,99/5=2) pseudo=read geom=check guess=(read
 ,tcheck) scf=(maxcycle=1)\\title\\0,1\C,0,-0.33966901,2.09962417,0.324
 01618\C,0,-0.21240025,0.66309637,-0.11723942\C,0,-1.1028891,-0.3995111
 1,0.37349539\O,0,0.23880948,-0.27445686,0.89415768\C,0,1.51102094,-2.0
 110595,-0.4821173\O,0,0.91887739,-1.98551011,-1.54699159\H,0,-0.929171
 97,2.67114449,-0.4074541\H,0,-0.83502448,2.16369474,1.30165155\H,0,0.6
 5061603,2.56927897,0.40541694\H,0,0.25462194,0.48904233,-1.09194893\H,

 Normal termination of Gaussian 16 at Wed Apr  9 16:01:56 2025.
