 Gaussian 16, Revision C.01,

 ----------------------------------------------------------------------
 #t hf aug-cc-pvdz symm=none int=(grid=ultrafine) guess=(read,tcheck) s
 table=(opt,rrhf)
 ----------------------------------------------------------------------
 -----
 title
 -----
 Symbolic Z-matrix:
 Charge =  0 Multiplicity = 1

 SCF Done:  E(RHF) =  -227.819258027     A.U. after   13 cycles
 Normal termination of Gaussian 16 at Wed Apr  9 16:12:34 2025.
 Gaussian 16:  ES64L-G16RevC.01  3-Jul-2019

 ----------------------------------------------------------------------
 #t hf aug-cc-pvdz iop(5/13=1,5/36=2,99/5=2) pseudo=read geom=check gue
 ss=(read,tcheck) scf=(maxcycle=1)
 ----------------------------------------------------------------------
 -----
 title
 -----
 Structure from the checkpoint file:  "Grambow2020_b97d3_007157_forward_mol2.chk"
 Charge =  0 Multiplicity = 1

                         Standard orientation:
 ---------------------------------------------------------------------
 Center     Atomic      Atomic             Coordinates (Angstroms)
 Number     Number       Type             X           Y           Z
 ---------------------------------------------------------------------
      1          6           0       -1.373021   -0.410662   -0.000141
      2          8           0       -0.486289    0.734982    0.000049
      3          6           0        0.832575    0.437616    0.000201
      4          8           0        1.316687   -0.673896   -0.000067
      5          1           0       -1.221658   -1.012262    0.904099
      6          1           0       -1.192403   -1.035181   -0.882958
      7          1           0       -2.382379    0.008609   -0.021226
      8          1           0        1.395935    1.388415   -0.000128
 ---------------------------------------------------------------------

 SCF Done:  E(RHF) =  -228.046842603     A.U. after    2 cycles

 The electronic state is 1-A.
 Alpha  occ. eigenvalues --  -20.60338 -20.55044 -11.40111 -11.30657  -1.54429
 Alpha  occ. eigenvalues --   -1.45682  -0.99078  -0.82812  -0.73894  -0.68379
 Alpha  occ. eigenvalues --   -0.67316  -0.59822  -0.55665  -0.53909  -0.46318
 Alpha  occ. eigenvalues --   -0.45705
 Alpha virt. eigenvalues --    0.03582   0.04372   0.05543   0.05808   0.09989
 Alpha virt. eigenvalues --    0.10059   0.10722   0.14303   0.15549   0.15721
 Alpha virt. eigenvalues --    0.17088   0.17176   0.18551   0.21006   0.25201

 Mulliken charges:
               1
     1  C    0.213830
     2  O   -1.069648
     3  C    1.311896
     4  O   -0.939836
     5  H    0.159435
     6  H    0.161119
     7  H    0.020817
     8  H    0.142387
 Sum of Mulliken charges =   0.00000

 Dipole moment (field-independent basis, Debye):
    X=             -1.7050    Y=              1.0480    Z=             -0.0009  Tot=              2.0014

 Test job not archived.
 1\1\GINC-SE057\SP\RHF\Aug-CC-pVDZ\C2H4O2\OHZDE\09-Apr-2025\0\\#t hf au
 g-cc-pvdz iop(5/13=1,5/36=2,99/5=2) pseudo=read geom=check guess=(read
 ,tcheck) scf=(maxcycle=1)\\title\\0,1\C,0,-1.03062212,-0.1456019,-0.03
 34532\O,0,0.28221766,-0.75674682,-0.07525511\C,0,1.31817456,0.10503034
 ,0.03411687\O,0,1.23932228,1.30821271,0.16043944\H,0,-1.15581423,0.550
 63014,-0.87135065\H,0,-1.17160455,0.39598391,0.90931996\H,0,-1.7360324
 5,-0.97695487,-0.11272848\H,0,2.25435884,-0.48055351,-0.01108883\\Vers
 ion=ES64L-G16RevC.01\State=1-A\HF=-228.0468426\RMSD=7.533e-03\Dipole=-

 Normal termination of Gaussian 16 at Wed Apr  9 16:12:36 2025.
