 Gaussian 16, Revision C.01,

 ----------------------------------------------------------------------
 #t hf aug-cc-pvdz symm=none int=(grid=ultrafine) guess=(read,tcheck) s
 table=(opt,rrhf)
 ----------------------------------------------------------------------
 -----
 title
 -----
 Symbolic Z-matrix:
 Charge =  0 Multiplicity = 1

 SCF Done:  E(RHF) =  -306.905494923     A.U. after   14 cycles

 1\1\GINC-SE174\Stability\RHF\Aug-CC-pVDZ\C4H10O2\OHZDE\09-Apr-2025\0\\
 #t hf aug-cc-pvdz symm=none int=(grid=ultrafine) guess=(read,tcheck) s
 table=(opt,rrhf)\\title\\0,1\C,0,1.8682479,0.86187692,-0.91849047\O,0,
 0.53596097,0.36353453,-0.82619052\C,0,0.43330279,-0.8644681,-0.0509751
 4\C,0,-1.05695241,-1.12527008,0.21000846\C,0,-1.84808925,-0.17253088,1
 .10617594\O,0,-1.52996621,1.39678617,0.33530755\H,0,2.5203723,0.125907
 62,-1.41615621\H,0,1.829266,1.77737438,-1.52029667\H,0,2.28252972,1.09
 1352,0.07767365\H,0,0.97267742,-0.73355124,0.9035515\H,0,0.92703918,-1

 Normal termination of Gaussian 16 at Wed Apr  9 15:48:59 2025.
 Gaussian 16:  ES64L-G16RevC.01  3-Jul-2019

 ----------------------------------------------------------------------
 #t hf aug-cc-pvdz iop(5/13=1,5/36=2,99/5=2) pseudo=read geom=check gue
 ss=(read,tcheck) scf=(maxcycle=1)
 ----------------------------------------------------------------------
 -----
 title
 -----
 Structure from the checkpoint file:  "Grambow2020_b97d3_006772_reverse_mol2.chk"
 Charge =  0 Multiplicity = 1

                         Standard orientation:
 ---------------------------------------------------------------------
 Center     Atomic      Atomic             Coordinates (Angstroms)
 Number     Number       Type             X           Y           Z
 ---------------------------------------------------------------------
      1          6           0        2.317479    0.396876    0.167002
      2          8           0        1.016304    0.150654   -0.360418
      3          6           0        0.422847   -1.086568    0.125975
      4          6           0       -1.057748   -1.082010   -0.279991
      5          6           0       -2.011454   -0.061746    0.341486
      6          8           0       -1.179038    1.469511   -0.005689
      7          1           0        3.008335   -0.412159   -0.120694
      8          1           0        2.666692    1.342418   -0.264073
      9          1           0        2.297941    0.476640    1.266951
     10          1           0        0.519004   -1.123894    1.225313
     11          1           0        0.996156   -1.927927   -0.307656
     12          1           0       -1.110350   -1.075055   -1.384307
     13          1           0       -1.483953   -2.055179    0.025690
     14          1           0       -1.617927    1.666063   -0.853621
     15          1           0       -1.769393   -0.031526    1.426068
     16          1           0       -0.231381    1.179987   -0.211642
 ---------------------------------------------------------------------

 SCF Done:  E(RHF) =  -307.227299059     A.U. after    2 cycles

 The electronic state is 1-A.
 Alpha  occ. eigenvalues --  -20.59475 -20.57762 -11.30660 -11.29920 -11.23039
 Alpha  occ. eigenvalues --  -11.22950  -1.49160  -1.46663  -1.04894  -0.95041
 Alpha  occ. eigenvalues --   -0.88121  -0.77843  -0.75538  -0.68015  -0.67309
 Alpha  occ. eigenvalues --   -0.64514  -0.61092  -0.59165  -0.56905  -0.53797
 Alpha  occ. eigenvalues --   -0.51258  -0.49587  -0.47632  -0.44600  -0.30645
 Alpha virt. eigenvalues --    0.02982   0.03642   0.03961   0.04789   0.06068
 Alpha virt. eigenvalues --    0.06527   0.07076   0.07666   0.07999   0.10112
 Alpha virt. eigenvalues --    0.12498   0.12976   0.14161   0.14903   0.15358

 Mulliken charges:
               1
     1  C    0.188588
     2  O   -1.482781
     3  C    0.450864
     4  C   -0.475390
     5  C   -0.053704
     6  O   -1.061725
     7  H    0.171678
     8  H    0.011845
     9  H    0.196671
    10  H    0.168717
    11  H    0.067400
    12  H    0.195844
    13  H    0.285072
    14  H    0.398440
    15  H    0.062698
    16  H    0.875784
 Sum of Mulliken charges =   0.00000

 Dipole moment (field-independent basis, Debye):
    X=              4.6420    Y=             -0.1512    Z=             -0.5996  Tot=              4.6830

 Test job not archived.
 1\1\GINC-SE174\SP\RHF\Aug-CC-pVDZ\C4H10O2\OHZDE\09-Apr-2025\0\\#t hf a
 ug-cc-pvdz iop(5/13=1,5/36=2,99/5=2) pseudo=read geom=check guess=(rea
 d,tcheck) scf=(maxcycle=1)\\title\\0,1\C,0,1.8682479,0.86187692,-0.918
 49047\O,0,0.53596097,0.36353453,-0.82619052\C,0,0.43330279,-0.8644681,
 -0.05097514\C,0,-1.05695241,-1.12527008,0.21000846\C,0,-1.84808925,-0.
 17253088,1.10617594\O,0,-1.52996621,1.39678617,0.33530755\H,0,2.520372
 3,0.12590762,-1.41615621\H,0,1.829266,1.77737438,-1.52029667\H,0,2.282
 52972,1.091352,0.07767365\H,0,0.97267742,-0.73355124,0.9035515\H,0,0.9

 Normal termination of Gaussian 16 at Wed Apr  9 15:49:04 2025.
