 Gaussian 16, Revision C.01,

 ----------------------------------------------------------------------
 #t hf aug-cc-pvdz symm=none int=(grid=ultrafine) guess=(read,tcheck) s
 table=(opt,rrhf)
 ----------------------------------------------------------------------
 -----
 title
 -----
 Symbolic Z-matrix:
 Charge =  0 Multiplicity = 1

 SCF Done:  E(RHF) =  -302.764565325     A.U. after   16 cycles
 Normal termination of Gaussian 16 at Wed Apr  9 18:45:42 2025.
 Gaussian 16:  ES64L-G16RevC.01  3-Jul-2019

 ----------------------------------------------------------------------
 #t hf aug-cc-pvdz iop(5/13=1,5/36=2,99/5=2) pseudo=read geom=check gue
 ss=(read,tcheck) scf=(maxcycle=1)
 ----------------------------------------------------------------------
 -----
 title
 -----
 Structure from the checkpoint file:  "Grambow2020_wb97xd3_008040_reverse_mol2.chk"
 Charge =  0 Multiplicity = 1

                         Standard orientation:
 ---------------------------------------------------------------------
 Center     Atomic      Atomic             Coordinates (Angstroms)
 Number     Number       Type             X           Y           Z
 ---------------------------------------------------------------------
      1          6           0        0.477179    1.662961   -0.337867
      2          6           0        0.655132   -1.230718   -0.682972
      3          6           0        1.784331   -0.482801   -0.018401
      4          7           0        0.735713    0.491804    0.517432
      5          6           0       -0.243664   -0.677810    0.391767
      6          6           0       -1.623692   -0.285284    0.087712
      7          7           0       -2.696136    0.054524   -0.139306
      8          1           0        1.331365    2.335016   -0.268234
      9          1           0        0.352649    1.292918   -1.353043
     10          1           0       -0.427438    2.167034   -0.000710
     11          1           0        0.709067   -2.304304   -0.829572
     12          1           0        2.553054    0.012546   -0.620775
     13          1           0        2.268231   -0.898219    0.892233
     14          1           0        0.887417    0.781275    1.480938
     15          1           0       -0.247100   -1.128635    1.410847
 ---------------------------------------------------------------------

 SCF Done:  E(RHF) =  -303.079658527     A.U. after    2 cycles

 The electronic state is 1-A.
 Alpha  occ. eigenvalues --  -15.63296 -15.51496 -11.33102 -11.30436 -11.29348
 Alpha  occ. eigenvalues --  -11.27753 -11.16133  -1.34743  -1.23663  -1.07947
 Alpha  occ. eigenvalues --   -0.99501  -0.96559  -0.81362  -0.78446  -0.74183
 Alpha  occ. eigenvalues --   -0.68968  -0.64598  -0.60634  -0.60577  -0.58958
 Alpha  occ. eigenvalues --   -0.56697  -0.54234  -0.51218  -0.49787  -0.47881
 Alpha  occ. eigenvalues --   -0.26330
 Alpha virt. eigenvalues --    0.01522   0.03287   0.03795   0.04323   0.05358
 Alpha virt. eigenvalues --    0.05743   0.06320   0.07358   0.09062   0.10194
 Alpha virt. eigenvalues --    0.11542   0.12671   0.13089   0.13329   0.13713

 Mulliken charges:
               1
     1  C   -0.451301
     2  C    0.182930
     3  C   -0.046887
     4  N    0.218710
     5  C    0.440617
     6  C   -2.184693
     7  N    1.119384
     8  H    0.053506
     9  H    0.357482
    10  H    0.161021
    11  H   -0.183821
    12  H    0.010922
    13  H   -0.052594
    14  H    0.408194
    15  H   -0.033473
 Sum of Mulliken charges =  -0.00000

 Dipole moment (field-independent basis, Debye):
    X=              4.9428    Y=              2.8479    Z=              3.9807  Tot=              6.9561

 Test job not archived.
 1\1\GINC-SE117\SP\RHF\Aug-CC-pVDZ\C5H8N2\OHZDE\09-Apr-2025\0\\#t hf au
 g-cc-pvdz iop(5/13=1,5/36=2,99/5=2) pseudo=read geom=check guess=(read
 ,tcheck) scf=(maxcycle=1)\\title\\0,1\C,0,0.38677498,-0.51522629,-1.45
 124905\C,0,0.7104844,0.58864628,1.23218535\C,0,0.20429136,1.46695919,0
 .11484095\N,0,-0.44561943,0.21919878,-0.48288791\C,0,-0.46106517,-0.31
 53456,0.95133371\C,0,-0.32792666,-1.77196181,1.05878072\N,0,-0.2331633
 7,-2.91460674,1.10903891\H,0,0.43495411,0.06393824,-2.37232879\H,0,1.3
 7279163,-0.62234264,-1.00479609\H,0,-0.05458136,-1.492224,-1.64302106\

 Normal termination of Gaussian 16 at Wed Apr  9 18:45:48 2025.
