 Gaussian 16, Revision C.01,

 ----------------------------------------------------------------------
 #t hf aug-cc-pvdz symm=none int=(grid=ultrafine) guess=(read,tcheck) s
 table=(opt,rrhf)
 ----------------------------------------------------------------------
 -----
 title
 -----
 Symbolic Z-matrix:
 Charge =  0 Multiplicity = 1

 SCF Done:  E(RHF) =  -343.652465593     A.U. after   15 cycles
 Normal termination of Gaussian 16 at Wed Apr  9 18:54:49 2025.
 Gaussian 16:  ES64L-G16RevC.01  3-Jul-2019

 ----------------------------------------------------------------------
 #t hf aug-cc-pvdz iop(5/13=1,5/36=2,99/5=2) pseudo=read geom=check gue
 ss=(read,tcheck) scf=(maxcycle=1)
 ----------------------------------------------------------------------
 -----
 title
 -----
 Structure from the checkpoint file:  "Grambow2020_wb97xd3_008203_reverse_mol2.chk"
 Charge =  0 Multiplicity = 1

                         Standard orientation:
 ---------------------------------------------------------------------
 Center     Atomic      Atomic             Coordinates (Angstroms)
 Number     Number       Type             X           Y           Z
 ---------------------------------------------------------------------
      1          8           0        1.504981   -0.142992   -1.294263
      2          6           0        1.822412   -0.399714   -0.162796
      3          6           0        1.013547   -0.042179    1.053751
      4          6           0       -0.414681    0.418909    0.746635
      5          8           0       -0.431623    1.547644   -0.094343
      6          6           0       -1.223917   -0.692160    0.216558
      7          6           0       -1.875992   -1.599094   -0.212710
      8          1           0       -0.029663    1.276784   -0.928879
      9          1           0        2.781557   -0.916607    0.039210
     10          1           0       -3.574627    2.121666   -1.273606
     11          1           0        1.552874    0.763946    1.564760
     12          1           0        1.010648   -0.896944    1.735987
     13          1           0       -0.874270    0.742627    1.683752
     14          1           0       -2.920349    1.953941   -0.956310
     15          1           0       -2.461248   -2.397199   -0.604691
 ---------------------------------------------------------------------

 SCF Done:  E(RHF) =  -344.005978900     A.U. after    2 cycles

 The electronic state is 1-A.
 Alpha  occ. eigenvalues --  -20.56575 -20.55459 -11.36164 -11.33098 -11.27031
 Alpha  occ. eigenvalues --  -11.24747 -11.24330  -1.50297  -1.46406  -1.09679
 Alpha  occ. eigenvalues --   -1.03345  -0.93532  -0.81649  -0.76213  -0.71941
 Alpha  occ. eigenvalues --   -0.70248  -0.66285  -0.63947  -0.61788  -0.60316
 Alpha  occ. eigenvalues --   -0.57135  -0.53840  -0.52406  -0.47059  -0.43906
 Alpha  occ. eigenvalues --   -0.41256  -0.40231
 Alpha virt. eigenvalues --    0.02922   0.03515   0.03921   0.04828   0.06148
 Alpha virt. eigenvalues --    0.06563   0.07090   0.09283   0.10383   0.10626
 Alpha virt. eigenvalues --    0.11462   0.11798   0.13067   0.13480   0.13736

 Mulliken charges:
               1
     1  O   -1.155521
     2  C    1.073968
     3  C   -0.573974
     4  C    0.651828
     5  O   -1.259135
     6  C    0.411739
     7  C    0.279571
     8  H    0.331223
     9  H    0.129553
    10  H    0.039817
    11  H    0.247436
    12  H    0.196807
    13  H    0.120035
    14  H   -0.053141
    15  H   -0.440208
 Sum of Mulliken charges =   0.00000

 Dipole moment (field-independent basis, Debye):
    X=              1.6055    Y=             -1.8193    Z=              2.4620  Tot=              3.4567

 Test job not archived.
 1\1\GINC-SE014\SP\RHF\Aug-CC-pVDZ\C5H8O2\OHZDE\09-Apr-2025\0\\#t hf au
 g-cc-pvdz iop(5/13=1,5/36=2,99/5=2) pseudo=read geom=check guess=(read
 ,tcheck) scf=(maxcycle=1)\\title\\0,1\O,0,1.27257434,1.85571752,-0.125
 53998\C,0,1.35935382,1.10111611,-1.05824177\C,0,0.9185727,-0.33672433,
 -1.03807504\C,0,0.06174995,-0.71532212,0.17406214\O,0,0.73819163,-0.48
 433914,1.38676404\C,0,-1.24894136,-0.04471239,0.12219337\C,0,-2.312096
 45,0.5024166,0.07366452\H,0,0.90323393,0.46531245,1.43483323\H,0,1.809
 65411,1.44691347,-2.00987024\H,0,-1.40849825,-0.7023834,4.02168697\H,0

 Normal termination of Gaussian 16 at Wed Apr  9 18:54:54 2025.
