 Gaussian 16, Revision C.01,

 ----------------------------------------------------------------------
 #t hf aug-cc-pvdz symm=none int=(grid=ultrafine) guess=(read,tcheck) s
 table=(opt,rrhf)
 ----------------------------------------------------------------------
 -----
 title
 -----
 Symbolic Z-matrix:
 Charge =  0 Multiplicity = 1

 SCF Done:  E(RHF) =  -307.616615675     A.U. after   16 cycles

 1\1\GINC-SE028\Stability\RHF\Aug-CC-pVDZ\C6H10O1\OHZDE\09-Apr-2025\0\\
 #t hf aug-cc-pvdz symm=none int=(grid=ultrafine) guess=(read,tcheck) s
 table=(opt,rrhf)\\title\\0,1\C,0,1.82338869,-0.53320019,-0.03607102\C,
 0,0.76879384,0.14926273,0.59342019\C,0,0.0015063,1.07424365,-0.3560702
 2\C,0,-1.40880905,0.83546412,0.14689438\O,0,-2.16522802,-0.00103178,-0
 .74583261\C,0,-1.49806323,-1.17105648,-0.23557393\C,0,-0.74693432,-0.3
 5770334,0.81442691\H,0,2.77490933,-0.68822621,0.45268055\H,0,2.2019834
 7,1.18442085,-0.80555832\H,0,1.65897433,-1.05444496,-0.97184145\H,0,1.

 Normal termination of Gaussian 16 at Wed Apr  9 19:04:09 2025.
 Gaussian 16:  ES64L-G16RevC.01  3-Jul-2019

 ----------------------------------------------------------------------
 #t hf aug-cc-pvdz iop(5/13=1,5/36=2,99/5=2) pseudo=read geom=check gue
 ss=(read,tcheck) scf=(maxcycle=1)
 ----------------------------------------------------------------------
 -----
 title
 -----
 Structure from the checkpoint file:  "Grambow2020_wb97xd3_008499_forward_mol1.chk"
 Charge =  0 Multiplicity = 1

                         Standard orientation:
 ---------------------------------------------------------------------
 Center     Atomic      Atomic             Coordinates (Angstroms)
 Number     Number       Type             X           Y           Z
 ---------------------------------------------------------------------
      1          6           0        2.144655   -0.654801   -0.300628
      2          6           0        1.199299   -0.004958    0.510661
      3          6           0        0.421874    1.086660   -0.230847
      4          6           0       -0.953759    0.864452    0.366845
      5          8           0       -1.841651    0.206238   -0.553621
      6          6           0       -1.218808   -1.060743   -0.268564
      7          6           0       -0.324389   -0.446913    0.804500
      8          1           0        3.120915   -0.932278    0.071160
      9          1           0        2.578105    1.127469   -0.867465
     10          1           0        1.863970   -1.030502   -1.277592
     11          1           0        1.597487    0.319170    1.471378
     12          1           0        2.051356    1.748157   -0.756490
     13          1           0        0.393767    0.908176   -1.308362
     14          1           0       -1.434029    1.606915    0.997287
     15          1           0       -0.715760   -1.496114   -1.135684
     16          1           0       -1.948918   -1.770760    0.125496
     17          1           0       -0.386920   -0.832315    1.817439
 ---------------------------------------------------------------------

 SCF Done:  E(RHF) =  -307.940071289     A.U. after    2 cycles

 The electronic state is 1-A.
 Alpha  occ. eigenvalues --  -20.54800 -11.30340 -11.30018 -11.28381 -11.26858
 Alpha  occ. eigenvalues --  -11.25924 -11.25448  -1.47998  -1.16417  -1.01002
 Alpha  occ. eigenvalues --   -0.97827  -0.86431  -0.83513  -0.74481  -0.70177
 Alpha  occ. eigenvalues --   -0.67836  -0.66069  -0.63946  -0.59447  -0.57436
 Alpha  occ. eigenvalues --   -0.54519  -0.52042  -0.49262  -0.46136  -0.45731
 Alpha  occ. eigenvalues --   -0.42243  -0.27430
 Alpha virt. eigenvalues --    0.02023   0.03323   0.03775   0.04645   0.05067
 Alpha virt. eigenvalues --    0.05904   0.05958   0.06303   0.07624   0.08734
 Alpha virt. eigenvalues --    0.09871   0.11079   0.12207   0.13135   0.13676

 Mulliken charges:
               1
     1  C   -0.057976
     2  C   -0.008354
     3  C   -0.148867
     4  C    1.243651
     5  O   -1.413911
     6  C    0.636707
     7  C   -0.129644
     8  H   -0.141967
     9  H    0.005725
    10  H   -0.070489
    11  H   -0.070047
    12  H    0.268860
    13  H   -0.070756
    14  H   -0.040496
    15  H    0.079352
    16  H    0.033591
    17  H   -0.115378
 Sum of Mulliken charges =   0.00000

 Dipole moment (field-independent basis, Debye):
    X=              0.0571    Y=             -1.9862    Z=              1.6962  Tot=              2.6126

 Test job not archived.
 1\1\GINC-SE028\SP\RHF\Aug-CC-pVDZ\C6H10O1\OHZDE\09-Apr-2025\0\\#t hf a
 ug-cc-pvdz iop(5/13=1,5/36=2,99/5=2) pseudo=read geom=check guess=(rea
 d,tcheck) scf=(maxcycle=1)\\title\\0,1\C,0,1.82338869,-0.53320019,-0.0
 3607102\C,0,0.76879384,0.14926273,0.59342019\C,0,0.0015063,1.07424365,
 -0.35607022\C,0,-1.40880905,0.83546412,0.14689438\O,0,-2.16522802,-0.0
 0103178,-0.74583261\C,0,-1.49806323,-1.17105648,-0.23557393\C,0,-0.746
 93432,-0.35770334,0.81442691\H,0,2.77490933,-0.68822621,0.45268055\H,0
 ,2.20198347,1.18442085,-0.80555832\H,0,1.65897433,-1.05444496,-0.97184

 Normal termination of Gaussian 16 at Wed Apr  9 19:04:15 2025.
