 Gaussian 16, Revision C.01,

 ----------------------------------------------------------------------
 #t hf aug-cc-pvdz symm=none int=(grid=ultrafine) guess=(read,tcheck) s
 table=(opt,rrhf)
 ----------------------------------------------------------------------
 -----
 title
 -----
 Symbolic Z-matrix:
 Charge =  0 Multiplicity = 1

 SCF Done:  E(RHF) =  -283.515171805     A.U. after   17 cycles
 Normal termination of Gaussian 16 at Wed Apr  9 16:13:42 2025.
 Gaussian 16:  ES64L-G16RevC.01  3-Jul-2019

 ----------------------------------------------------------------------
 #t hf aug-cc-pvdz iop(5/13=1,5/36=2,99/5=2) pseudo=read geom=check gue
 ss=(read,tcheck) scf=(maxcycle=1)
 ----------------------------------------------------------------------
 -----
 title
 -----
 Structure from the checkpoint file:  "Grambow2020_b97d3_007176_reverse_mol1.chk"
 Charge =  0 Multiplicity = 1

                         Standard orientation:
 ---------------------------------------------------------------------
 Center     Atomic      Atomic             Coordinates (Angstroms)
 Number     Number       Type             X           Y           Z
 ---------------------------------------------------------------------
      1          6           0        0.137714    1.652277   -0.023752
      2          7           0       -1.008379    0.840050   -0.169711
      3          6           0       -0.606205   -0.487545    0.031968
      4          8           0       -1.259194   -1.506285   -0.006680
      5          6           0        0.890201   -0.212720    0.275772
      6          6           0        1.977941   -0.859318   -0.208727
      7          1           0        0.656088    1.963143   -0.933093
      8          1           0        1.035022    0.334168    1.235088
      9          1           0        0.115267    2.409652    0.769124
     10          1           0       -1.960553    1.150582    0.013925
     11          1           0        2.888478   -0.243779   -0.295201
 ---------------------------------------------------------------------

 SCF Done:  E(RHF) =  -283.799680300     A.U. after    2 cycles

 The electronic state is 1-A.
 Alpha  occ. eigenvalues --  -20.52995 -15.55165 -11.37960 -11.34268 -11.29046
 Alpha  occ. eigenvalues --  -11.27657  -1.46973  -1.28218  -1.06884  -0.95488
 Alpha  occ. eigenvalues --   -0.90111  -0.75848  -0.72561  -0.69623  -0.67133
 Alpha  occ. eigenvalues --   -0.62484  -0.60736  -0.55786  -0.47207  -0.43973
 Alpha  occ. eigenvalues --   -0.42491  -0.33539
 Alpha virt. eigenvalues --    0.01106   0.02658   0.03536   0.04213   0.04976
 Alpha virt. eigenvalues --    0.06136   0.08429   0.09489   0.10800   0.11295
 Alpha virt. eigenvalues --    0.12199   0.13064   0.13895   0.14590   0.15729

 Mulliken charges:
               1
     1  C   -0.303506
     2  N    0.625423
     3  C    0.495422
     4  O   -1.112642
     5  C    0.341957
     6  C   -0.548234
     7  H    0.071436
     8  H    0.375912
     9  H   -0.031137
    10  H    0.058053
    11  H    0.027317
 Sum of Mulliken charges =  -0.00000

 Dipole moment (field-independent basis, Debye):
    X=              0.8720    Y=              6.1179    Z=              1.4138  Tot=              6.3394

 Test job not archived.
 1\1\GINC-SE226\SP\RHF\Aug-CC-pVDZ\C4H5N1O1\OHZDE\09-Apr-2025\0\\#t hf
 aug-cc-pvdz iop(5/13=1,5/36=2,99/5=2) pseudo=read geom=check guess=(re
 ad,tcheck) scf=(maxcycle=1)\\title\\0,1\C,0,-0.88043567,0.2452045,-0.8
 0340277\N,0,-0.89390126,-0.92793089,-0.01719848\C,0,0.2454512,-0.89536
 645,0.79873162\O,0,0.6315439,-1.69892756,1.617842\C,0,0.82287357,0.439
 47607,0.28983234\C,0,2.09820699,0.76157851,-0.03541065\H,0,-0.49022974
 ,0.16777222,-1.82025764\H,0,0.16704403,1.28793362,0.5904244\H,0,-1.729
 54577,0.93038796,-0.69246754\H,0,-1.73771567,-1.43025745,0.25193618\H,

 Normal termination of Gaussian 16 at Wed Apr  9 16:13:46 2025.
