 Gaussian 16, Revision C.01,

 ----------------------------------------------------------------------
 #t hf aug-cc-pvdz symm=none int=(grid=ultrafine) guess=(read,tcheck) s
 table=(opt,rrhf)
 ----------------------------------------------------------------------
 -----
 title
 -----
 Symbolic Z-matrix:
 Charge =  0 Multiplicity = 1

 SCF Done:  E(RHF) =  -305.784981083     A.U. after   13 cycles
 Normal termination of Gaussian 16 at Wed Apr  9 17:01:12 2025.
 Gaussian 16:  ES64L-G16RevC.01  3-Jul-2019

 ----------------------------------------------------------------------
 #t hf aug-cc-pvdz iop(5/13=1,5/36=2,99/5=2) pseudo=read geom=check gue
 ss=(read,tcheck) scf=(maxcycle=1)
 ----------------------------------------------------------------------
 -----
 title
 -----
 Structure from the checkpoint file:  "Grambow2020_wb97xd3_006221_reverse_mol2.chk"
 Charge =  0 Multiplicity = 1

                         Standard orientation:
 ---------------------------------------------------------------------
 Center     Atomic      Atomic             Coordinates (Angstroms)
 Number     Number       Type             X           Y           Z
 ---------------------------------------------------------------------
      1          6           0       -1.429273   -1.563329    0.161364
      2          8           0       -0.328286   -0.751070   -0.170453
      3          6           0       -0.690097    0.572070   -0.498090
      4          6           0       -0.731090    1.613119    0.553437
      5          6           0        0.293230    1.629820   -0.236572
      6          8           0        2.532004   -0.674885    0.040459
      7          1           0       -2.154757   -1.601888   -0.659602
      8          1           0       -1.934996   -1.196259    1.062211
      9          1           0       -1.052634   -2.567880    0.347661
     10          1           0       -1.355144    0.595243   -1.363082
     11          1           0        2.632103   -0.535980    0.982788
     12          1           0       -1.254521    2.027595    1.397257
     13          1           0        1.242456    2.042264   -0.529650
     14          1           0        1.591136   -0.865535   -0.078466
 ---------------------------------------------------------------------

 SCF Done:  E(RHF) =  -306.103571691     A.U. after    2 cycles

 The electronic state is 1-A.
 Alpha  occ. eigenvalues --  -20.55334 -20.52413 -11.31042 -11.28814 -11.26334
 Alpha  occ. eigenvalues --  -11.26090  -1.47791  -1.40722  -1.18634  -0.94718
 Alpha  occ. eigenvalues --   -0.82358  -0.78802  -0.72273  -0.68493  -0.68145
 Alpha  occ. eigenvalues --   -0.63491  -0.62217  -0.55212  -0.53734  -0.51529
 Alpha  occ. eigenvalues --   -0.46852  -0.46057  -0.41451  -0.39589
 Alpha virt. eigenvalues --    0.03122   0.03839   0.04186   0.04633   0.06349
 Alpha virt. eigenvalues --    0.06671   0.07075   0.08926   0.09555   0.11851
 Alpha virt. eigenvalues --    0.12466   0.13516   0.14139   0.14707   0.15393

 Mulliken charges:
               1
     1  C    0.125865
     2  O   -1.428152
     3  C    1.071529
     4  C    0.002366
     5  C    0.290505
     6  O   -0.927648
     7  H    0.183770
     8  H    0.181574
     9  H   -0.032486
    10  H   -0.019880
    11  H    0.322228
    12  H   -0.206823
    13  H   -0.226397
    14  H    0.663549
 Sum of Mulliken charges =  -0.00000

 Dipole moment (field-independent basis, Debye):
    X=             -2.9369    Y=              0.9440    Z=              1.5362  Tot=              3.4462

 Test job not archived.
 1\1\GINC-SE162\SP\RHF\Aug-CC-pVDZ\C4H8O2\OHZDE\09-Apr-2025\0\\#t hf au
 g-cc-pvdz iop(5/13=1,5/36=2,99/5=2) pseudo=read geom=check guess=(read
 ,tcheck) scf=(maxcycle=1)\\title\\0,1\C,0,1.61078563,-0.53758651,-0.90
 121053\O,0,0.40047013,0.10947286,-0.58737605\C,0,-0.61547467,-0.777516
 95,-0.17499686\C,0,-0.78638455,-1.09560655,1.26054579\C,0,-1.63333767,
 -0.26247667,0.74850052\O,0,-0.65137004,2.7149642,-0.00721209\H,0,1.467
 85282,-1.28320849,-1.69204344\H,0,2.03432843,-1.03426811,-0.02033606\H
 ,0,2.30797568,0.22134424,-1.25282983\H,0,-0.85174512,-1.49742845,-0.96

 Normal termination of Gaussian 16 at Wed Apr  9 17:01:16 2025.
