 Gaussian 16, Revision C.01,

 ----------------------------------------------------------------------
 #t hf aug-cc-pvdz symm=none int=(grid=ultrafine) guess=(read,tcheck) s
 table=(opt,rrhf)
 ----------------------------------------------------------------------
 -----
 title
 -----
 Symbolic Z-matrix:
 Charge =  0 Multiplicity = 1

 SCF Done:  E(RHF) =  -379.413425601     A.U. after   16 cycles
 Normal termination of Gaussian 16 at Wed Apr  9 19:05:51 2025.
 Gaussian 16:  ES64L-G16RevC.01  3-Jul-2019

 ----------------------------------------------------------------------
 #t hf aug-cc-pvdz iop(5/13=1,5/36=2,99/5=2) pseudo=read geom=check gue
 ss=(read,tcheck) scf=(maxcycle=1)
 ----------------------------------------------------------------------
 -----
 title
 -----
 Structure from the checkpoint file:  "Grambow2020_wb97xd3_008543_reverse_mol1.chk"
 Charge =  0 Multiplicity = 1

                         Standard orientation:
 ---------------------------------------------------------------------
 Center     Atomic      Atomic             Coordinates (Angstroms)
 Number     Number       Type             X           Y           Z
 ---------------------------------------------------------------------
      1          8           0        0.633076    1.513629    0.087651
      2          6           0        0.071910    0.242214    0.050357
      3          6           0       -1.074931    0.072481   -0.956219
      4          8           0       -2.082741   -0.456017   -0.063555
      5          6           0       -0.858331   -0.074040    1.224069
      6          6           0        1.151633   -0.800119   -0.115583
      7          8           0        2.321473   -0.531122   -0.070051
      8          1           0        1.592705    1.395989    0.100867
      9          1           0       -0.912732   -0.661558   -1.744651
     10          1           0       -1.370027    1.028549   -1.390253
     11          1           0       -2.124106    0.267776    0.732189
     12          1           0       -0.700778   -1.044330    1.701802
     13          1           0        0.798782   -1.841564   -0.248058
 ---------------------------------------------------------------------

 SCF Done:  E(RHF) =  -379.793128150     A.U. after    2 cycles

 The electronic state is 1-A.
 Alpha  occ. eigenvalues --  -20.60174 -20.57972 -20.56515 -11.36660 -11.32835
 Alpha  occ. eigenvalues --  -11.32618 -11.29942  -1.52268  -1.50251  -1.47122
 Alpha  occ. eigenvalues --   -1.08304  -0.96075  -0.89218  -0.78934  -0.76337
 Alpha  occ. eigenvalues --   -0.72096  -0.69801  -0.67749  -0.65322  -0.60435
 Alpha  occ. eigenvalues --   -0.56924  -0.55348  -0.54781  -0.50371  -0.46060
 Alpha  occ. eigenvalues --   -0.44657  -0.37133
 Alpha virt. eigenvalues --    0.03272   0.03915   0.04492   0.04903   0.06333
 Alpha virt. eigenvalues --    0.06913   0.08476   0.09650   0.10016   0.10669
 Alpha virt. eigenvalues --    0.12318   0.13905   0.14012   0.14745   0.15347

 Mulliken charges:
               1
     1  O   -1.535748
     2  C    0.926370
     3  C    0.809813
     4  O   -1.292395
     5  C   -0.139992
     6  C    1.048363
     7  O   -1.147198
     8  H    0.283837
     9  H    0.058523
    10  H    0.104433
    11  H    0.723150
    12  H    0.056881
    13  H    0.103964
 Sum of Mulliken charges =  -0.00000

 Dipole moment (field-independent basis, Debye):
    X=             -0.8239    Y=             -1.5659    Z=             -1.4109  Tot=              2.2630

 Test job not archived.
 1\1\GINC-SE045\SP\RHF\Aug-CC-pVDZ\C4H6O3\OHZDE\09-Apr-2025\0\\#t hf au
 g-cc-pvdz iop(5/13=1,5/36=2,99/5=2) pseudo=read geom=check guess=(read
 ,tcheck) scf=(maxcycle=1)\\title\\0,1\O,0,1.10979728,0.49773066,-1.302
 94352\C,0,0.32212521,0.14759961,-0.21217537\C,0,-0.91285915,-0.6983972
 5,-0.55327817\O,0,-1.92656462,0.1159117,0.08007891\C,0,-0.55396026,1.2
 814313,0.32621558\C,0,1.17383913,-0.47429261,0.86839354\O,0,2.37308473
 ,-0.50627873,0.80718261\H,0,2.02908868,0.34483652,-1.04520508\H,0,-0.9
 5252399,-1.68848386,-0.10061753\H,0,-1.05978704,-0.77387266,-1.6313546

 Normal termination of Gaussian 16 at Wed Apr  9 19:05:55 2025.
