 Gaussian 16, Revision C.01,

 ----------------------------------------------------------------------
 #t hf aug-cc-pvdz symm=none int=(grid=ultrafine) guess=(read,tcheck) s
 table=(opt,rrhf)
 ----------------------------------------------------------------------
 -----
 title
 -----
 Symbolic Z-matrix:
 Charge =  0 Multiplicity = 1

 SCF Done:  E(RHF) =  -233.966790823     A.U. after   16 cycles
 Normal termination of Gaussian 16 at Wed Apr  9 15:51:13 2025.
 Gaussian 16:  ES64L-G16RevC.01  3-Jul-2019

 ----------------------------------------------------------------------
 #t hf aug-cc-pvdz iop(5/13=1,5/36=2,99/5=2) pseudo=read geom=check gue
 ss=(read,tcheck) scf=(maxcycle=1)
 ----------------------------------------------------------------------
 -----
 title
 -----
 Structure from the checkpoint file:  "Grambow2020_b97d3_006831_reverse_mol1.chk"
 Charge =  0 Multiplicity = 1

                         Standard orientation:
 ---------------------------------------------------------------------
 Center     Atomic      Atomic             Coordinates (Angstroms)
 Number     Number       Type             X           Y           Z
 ---------------------------------------------------------------------
      1          6           0       -0.933523    1.316976    0.367280
      2          6           0       -0.689322   -0.020048    0.224164
      3          6           0       -1.431106   -0.862034   -0.772792
      4          6           0        1.227061    0.761619   -0.832220
      5          6           0        1.593635   -0.460054   -0.006730
      6          6           0        0.418969   -0.666121    1.015185
      7          1           0       -1.984217    0.292743    1.525758
      8          1           0       -0.430810    1.897678    1.135317
      9          1           0       -1.634658    1.830507   -0.288176
     10          1           0       -2.083364   -1.550360   -0.214343
     11          1           0       -0.732156   -1.465300   -1.365710
     12          1           0       -2.049005   -0.256204   -1.445555
     13          1           0        1.190110    0.660765   -1.917038
     14          1           0        1.602723    1.725899   -0.484529
     15          1           0        2.553508   -0.380146    0.528898
     16          1           0        1.654876   -1.348346   -0.650896
     17          1           0        0.586947   -0.112978    1.947573
     18          1           0        0.211764   -1.716287    1.259377
 ---------------------------------------------------------------------

 SCF Done:  E(RHF) =  -234.226343818     A.U. after    2 cycles

 The electronic state is 1-A.
 Alpha  occ. eigenvalues --  -11.32663 -11.31616 -11.25355 -11.24617 -11.23838
 Alpha  occ. eigenvalues --  -11.21392  -1.15350  -1.02833  -0.97532  -0.91910
 Alpha  occ. eigenvalues --   -0.80026  -0.75437  -0.67406  -0.66831  -0.62295
 Alpha  occ. eigenvalues --   -0.60725  -0.57257  -0.56025  -0.54716  -0.51049
 Alpha  occ. eigenvalues --   -0.49871  -0.47768  -0.42652  -0.22819
 Alpha virt. eigenvalues --    0.03348   0.03391   0.03646   0.04486   0.05486
 Alpha virt. eigenvalues --    0.05668   0.05780   0.06465   0.06531   0.09019
 Alpha virt. eigenvalues --    0.09385   0.09877   0.10474   0.11961   0.12686

 Mulliken charges:
               1
     1  C    0.308608
     2  C   -0.235457
     3  C   -0.561940
     4  C    0.164667
     5  C   -0.370510
     6  C   -0.047712
     7  H    0.002213
     8  H   -0.099490
     9  H   -0.101048
    10  H    0.261461
    11  H    0.218587
    12  H    0.170068
    13  H   -0.137307
    14  H   -0.038298
    15  H    0.068988
    16  H    0.141457
    17  H    0.085616
    18  H    0.170096
 Sum of Mulliken charges =   0.00000

 Dipole moment (field-independent basis, Debye):
    X=              0.0682    Y=             -0.1427    Z=             -0.8532  Tot=              0.8677

 Test job not archived.
 1\1\GINC-SE163\SP\RHF\Aug-CC-pVDZ\C6H12\OHZDE\09-Apr-2025\0\\#t hf aug
 -cc-pvdz iop(5/13=1,5/36=2,99/5=2) pseudo=read geom=check guess=(read,
 tcheck) scf=(maxcycle=1)\\title\\0,1\C,0,-1.23628097,-0.82069034,0.706
 25874\C,0,-0.59465975,-0.13166334,-0.28435446\C,0,-1.0789262,1.2050251
 9,-0.76586683\C,0,0.93765259,0.26807983,1.41614448\C,0,1.70016492,0.02
 926142,0.12392354\C,0,0.69169031,-0.66974021,-0.85637742\H,0,-1.866916
 92,-1.295436,-0.98843805\H,0,-0.90735413,-1.81345685,0.9995835\H,0,-2.
 08914302,-0.38792242,1.22612789\H,0,-1.46082597,1.07678436,-1.7899788\

 Normal termination of Gaussian 16 at Wed Apr  9 15:51:19 2025.
