 Gaussian 16, Revision C.01,

 ----------------------------------------------------------------------
 #t hf aug-cc-pvdz symm=none int=(grid=ultrafine) guess=(read,tcheck) s
 table=(opt,rrhf)
 ----------------------------------------------------------------------
 -----
 title
 -----
 Symbolic Z-matrix:
 Charge =  0 Multiplicity = 1

 SCF Done:  E(RHF) =  -308.819900448     A.U. after   16 cycles

 1\1\GINC-SE132\Stability\RHF\Aug-CC-pVDZ\C6H12O1\OHZDE\09-Apr-2025\0\\
 #t hf aug-cc-pvdz symm=none int=(grid=ultrafine) guess=(read,tcheck) s
 table=(opt,rrhf)\\title\\0,1\C,0,1.64897808,0.99417818,1.14163209\O,0,
 1.88025486,-0.13347667,-0.49653329\C,0,0.77070606,-1.0177719,-0.593018
 86\C,0,-0.51457668,-0.19447554,-0.34548326\C,0,-0.21489856,1.24990428,
 -0.56488615\C,0,-1.81081833,-0.86631438,-0.68005349\C,0,-1.4283026,-0.
 64466945,0.75822751\H,0,2.48621359,0.40522187,1.49037665\H,0,0.7125119
 2,0.81591613,1.64571428\H,0,1.86773421,2.02676066,0.91893263\H,0,0.764

 Normal termination of Gaussian 16 at Wed Apr  9 03:46:34 2025.
 Gaussian 16:  ES64L-G16RevC.01  3-Jul-2019

 ----------------------------------------------------------------------
 #t hf aug-cc-pvdz iop(5/13=1,5/36=2,99/5=2) pseudo=read geom=check gue
 ss=(read,tcheck) scf=(maxcycle=1)
 ----------------------------------------------------------------------
 -----
 title
 -----
 Structure from the checkpoint file:  "Grambow2020_wb97xd3_007848_reverse_mol1.chk"
 Charge =  0 Multiplicity = 1

                         Standard orientation:
 ---------------------------------------------------------------------
 Center     Atomic      Atomic             Coordinates (Angstroms)
 Number     Number       Type             X           Y           Z
 ---------------------------------------------------------------------
      1          6           0        1.990322   -0.855288   -0.575825
      2          8           0        1.559318    0.941823    0.194440
      3          6           0        0.209211    1.254738   -0.124435
      4          6           0       -0.651999    0.008156    0.184427
      5          6           0        0.098169   -0.880049    1.118513
      6          6           0       -2.136309    0.208963    0.191278
      7          6           0       -1.486337   -0.555484   -0.929996
      8          1           0        2.610418   -0.264268   -1.235850
      9          1           0        1.139146   -1.329601   -1.037748
     10          1           0        2.520773   -1.454780    0.147298
     11          1           0       -0.094084    2.088678    0.515237
     12          1           0        0.160482    1.573674   -1.167786
     13          1           0        1.390964    0.237846    0.931886
     14          1           0        0.046401   -1.944923    0.912401
     15          1           0       -0.070360   -0.670963    2.177553
     16          1           0       -2.524594    1.197266   -0.033872
     17          1           0       -2.714704   -0.347249    0.917565
     18          1           0       -1.443891   -0.078270   -1.902886
     19          1           0       -1.633434   -1.628213   -0.963080
 ---------------------------------------------------------------------

 SCF Done:  E(RHF) =  -309.152218667     A.U. after    2 cycles

 The electronic state is 1-A.
 Alpha  occ. eigenvalues --  -20.56809 -11.35755 -11.27952 -11.22559 -11.22057
 Alpha  occ. eigenvalues --  -11.21537 -11.16528  -1.46596  -1.14163  -0.98586
 Alpha  occ. eigenvalues --   -0.94035  -0.89392  -0.81745  -0.73713  -0.69791
 Alpha  occ. eigenvalues --   -0.65812  -0.65525  -0.63459  -0.61854  -0.59559
 Alpha  occ. eigenvalues --   -0.56300  -0.52974  -0.50400  -0.47410  -0.45647
 Alpha  occ. eigenvalues --   -0.42153  -0.39028  -0.26254
 Alpha virt. eigenvalues --    0.02048   0.03654   0.04179   0.04450   0.05449
 Alpha virt. eigenvalues --    0.05990   0.06089   0.06508   0.06890   0.08290
 Alpha virt. eigenvalues --    0.09035   0.09749   0.10155   0.12601   0.13348

 Mulliken charges:
               1
     1  C   -0.163400
     2  O   -1.372240
     3  C    0.586691
     4  C    0.116051
     5  C   -0.729273
     6  C    0.446832
     7  C    0.118645
     8  H    0.080997
     9  H    0.336349
    10  H    0.172469
    11  H    0.066107
    12  H    0.081073
    13  H    1.020384
    14  H   -0.092100
    15  H   -0.157871
    16  H   -0.140023
    17  H   -0.111329
    18  H   -0.138877
    19  H   -0.120486
 Sum of Mulliken charges =   0.00000

 Dipole moment (field-independent basis, Debye):
    X=              1.7060    Y=             -0.5506    Z=             -2.3731  Tot=              2.9741

 Test job not archived.
 1\1\GINC-SE132\SP\RHF\Aug-CC-pVDZ\C6H12O1\OHZDE\09-Apr-2025\0\\#t hf a
 ug-cc-pvdz iop(5/13=1,5/36=2,99/5=2) pseudo=read geom=check guess=(rea
 d,tcheck) scf=(maxcycle=1)\\title\\0,1\C,0,1.64897808,0.99417818,1.141
 63209\O,0,1.88025486,-0.13347667,-0.49653329\C,0,0.77070606,-1.0177719
 ,-0.59301886\C,0,-0.51457668,-0.19447554,-0.34548326\C,0,-0.21489856,1
 .24990428,-0.56488615\C,0,-1.81081833,-0.86631438,-0.68005349\C,0,-1.4
 283026,-0.64466945,0.75822751\H,0,2.48621359,0.40522187,1.49037665\H,0
 ,0.71251192,0.81591613,1.64571428\H,0,1.86773421,2.02676066,0.91893263

 Normal termination of Gaussian 16 at Wed Apr  9 03:46:42 2025.
