 Gaussian 16, Revision C.01,

 ----------------------------------------------------------------------
 #t hf aug-cc-pvdz symm=none int=(grid=ultrafine) guess=(read,tcheck) s
 table=(opt,rrhf)
 ----------------------------------------------------------------------
 -----
 title
 -----
 Symbolic Z-matrix:
 Charge =  0 Multiplicity = 1

 SCF Done:  E(RHF) =  -316.226298146     A.U. after   20 cycles
 Normal termination of Gaussian 16 at Wed Apr  9 18:16:58 2025.
 Gaussian 16:  ES64L-G16RevC.01  3-Jul-2019

 ----------------------------------------------------------------------
 #t hf aug-cc-pvdz iop(5/13=1,5/36=2,99/5=2) pseudo=read geom=check gue
 ss=(read,tcheck) scf=(maxcycle=1)
 ----------------------------------------------------------------------
 -----
 title
 -----
 Structure from the checkpoint file:  "Grambow2020_wb97xd3_007268_forward_mol1.chk"
 Charge =  0 Multiplicity = 1

                         Standard orientation:
 ---------------------------------------------------------------------
 Center     Atomic      Atomic             Coordinates (Angstroms)
 Number     Number       Type             X           Y           Z
 ---------------------------------------------------------------------
      1          7           0        1.978799   -0.699299   -0.186250
      2          6           0        2.038284    0.530469   -0.067239
      3          6           0        0.316164    0.701780    0.100724
      4          7           0       -0.582174    1.476326    0.011903
      5          6           0       -2.100888    0.110063   -0.079652
      6          6           0       -1.700591   -1.051741   -0.080073
      7          7           0        0.432806   -0.708142    0.153005
      8          1           0       -2.835895    0.884351   -0.099011
      9          1           0       -1.702762   -2.117192   -0.130788
     10          1           0        0.414834   -0.992780    1.136636
 ---------------------------------------------------------------------

 SCF Done:  E(RHF) =  -316.538957162     A.U. after    2 cycles

 The electronic state is 1-A.
 Alpha  occ. eigenvalues --  -15.65046 -15.57915 -15.55811 -11.34299 -11.32782
 Alpha  occ. eigenvalues --  -11.29244 -11.28433  -1.39365  -1.26491  -1.16708
 Alpha  occ. eigenvalues --   -1.06280  -0.88516  -0.80274  -0.77693  -0.71771
 Alpha  occ. eigenvalues --   -0.71213  -0.65348  -0.62320  -0.56851  -0.53108
 Alpha  occ. eigenvalues --   -0.51522  -0.46360  -0.44010  -0.36469
 Alpha virt. eigenvalues --   -0.02301   0.02793   0.03703   0.04509   0.06765
 Alpha virt. eigenvalues --    0.07962   0.08891   0.09701   0.09861   0.10123
 Alpha virt. eigenvalues --    0.11065   0.11607   0.12710   0.13701   0.14139

 Mulliken charges:
               1
     1  N    0.311036
     2  C   -0.340458
     3  C   -1.718183
     4  N    0.966957
     5  C    0.175576
     6  C    0.417430
     7  N    0.153361
     8  H   -0.188376
     9  H   -0.202430
    10  H    0.425087
 Sum of Mulliken charges =   0.00000

 Dipole moment (field-independent basis, Debye):
    X=             -2.3343    Y=             -2.2821    Z=              1.5920  Tot=              3.6320

 Test job not archived.
 1\1\GINC-SE135\SP\RHF\Aug-CC-pVDZ\C4H3N3\OHZDE\09-Apr-2025\0\\#t hf au
 g-cc-pvdz iop(5/13=1,5/36=2,99/5=2) pseudo=read geom=check guess=(read
 ,tcheck) scf=(maxcycle=1)\\title\\0,1\N,0,2.28179322,0.72564895,0.3760
 3213\C,0,2.46738179,-0.48465456,0.20066353\C,0,0.77742608,-0.81473205,
 -0.04090508\N,0,-0.04176056,-1.67697067,-0.02360056\C,0,-1.69119356,-0
 .47232961,0.0752063\C,0,-1.40882962,0.7214931,0.14650239\N,0,0.7547444
 5,0.60065255,-0.0211638\H,0,-2.34566832,-1.31476624,0.02942495\H,0,-1.
 51878545,1.77760115,0.24802618\H,0,0.74122898,0.93234037,-0.99001505\\

 Normal termination of Gaussian 16 at Wed Apr  9 18:17:02 2025.
