 Gaussian 16, Revision C.01,

 ----------------------------------------------------------------------
 #t hf aug-cc-pvdz symm=none int=(grid=ultrafine) guess=(read,tcheck) s
 table=(opt,rrhf)
 ----------------------------------------------------------------------
 -----
 title
 -----
 Symbolic Z-matrix:
 Charge =  0 Multiplicity = 1

 SCF Done:  E(RHF) =  -358.614341010     A.U. after   14 cycles
 Normal termination of Gaussian 16 at Wed Apr  9 04:04:30 2025.
 Gaussian 16:  ES64L-G16RevC.01  3-Jul-2019

 ----------------------------------------------------------------------
 #t hf aug-cc-pvdz iop(5/13=1,5/36=2,99/5=2) pseudo=read geom=check gue
 ss=(read,tcheck) scf=(maxcycle=1)
 ----------------------------------------------------------------------
 -----
 title
 -----
 Structure from the checkpoint file:  "Grambow2020_wb97xd3_009140_forward_mol2.chk"
 Charge =  0 Multiplicity = 1

                         Standard orientation:
 ---------------------------------------------------------------------
 Center     Atomic      Atomic             Coordinates (Angstroms)
 Number     Number       Type             X           Y           Z
 ---------------------------------------------------------------------
      1          6           0       -2.454169   -0.448212    0.001479
      2          6           0       -1.041208    0.003286   -0.001369
      3          6           0       -0.495575    1.218952   -0.000999
      4          8           0        0.878466    1.125672   -0.000114
      5          6           0        1.221483   -0.197538   -0.000069
      6          8           0        2.343546   -0.614251    0.001691
      7          7           0        0.034650   -0.883011   -0.002132
      8          1           0       -2.677361   -1.053902   -0.879851
      9          1           0       -2.675476   -1.047978    0.887330
     10          1           0       -3.121631    0.411938   -0.000470
     11          1           0       -0.922950    2.205577    0.002975
     12          1           0       -0.004418   -1.884852   -0.001930
 ---------------------------------------------------------------------

 SCF Done:  E(RHF) =  -358.974126633     A.U. after    2 cycles

 The electronic state is 1-A.
 Alpha  occ. eigenvalues --  -20.61069 -20.51755 -15.55917 -11.41480 -11.30287
 Alpha  occ. eigenvalues --  -11.30159 -11.27094  -1.57263  -1.46293  -1.28459
 Alpha  occ. eigenvalues --   -1.08282  -0.98370  -0.89989  -0.85752  -0.75649
 Alpha  occ. eigenvalues --   -0.69940  -0.67107  -0.64735  -0.63193  -0.61272
 Alpha  occ. eigenvalues --   -0.59803  -0.56665  -0.53489  -0.49868  -0.45472
 Alpha  occ. eigenvalues --   -0.33986
 Alpha virt. eigenvalues --    0.02460   0.03460   0.04101   0.04498   0.06772
 Alpha virt. eigenvalues --    0.08420   0.09753   0.09767   0.11275   0.12381
 Alpha virt. eigenvalues --    0.12818   0.13182   0.14930   0.15374   0.16138

 Mulliken charges:
               1
     1  C   -0.514317
     2  C   -0.917104
     3  C    1.379823
     4  O   -1.490194
     5  C    1.345151
     6  O   -1.225870
     7  N    0.936471
     8  H    0.227975
     9  H    0.229357
    10  H    0.179044
    11  H   -0.121316
    12  H   -0.029019
 Sum of Mulliken charges =  -0.00000

 Dipole moment (field-independent basis, Debye):
    X=             -5.6348    Y=             -0.5489    Z=              0.0030  Tot=              5.6614

 Test job not archived.
 1\1\GINC-SE253\SP\RHF\Aug-CC-pVDZ\C4H5N1O2\OHZDE\09-Apr-2025\0\\#t hf
 aug-cc-pvdz iop(5/13=1,5/36=2,99/5=2) pseudo=read geom=check guess=(re
 ad,tcheck) scf=(maxcycle=1)\\title\\0,1\C,0,-1.55465569,-0.35232963,-0
 .71465221\C,0,-0.27554508,0.09976723,-0.11481719\C,0,0.18323583,1.3122
 559,0.19332408\O,0,1.44331814,1.22095093,0.74154425\C,0,1.80111675,-0.
 09764232,0.7844084\O,0,2.84100934,-0.51174842,1.20845789\N,0,0.7386712
 1,-0.78229593,0.25440074\H,0,-1.38454972,-0.88637366,-1.65235088\H,0,-
 2.09330372,-1.02085553,-0.0391095\H,0,-2.19320384,0.50440572,-0.923526

 Normal termination of Gaussian 16 at Wed Apr  9 04:04:35 2025.
