 Gaussian 16, Revision C.01,

 ----------------------------------------------------------------------
 #t hf aug-cc-pvdz symm=none int=(grid=ultrafine) guess=(read,tcheck) s
 table=(opt,rrhf)
 ----------------------------------------------------------------------
 -----
 title
 -----
 Symbolic Z-matrix:
 Charge =  0 Multiplicity = 1

 SCF Done:  E(RHF) =  -322.650225367     A.U. after   13 cycles
 Normal termination of Gaussian 16 at Wed Apr  9 18:21:18 2025.
 Gaussian 16:  ES64L-G16RevC.01  3-Jul-2019

 ----------------------------------------------------------------------
 #t hf aug-cc-pvdz iop(5/13=1,5/36=2,99/5=2) pseudo=read geom=check gue
 ss=(read,tcheck) scf=(maxcycle=1)
 ----------------------------------------------------------------------
 -----
 title
 -----
 Structure from the checkpoint file:  "Grambow2020_wb97xd3_007344_reverse_mol2.chk"
 Charge =  0 Multiplicity = 1

                         Standard orientation:
 ---------------------------------------------------------------------
 Center     Atomic      Atomic             Coordinates (Angstroms)
 Number     Number       Type             X           Y           Z
 ---------------------------------------------------------------------
      1          8           0        0.420478   -1.288146   -0.289022
      2          6           0       -0.556114   -0.351702   -0.370610
      3          6           0       -1.958180   -0.245752   -0.034256
      4          7           0       -0.958716    0.482458    0.792431
      5          6           0        1.543904   -0.569100    0.266388
      6          6           0        1.342961    0.934750   -0.049493
      7          6           0       -0.142184    1.029869   -0.329079
      8          1           0       -2.622066    0.319503   -0.688190
      9          1           0       -2.423826   -1.064069    0.503448
     10          1           0        2.448026   -0.990600   -0.169504
     11          1           0        1.548297   -0.733507    1.344631
     12          1           0        1.895404    1.236148   -0.941294
     13          1           0        1.666548    1.558679    0.783662
     14          1           0       -0.547512    1.813419   -0.965299
 ---------------------------------------------------------------------

 SCF Done:  E(RHF) =  -322.986108134     A.U. after    2 cycles

 The electronic state is 1-A.
 Alpha  occ. eigenvalues --  -20.56780 -15.50520 -11.32385 -11.29475 -11.28675
 Alpha  occ. eigenvalues --  -11.27729 -11.24757  -1.50521  -1.32455  -1.07112
 Alpha  occ. eigenvalues --   -0.95261  -0.89957  -0.81536  -0.79878  -0.70755
 Alpha  occ. eigenvalues --   -0.68037  -0.64889  -0.64604  -0.59855  -0.55883
 Alpha  occ. eigenvalues --   -0.53459  -0.51198  -0.50480  -0.47075  -0.43313
 Alpha  occ. eigenvalues --   -0.39057
 Alpha virt. eigenvalues --    0.03631   0.04062   0.04489   0.04892   0.05433
 Alpha virt. eigenvalues --    0.06110   0.07467   0.08182   0.10219   0.11982
 Alpha virt. eigenvalues --    0.12768   0.13444   0.14147   0.14597   0.15076

 Mulliken charges:
               1
     1  O   -1.664962
     2  C    1.850660
     3  C   -0.050336
     4  N    0.302490
     5  C    0.347394
     6  C   -0.332717
     7  C   -0.779347
     8  H   -0.072573
     9  H   -0.018228
    10  H    0.038690
    11  H    0.175877
    12  H    0.175263
    13  H    0.216708
    14  H   -0.188919
 Sum of Mulliken charges =  -0.00000

 Dipole moment (field-independent basis, Debye):
    X=              0.7571    Y=              0.8026    Z=             -1.5752  Tot=              1.9232

 Test job not archived.
 1\1\GINC-SE041\SP\RHF\Aug-CC-pVDZ\C5H7N1O1\OHZDE\09-Apr-2025\0\\#t hf
 aug-cc-pvdz iop(5/13=1,5/36=2,99/5=2) pseudo=read geom=check guess=(re
 ad,tcheck) scf=(maxcycle=1)\\title\\0,1\O,0,0.51216569,0.79805995,1.13
 469138\C,0,0.92360277,0.14100246,0.02279592\C,0,1.94380176,-0.8219143,
 -0.32668052\N,0,0.52397246,-1.26142635,-0.26713971\C,0,-0.92449793,0.6
 4573711,1.11498265\C,0,-1.34961021,0.37982478,-0.35140484\C,0,-0.06773
 807,-0.10309822,-0.99674315\H,0,2.43818987,-0.74706699,-1.29511505\H,0
 ,2.54411422,-1.25016989,0.46818805\H,0,-1.35395704,1.55254658,1.537310

 Normal termination of Gaussian 16 at Wed Apr  9 18:21:22 2025.
