 Gaussian 16, Revision C.01,

 ----------------------------------------------------------------------
 #t hf aug-cc-pvdz symm=none int=(grid=ultrafine) guess=(read,tcheck) s
 table=(opt,rrhf)
 ----------------------------------------------------------------------
 -----
 title
 -----
 Symbolic Z-matrix:
 Charge =  0 Multiplicity = 1

 SCF Done:  E(RHF) =  -307.873127227     A.U. after   14 cycles

 1\1\GINC-SE340\Stability\RHF\Aug-CC-pVDZ\C6H10O1\OHZDE\09-Apr-2025\0\\
 #t hf aug-cc-pvdz symm=none int=(grid=ultrafine) guess=(read,tcheck) s
 table=(opt,rrhf)\\title\\0,1\O,0,2.95712644,-0.37384358,1.41153851\C,0
 ,1.89578146,-0.3871824,0.56296687\C,0,-0.59888206,-0.75401871,-1.10219
 172\C,0,-1.66890029,-0.68870432,0.00528493\C,0,-1.43280493,0.83205034,
 0.08764869\C,0,-0.07472744,0.62820113,-0.64264835\C,0,1.09880738,0.636
 06479,0.28791554\H,0,3.0469141,0.50316021,1.79347479\H,0,1.77637646,-1
 .36746601,0.11883619\H,0,0.08612617,-1.60137076,-1.10271343\H,0,-1.046

 Normal termination of Gaussian 16 at Wed Apr  9 18:58:50 2025.
 Gaussian 16:  ES64L-G16RevC.01  3-Jul-2019

 ----------------------------------------------------------------------
 #t hf aug-cc-pvdz iop(5/13=1,5/36=2,99/5=2) pseudo=read geom=check gue
 ss=(read,tcheck) scf=(maxcycle=1)
 ----------------------------------------------------------------------
 -----
 title
 -----
 Structure from the checkpoint file:  "Grambow2020_wb97xd3_008416_reverse_mol2.chk"
 Charge =  0 Multiplicity = 1

                         Standard orientation:
 ---------------------------------------------------------------------
 Center     Atomic      Atomic             Coordinates (Angstroms)
 Number     Number       Type             X           Y           Z
 ---------------------------------------------------------------------
      1          8           0       -2.948161   -0.179748   -0.339712
      2          6           0       -1.655055   -0.344154    0.044414
      3          6           0        1.257377   -0.963440    0.559090
      4          6           0        1.864238   -0.522229   -0.787298
      5          6           0        1.658244    0.942390   -0.354081
      6          6           0        0.644018    0.449109    0.717032
      7          6           0       -0.783230    0.622200    0.297272
      8          1           0       -3.142755    0.758824   -0.405202
      9          1           0       -1.413627   -1.396515    0.126356
     10          1           0        0.593340   -1.827317    0.562628
     11          1           0        2.030562   -1.130638    1.310218
     12          1           0        1.218842   -0.787395   -1.625157
     13          1           0        2.880991   -0.843784   -1.012067
     14          1           0        2.553958    1.362342    0.106288
     15          1           0        1.283469    1.643566   -1.100869
     16          1           0        0.781132    0.899612    1.703592
     17          1           0       -1.114174    1.656032    0.193334
 ---------------------------------------------------------------------

 SCF Done:  E(RHF) =  -308.201094500     A.U. after    2 cycles

 The electronic state is 1-A.
 Alpha  occ. eigenvalues --  -20.57320 -11.29390 -11.23685 -11.22597 -11.22456
 Alpha  occ. eigenvalues --  -11.22424 -11.22341  -1.48727  -1.14355  -1.02975
 Alpha  occ. eigenvalues --   -0.90649  -0.89525  -0.82213  -0.75196  -0.68644
 Alpha  occ. eigenvalues --   -0.67293  -0.65817  -0.60864  -0.56961  -0.55100
 Alpha  occ. eigenvalues --   -0.54359  -0.53555  -0.49530  -0.46268  -0.45573
 Alpha  occ. eigenvalues --   -0.44392  -0.33676
 Alpha virt. eigenvalues --    0.03294   0.03608   0.04140   0.04192   0.05654
 Alpha virt. eigenvalues --    0.06097   0.06360   0.06948   0.07991   0.09207
 Alpha virt. eigenvalues --    0.12122   0.12618   0.13243   0.13973   0.14545

 Mulliken charges:
               1
     1  O   -1.348179
     2  C    0.879415
     3  C    0.121956
     4  C   -0.094911
     5  C    0.021906
     6  C   -0.326421
     7  C    0.681749
     8  H    0.338536
     9  H   -0.067896
    10  H    0.004870
    11  H    0.050944
    12  H    0.053330
    13  H    0.002218
    14  H    0.013236
    15  H   -0.008335
    16  H   -0.001226
    17  H   -0.321191
 Sum of Mulliken charges =  -0.00000

 Dipole moment (field-independent basis, Debye):
    X=              0.6684    Y=              1.0699    Z=              0.1593  Tot=              1.2715

 Test job not archived.
 1\1\GINC-SE340\SP\RHF\Aug-CC-pVDZ\C6H10O1\OHZDE\09-Apr-2025\0\\#t hf a
 ug-cc-pvdz iop(5/13=1,5/36=2,99/5=2) pseudo=read geom=check guess=(rea
 d,tcheck) scf=(maxcycle=1)\\title\\0,1\O,0,2.95712644,-0.37384358,1.41
 153851\C,0,1.89578146,-0.3871824,0.56296687\C,0,-0.59888206,-0.7540187
 1,-1.10219172\C,0,-1.66890029,-0.68870432,0.00528493\C,0,-1.43280493,0
 .83205034,0.08764869\C,0,-0.07472744,0.62820113,-0.64264835\C,0,1.0988
 0738,0.63606479,0.28791554\H,0,3.0469141,0.50316021,1.79347479\H,0,1.7
 7637646,-1.36746601,0.11883619\H,0,0.08612617,-1.60137076,-1.10271343\

 Normal termination of Gaussian 16 at Wed Apr  9 18:58:54 2025.
