 Gaussian 16, Revision C.01,

 ----------------------------------------------------------------------
 #t hf aug-cc-pvdz symm=none int=(grid=ultrafine) guess=(read,tcheck) s
 table=(opt,rrhf)
 ----------------------------------------------------------------------
 -----
 title
 -----
 Symbolic Z-matrix:
 Charge =  0 Multiplicity = 1

 SCF Done:  E(RHF) =  -376.876128509     A.U. after   13 cycles
 Normal termination of Gaussian 16 at Wed Apr  9 03:59:45 2025.
 Gaussian 16:  ES64L-G16RevC.01  3-Jul-2019

 ----------------------------------------------------------------------
 #t hf aug-cc-pvdz iop(5/13=1,5/36=2,99/5=2) pseudo=read geom=check gue
 ss=(read,tcheck) scf=(maxcycle=1)
 ----------------------------------------------------------------------
 -----
 title
 -----
 Structure from the checkpoint file:  "Grambow2020_wb97xd3_008746_forward_mol1.chk"
 Charge =  0 Multiplicity = 1

                         Standard orientation:
 ---------------------------------------------------------------------
 Center     Atomic      Atomic             Coordinates (Angstroms)
 Number     Number       Type             X           Y           Z
 ---------------------------------------------------------------------
      1          7           0        2.506706   -0.067506   -0.302554
      2          6           0        1.238394    0.033155    0.011399
      3          8           0        0.860062   -1.157577    0.371623
      4          7           0        0.407026    1.079768   -0.009422
      5          6           0       -0.975171    1.046135    0.458661
      6          6           0       -1.926974    0.213371   -0.396510
      7          8           0       -1.914510   -1.155363   -0.094666
      8          1           0        3.117588    0.704873   -0.508672
      9          1           0        2.096509   -1.270652    0.098673
     10          1           0        0.772714    1.948186   -0.350613
     11          1           0       -1.315123    2.082717    0.470059
     12          1           0       -1.005394    0.677190    1.487105
     13          1           0       -1.703552    0.398205   -1.457562
     14          1           0       -2.946781    0.561018   -0.211369
     15          1           0       -0.993999   -1.439817   -0.000746
 ---------------------------------------------------------------------

 SCF Done:  E(RHF) =  -377.261745487     A.U. after    2 cycles

 The electronic state is 1-A.
 Alpha  occ. eigenvalues --  -20.54471 -20.52636 -15.55075 -15.48969 -11.39501
 Alpha  occ. eigenvalues --  -11.28972 -11.28514  -1.50406  -1.43645  -1.27599
 Alpha  occ. eigenvalues --   -1.18797  -1.02929  -0.89485  -0.84155  -0.81779
 Alpha  occ. eigenvalues --   -0.72175  -0.70416  -0.64625  -0.64155  -0.61744
 Alpha  occ. eigenvalues --   -0.60319  -0.57897  -0.56180  -0.51461  -0.47218
 Alpha  occ. eigenvalues --   -0.45079  -0.43413  -0.42136
 Alpha virt. eigenvalues --    0.02206   0.03777   0.04758   0.04920   0.05917
 Alpha virt. eigenvalues --    0.06336   0.07171   0.09001   0.10694   0.11161
 Alpha virt. eigenvalues --    0.12469   0.13768   0.14575   0.15241   0.15637

 Mulliken charges:
               1
     1  N    0.689872
     2  C   -0.594792
     3  O   -1.456472
     4  N    0.751461
     5  C   -0.669415
     6  C    0.839772
     7  O   -1.219591
     8  H    0.007495
     9  H    0.572371
    10  H    0.250159
    11  H    0.049581
    12  H    0.103564
    13  H    0.139635
    14  H    0.066426
    15  H    0.469934
 Sum of Mulliken charges =   0.00000

 Dipole moment (field-independent basis, Debye):
    X=              0.9010    Y=              4.6098    Z=             -0.2983  Tot=              4.7065

 Test job not archived.
 1\1\GINC-SE229\SP\RHF\Aug-CC-pVDZ\C3H8N2O2\OHZDE\09-Apr-2025\0\\#t hf
 aug-cc-pvdz iop(5/13=1,5/36=2,99/5=2) pseudo=read geom=check guess=(re
 ad,tcheck) scf=(maxcycle=1)\\title\\0,1\N,0,2.35496053,1.17429376,-0.2
 0507475\C,0,1.11900305,0.74383977,-0.1384974\O,0,0.46180065,1.63688655
 ,0.54068836\N,0,0.54665963,-0.36581475,-0.61609155\C,0,-0.88003427,-0.
 66213236,-0.52982334\C,0,-1.39728017,-0.94514005,0.87840438\O,0,-1.711
 42954,0.20702338,1.61224771\H,0,3.08398398,0.76422774,-0.76418093\H,0,
 1.64870234,2.08570186,0.46376078\H,0,1.14164211,-1.02317171,-1.0831736

 Normal termination of Gaussian 16 at Wed Apr  9 03:59:51 2025.
