 Gaussian 16, Revision C.01,

 ----------------------------------------------------------------------
 #t hf aug-cc-pvdz symm=none int=(grid=ultrafine) guess=(read,tcheck) s
 table=(opt,rrhf)
 ----------------------------------------------------------------------
 -----
 title
 -----
 Symbolic Z-matrix:
 Charge =  0 Multiplicity = 1

 SCF Done:  E(RHF) =  -359.571909190     A.U. after   16 cycles
 Normal termination of Gaussian 16 at Wed Apr  9 18:56:47 2025.
 Gaussian 16:  ES64L-G16RevC.01  3-Jul-2019

 ----------------------------------------------------------------------
 #t hf aug-cc-pvdz iop(5/13=1,5/36=2,99/5=2) pseudo=read geom=check gue
 ss=(read,tcheck) scf=(maxcycle=1)
 ----------------------------------------------------------------------
 -----
 title
 -----
 Structure from the checkpoint file:  "Grambow2020_wb97xd3_008378_forward_mol1.chk"
 Charge =  0 Multiplicity = 1

                         Standard orientation:
 ---------------------------------------------------------------------
 Center     Atomic      Atomic             Coordinates (Angstroms)
 Number     Number       Type             X           Y           Z
 ---------------------------------------------------------------------
      1          8           0        0.382970    1.783607    0.340480
      2          6           0        0.692391    0.663310   -0.425167
      3          6           0        1.781801   -0.229230    0.178609
      4          7           0        0.969703   -1.415765   -0.150140
      5          6           0       -0.215615   -0.612530   -0.319553
      6          6           0       -1.368232   -0.557261    0.474903
      7          8           0       -2.295551    0.042911   -0.181940
      8          1           0       -0.299619    2.292383   -0.102389
      9          1           0        0.892607    0.933569   -1.464902
     10          1           0        1.860283   -0.023614    1.251766
     11          1           0        2.771380   -0.206336   -0.280977
     12          1           0        0.930557   -2.159245    0.533202
     13          1           0       -1.411701   -0.175570   -1.079089
     14          1           0       -1.572852   -0.948710    1.472301
 ---------------------------------------------------------------------

 SCF Done:  E(RHF) =  -359.938729935     A.U. after    2 cycles

 The electronic state is 1-A.
 Alpha  occ. eigenvalues --  -20.57130 -20.56460 -15.49923 -11.35901 -11.31146
 Alpha  occ. eigenvalues --  -11.26701 -11.24927  -1.49891  -1.47424  -1.24998
 Alpha  occ. eigenvalues --   -0.99949  -0.98095  -0.86020  -0.79926  -0.76569
 Alpha  occ. eigenvalues --   -0.72819  -0.66018  -0.65085  -0.60927  -0.58828
 Alpha  occ. eigenvalues --   -0.57301  -0.55327  -0.51318  -0.49499  -0.45088
 Alpha  occ. eigenvalues --   -0.44127  -0.32150
 Alpha virt. eigenvalues --    0.03247   0.03870   0.04439   0.05145   0.05678
 Alpha virt. eigenvalues --    0.06094   0.06690   0.07848   0.10465   0.10826
 Alpha virt. eigenvalues --    0.12140   0.13665   0.13781   0.14491   0.14778

 Mulliken charges:
               1
     1  O   -1.307272
     2  C    1.208261
     3  C   -0.107190
     4  N    0.681139
     5  C   -2.025801
     6  C    1.439511
     7  O   -1.243550
     8  H    0.314253
     9  H    0.089733
    10  H    0.045319
    11  H    0.037358
    12  H    0.189224
    13  H    0.639851
    14  H    0.039164
 Sum of Mulliken charges =  -0.00000

 Dipole moment (field-independent basis, Debye):
    X=              0.5609    Y=             -0.1333    Z=              1.1765  Tot=              1.3102

 Test job not archived.
 1\1\GINC-SE174\SP\RHF\Aug-CC-pVDZ\C4H7N1O2\OHZDE\09-Apr-2025\0\\#t hf
 aug-cc-pvdz iop(5/13=1,5/36=2,99/5=2) pseudo=read geom=check guess=(re
 ad,tcheck) scf=(maxcycle=1)\\title\\0,1\O,0,-0.89391592,-1.42360862,0.
 80320248\C,0,-0.78387434,-0.48351408,-0.21715842\C,0,-1.30197534,0.910
 06221,0.15365605\N,0,-0.10633867,1.50405553,-0.47329726\C,0,0.58907968
 ,0.2412826,-0.44750905\C,0,1.69413901,-0.14492417,0.32218459\O,0,2.186
 12515,-1.22440148,-0.17203031\H,0,-0.55554319,-2.26730739,0.49564909\H
 ,0,-1.20628377,-0.85870476,-1.15256051\H,0,-1.32907353,1.00427419,1.24

 Normal termination of Gaussian 16 at Wed Apr  9 18:56:52 2025.
