 Gaussian 16, Revision C.01,

 ----------------------------------------------------------------------
 #t hf aug-cc-pvdz symm=none int=(grid=ultrafine) guess=(read,tcheck) s
 table=(opt,rrhf)
 ----------------------------------------------------------------------
 -----
 title
 -----
 Symbolic Z-matrix:
 Charge =  0 Multiplicity = 1

 SCF Done:  E(RHF) =  -305.866784865     A.U. after   13 cycles
 Normal termination of Gaussian 16 at Wed Apr  9 17:13:18 2025.
 Gaussian 16:  ES64L-G16RevC.01  3-Jul-2019

 ----------------------------------------------------------------------
 #t hf aug-cc-pvdz iop(5/13=1,5/36=2,99/5=2) pseudo=read geom=check gue
 ss=(read,tcheck) scf=(maxcycle=1)
 ----------------------------------------------------------------------
 -----
 title
 -----
 Structure from the checkpoint file:  "Grambow2020_wb97xd3_006283_reverse_mol2.chk"
 Charge =  0 Multiplicity = 1

                         Standard orientation:
 ---------------------------------------------------------------------
 Center     Atomic      Atomic             Coordinates (Angstroms)
 Number     Number       Type             X           Y           Z
 ---------------------------------------------------------------------
      1          6           0        2.147027   -0.539470    0.284648
      2          6           0        0.853026    0.112041   -0.077024
      3          6           0        0.694800    1.427399   -0.227560
      4          8           0       -2.042288    0.143143    0.663996
      5          6           0       -1.433962   -0.389367   -0.464725
      6          8           0       -0.115775   -0.827786   -0.224635
      7          1           0        2.937543    0.198307    0.404299
      8          1           0        2.034343   -1.098231    1.215496
      9          1           0        2.435095   -1.250725   -0.491765
     10          1           0       -1.592604    0.956219    0.909029
     11          1           0        1.545461    2.078631   -0.093361
     12          1           0       -0.237355    1.896122   -0.513556
     13          1           0       -1.993401   -1.282881   -0.732042
     14          1           0       -1.429928    0.316077   -1.305021
 ---------------------------------------------------------------------

 SCF Done:  E(RHF) =  -306.184052218     A.U. after    2 cycles

 The electronic state is 1-A.
 Alpha  occ. eigenvalues --  -20.57583 -20.56086 -11.34704 -11.31529 -11.23922
 Alpha  occ. eigenvalues --  -11.22339  -1.52845  -1.45394  -1.07607  -0.96457
 Alpha  occ. eigenvalues --   -0.93155  -0.77619  -0.73541  -0.69453  -0.68177
 Alpha  occ. eigenvalues --   -0.62268  -0.60211  -0.57798  -0.54990  -0.54006
 Alpha  occ. eigenvalues --   -0.52789  -0.50022  -0.46222  -0.35473
 Alpha virt. eigenvalues --    0.03679   0.03972   0.04276   0.05113   0.05924
 Alpha virt. eigenvalues --    0.06657   0.07176   0.08393   0.11142   0.11438
 Alpha virt. eigenvalues --    0.13199   0.13773   0.14825   0.16077   0.16630

 Mulliken charges:
               1
     1  C   -0.687689
     2  C    1.454705
     3  C    0.053834
     4  O   -1.087813
     5  C    1.258214
     6  O   -1.663842
     7  H    0.131259
     8  H    0.227987
     9  H    0.215414
    10  H    0.386994
    11  H   -0.143697
    12  H   -0.295413
    13  H   -0.025448
    14  H    0.175495
 Sum of Mulliken charges =  -0.00000

 Dipole moment (field-independent basis, Debye):
    X=              1.0391    Y=              0.8783    Z=             -0.7392  Tot=              1.5484

 Test job not archived.
 1\1\GINC-SE163\SP\RHF\Aug-CC-pVDZ\C4H8O2\OHZDE\09-Apr-2025\0\\#t hf au
 g-cc-pvdz iop(5/13=1,5/36=2,99/5=2) pseudo=read geom=check guess=(read
 ,tcheck) scf=(maxcycle=1)\\title\\0,1\C,0,-1.96557072,-0.00276379,0.40
 910423\C,0,-0.55470883,-0.14485495,-0.05885723\C,0,-0.03248522,-1.2797
 053,-0.5249694\O,0,2.25539844,0.47527718,0.74839478\C,0,1.47541612,1.0
 718014,-0.23314766\O,0,0.09757961,1.03970562,0.06351449\H,0,-2.5061878
 5,-0.94220708,0.31568563\H,0,-1.98054627,0.31717001,1.45256407\H,0,-2.
 47609966,0.76429582,-0.17627138\H,0,2.06762818,-0.46687907,0.7692078\H

 Normal termination of Gaussian 16 at Wed Apr  9 17:13:22 2025.
