 Gaussian 16, Revision C.01,

 ----------------------------------------------------------------------
 #t hf aug-cc-pvdz symm=none int=(grid=ultrafine) guess=(read,tcheck) s
 table=(opt,rrhf)
 ----------------------------------------------------------------------
 -----
 title
 -----
 Symbolic Z-matrix:
 Charge =  0 Multiplicity = 1

 SCF Done:  E(RHF) =  -301.844205457     A.U. after   17 cycles
 Normal termination of Gaussian 16 at Wed Apr  9 15:56:56 2025.
 Gaussian 16:  ES64L-G16RevC.01  3-Jul-2019

 ----------------------------------------------------------------------
 #t hf aug-cc-pvdz iop(5/13=1,5/36=2,99/5=2) pseudo=read geom=check gue
 ss=(read,tcheck) scf=(maxcycle=1)
 ----------------------------------------------------------------------
 -----
 title
 -----
 Structure from the checkpoint file:  "Grambow2020_b97d3_007041_reverse_mol1.chk"
 Charge =  0 Multiplicity = 1

                         Standard orientation:
 ---------------------------------------------------------------------
 Center     Atomic      Atomic             Coordinates (Angstroms)
 Number     Number       Type             X           Y           Z
 ---------------------------------------------------------------------
      1          6           0       -2.049580   -0.561036   -0.167835
      2          7           0       -0.137226    0.530492   -0.481587
      3          6           0       -0.354951    1.671220    0.392533
      4          6           0        0.851742   -0.395329   -0.041894
      5          8           0        1.933627    0.235124   -0.263623
      6          7           0        0.434006   -1.554186    0.377698
      7          1           0       -2.249715    0.117000   -1.000805
      8          1           0       -2.499712   -1.531754   -0.448534
      9          1           0       -2.460018   -0.171988    0.769207
     10          1           0        0.442709    2.395766    0.171563
     11          1           0       -1.303094    2.143621    0.108080
     12          1           0       -0.340688    1.433781    1.467712
     13          1           0        1.150447   -2.255139    0.561422
     14          1           0       -0.969663   -1.135550    0.110737
 ---------------------------------------------------------------------

 SCF Done:  E(RHF) =  -302.149412190     A.U. after    2 cycles

 The electronic state is 1-A.
 Alpha  occ. eigenvalues --  -20.51820 -15.67026 -15.47969 -11.38420 -11.31786
 Alpha  occ. eigenvalues --  -11.24538  -1.45342  -1.26804  -1.18506  -0.99056
 Alpha  occ. eigenvalues --   -0.96006  -0.80800  -0.72126  -0.69974  -0.68672
 Alpha  occ. eigenvalues --   -0.64826  -0.60318  -0.58221  -0.57346  -0.54208
 Alpha  occ. eigenvalues --   -0.52040  -0.47487  -0.41043  -0.39528
 Alpha virt. eigenvalues --   -0.02937   0.02916   0.04130   0.04365   0.04757
 Alpha virt. eigenvalues --    0.05859   0.06527   0.07440   0.08704   0.11010
 Alpha virt. eigenvalues --    0.11896   0.13271   0.14113   0.14557   0.15756

 Mulliken charges:
               1
     1  C   -0.812399
     2  N    0.562249
     3  C   -0.458266
     4  C   -0.420212
     5  O   -1.207470
     6  N    0.511852
     7  H    0.212985
     8  H   -0.018907
     9  H    0.175069
    10  H    0.211916
    11  H    0.174203
    12  H    0.284319
    13  H    0.058274
    14  H    0.726387
 Sum of Mulliken charges =  -0.00000

 Dipole moment (field-independent basis, Debye):
    X=             -3.4798    Y=              1.8238    Z=              1.1276  Tot=              4.0874

 Test job not archived.
 1\1\GINC-SE232\SP\RHF\Aug-CC-pVDZ\C3H8N2O1\OHZDE\09-Apr-2025\0\\#t hf
 aug-cc-pvdz iop(5/13=1,5/36=2,99/5=2) pseudo=read geom=check guess=(re
 ad,tcheck) scf=(maxcycle=1)\\title\\0,1\C,0,-0.95087672,-0.71922303,1.
 24015205\N,0,-0.07989805,-0.28723745,-0.76028648\C,0,-0.68213547,1.010
 00504,-1.01955922\C,0,1.32335899,-0.27100652,-0.51710223\O,0,1.7989936
 4,-0.05865434,-1.67718376\N,0,1.71688643,-0.5112871,0.69982428\H,0,-1.
 67222634,-1.12778568,0.528565\H,0,-0.84516785,-1.47781783,2.03831481\H
 ,0,-1.28224904,0.24759812,1.63170621\H,0,-0.48676886,1.24380421,-2.076

 Normal termination of Gaussian 16 at Wed Apr  9 15:57:00 2025.
