 Gaussian 16, Revision C.01,

 ----------------------------------------------------------------------
 #t hf aug-cc-pvdz symm=none int=(grid=ultrafine) guess=(read,tcheck) s
 table=(opt,rrhf)
 ----------------------------------------------------------------------
 -----
 title
 -----
 Symbolic Z-matrix:
 Charge =  0 Multiplicity = 1

 SCF Done:  E(RHF) =  -283.547803933     A.U. after   15 cycles
 Normal termination of Gaussian 16 at Wed Apr  9 03:09:43 2025.
 Gaussian 16:  ES64L-G16RevC.01  3-Jul-2019

 ----------------------------------------------------------------------
 #t hf aug-cc-pvdz iop(5/13=1,5/36=2,99/5=2) pseudo=read geom=check gue
 ss=(read,tcheck) scf=(maxcycle=1)
 ----------------------------------------------------------------------
 -----
 title
 -----
 Structure from the checkpoint file:  "Grambow2020_b97d3_006657_reverse_mol1.chk"
 Charge =  0 Multiplicity = 1

                         Standard orientation:
 ---------------------------------------------------------------------
 Center     Atomic      Atomic             Coordinates (Angstroms)
 Number     Number       Type             X           Y           Z
 ---------------------------------------------------------------------
      1          7           0       -2.776360    0.524311   -0.143732
      2          6           0       -1.774426   -0.037663    0.077944
      3          6           0       -0.492533   -0.684326    0.336860
      4          6           0        0.604402   -0.302624   -0.706859
      5          6           0        1.741406    0.871444    0.203315
      6          8           0        1.861308   -0.516412   -0.058489
      7          1           0       -0.586656   -1.773181    0.170501
      8          1           0       -0.198416   -0.559834    1.392975
      9          1           0        0.862589    1.152658   -0.589437
     10          1           0        2.597080    1.438544   -0.178948
     11          1           0        1.396363    1.121941    1.211380
 ---------------------------------------------------------------------

 SCF Done:  E(RHF) =  -283.826850896     A.U. after    2 cycles

 The electronic state is 1-A.
 Alpha  occ. eigenvalues --  -20.60401 -15.52665 -11.36201 -11.35943 -11.31093
 Alpha  occ. eigenvalues --  -11.29685  -1.53190  -1.23258  -1.08067  -0.97800
 Alpha  occ. eigenvalues --   -0.86875  -0.74627  -0.70003  -0.67579  -0.64200
 Alpha  occ. eigenvalues --   -0.62283  -0.60677  -0.55397  -0.51628  -0.50257
 Alpha  occ. eigenvalues --   -0.49280  -0.38359
 Alpha virt. eigenvalues --    0.02667   0.03433   0.04379   0.05401   0.06507
 Alpha virt. eigenvalues --    0.07771   0.08866   0.09326   0.11603   0.12588
 Alpha virt. eigenvalues --    0.12885   0.13867   0.14472   0.15082   0.15158

 Mulliken charges:
               1
     1  N    0.780737
     2  C   -1.275340
     3  C   -0.112954
     4  C    0.142829
     5  C    0.234884
     6  O   -1.115627
     7  H    0.352736
     8  H    0.279961
     9  H    0.557620
    10  H    0.019298
    11  H    0.135855
 Sum of Mulliken charges =   0.00000

 Dipole moment (field-independent basis, Debye):
    X=              3.9824    Y=             -0.0526    Z=              2.5814  Tot=              4.7461

 Test job not archived.
 1\1\GINC-SE149\SP\RHF\Aug-CC-pVDZ\C4H5N1O1\OHZDE\09-Apr-2025\0\\#t hf
 aug-cc-pvdz iop(5/13=1,5/36=2,99/5=2) pseudo=read geom=check guess=(re
 ad,tcheck) scf=(maxcycle=1)\\title\\0,1\N,0,3.06895661,0.33001283,0.39
 935027\C,0,2.05933942,-0.19949655,0.13644437\C,0,0.76880772,-0.8052669
 3,-0.1734414\C,0,-0.34662292,-0.41970779,0.84904243\C,0,-1.42675487,0.
 80591987,-0.06243104\O,0,-1.59001551,-0.58415268,0.1614126\H,0,0.82986
 89,-1.89994316,-0.03168907\H,0,0.50772155,-0.64751912,-1.23378603\H,0,
 -0.56346393,1.04435864,0.76081382\H,0,-2.27775184,1.38627511,0.3102579

 Normal termination of Gaussian 16 at Wed Apr  9 03:09:46 2025.
