 Gaussian 16, Revision C.01,

 ----------------------------------------------------------------------
 #t hf aug-cc-pvdz symm=none int=(grid=ultrafine) guess=(read,tcheck) s
 table=(opt,rrhf)
 ----------------------------------------------------------------------
 -----
 title
 -----
 Symbolic Z-matrix:
 Charge =  0 Multiplicity = 1

 SCF Done:  E(RHF) =  -375.602970634     A.U. after   15 cycles
 Normal termination of Gaussian 16 at Wed Apr  9 03:46:30 2025.
 Gaussian 16:  ES64L-G16RevC.01  3-Jul-2019

 ----------------------------------------------------------------------
 #t hf aug-cc-pvdz iop(5/13=1,5/36=2,99/5=2) pseudo=read geom=check gue
 ss=(read,tcheck) scf=(maxcycle=1)
 ----------------------------------------------------------------------
 -----
 title
 -----
 Structure from the checkpoint file:  "Grambow2020_wb97xd3_007865_forward_mol1.chk"
 Charge =  0 Multiplicity = 1

                         Standard orientation:
 ---------------------------------------------------------------------
 Center     Atomic      Atomic             Coordinates (Angstroms)
 Number     Number       Type             X           Y           Z
 ---------------------------------------------------------------------
      1          7           0        2.169262   -0.580212   -0.223164
      2          6           0        0.913641   -0.165170   -0.035457
      3          8           0        0.088373   -0.896087    0.677622
      4          6           0        0.540314    1.303139    0.050978
      5          8           0       -0.856299    1.187897    0.126216
      6          6           0       -1.098372   -0.139556   -0.175940
      7          7           0       -2.244566   -0.636801   -0.266025
      8          1           0        2.358965   -1.565554   -0.170590
      9          1           0        2.838456    0.007900   -0.685234
     10          1           0        0.864331    1.889842   -0.812653
     11          1           0        0.925469    1.734830    0.979017
     12          1           0       -0.178533   -0.232031   -1.179514
     13          1           0       -2.271654   -1.640858   -0.174897
 ---------------------------------------------------------------------

 SCF Done:  E(RHF) =  -375.981974481     A.U. after    2 cycles

 The electronic state is 1-A.
 Alpha  occ. eigenvalues --  -20.58538 -20.56753 -15.58080 -15.43804 -11.42231
 Alpha  occ. eigenvalues --  -11.40825 -11.33055  -1.56435  -1.47620  -1.28520
 Alpha  occ. eigenvalues --   -1.18894  -1.02365  -0.89564  -0.87092  -0.80226
 Alpha  occ. eigenvalues --   -0.75280  -0.74025  -0.68426  -0.66690  -0.62559
 Alpha  occ. eigenvalues --   -0.58167  -0.56233  -0.55210  -0.48611  -0.45197
 Alpha  occ. eigenvalues --   -0.44593  -0.34485
 Alpha virt. eigenvalues --    0.01218   0.03650   0.04251   0.04907   0.06085
 Alpha virt. eigenvalues --    0.07006   0.08933   0.09099   0.11007   0.11709
 Alpha virt. eigenvalues --    0.12563   0.13433   0.14196   0.14738   0.16237

 Mulliken charges:
               1
     1  N    0.886160
     2  C   -0.532262
     3  O   -1.433462
     4  C    0.718242
     5  O   -1.369407
     6  C   -0.121470
     7  N    0.798627
     8  H    0.182770
     9  H    0.153151
    10  H    0.148666
    11  H    0.110928
    12  H    0.231067
    13  H    0.226989
 Sum of Mulliken charges =   0.00000

 Dipole moment (field-independent basis, Debye):
    X=              8.0069    Y=              0.1527    Z=             -1.1889  Tot=              8.0961

 Test job not archived.
 1\1\GINC-SE165\SP\RHF\Aug-CC-pVDZ\C3H6N2O2\OHZDE\09-Apr-2025\0\\#t hf
 aug-cc-pvdz iop(5/13=1,5/36=2,99/5=2) pseudo=read geom=check guess=(re
 ad,tcheck) scf=(maxcycle=1)\\title\\0,1\N,0,-1.97552433,0.14496125,-0.
 39323121\C,0,-0.69951949,0.09418765,-0.0016817\O,0,-0.06643358,1.20603
 856,0.29290294\C,0,-0.12971966,-1.07147702,0.7852926\O,0,1.2203677,-0.
 69075009,0.82748784\C,0,1.2988398,0.36027174,-0.06762365\N,0,2.3646240
 7,0.95047864,-0.35898127\H,0,-2.30949725,0.98963624,-0.82292524\H,0,-2
 .50157569,-0.6983196,-0.53234154\H,0,-0.27465845,-2.04065374,0.3007780

 Normal termination of Gaussian 16 at Wed Apr  9 03:46:35 2025.
