 Gaussian 16, Revision C.01,

 ----------------------------------------------------------------------
 #t hf aug-cc-pvdz symm=none int=(grid=ultrafine) guess=(read,tcheck) s
 table=(opt,rrhf)
 ----------------------------------------------------------------------
 -----
 title
 -----
 Symbolic Z-matrix:
 Charge =  0 Multiplicity = 1

 SCF Done:  E(RHF) =  -302.821536600     A.U. after   15 cycles
 Normal termination of Gaussian 16 at Wed Apr  9 18:03:43 2025.
 Gaussian 16:  ES64L-G16RevC.01  3-Jul-2019

 ----------------------------------------------------------------------
 #t hf aug-cc-pvdz iop(5/13=1,5/36=2,99/5=2) pseudo=read geom=check gue
 ss=(read,tcheck) scf=(maxcycle=1)
 ----------------------------------------------------------------------
 -----
 title
 -----
 Structure from the checkpoint file:  "Grambow2020_wb97xd3_006955_reverse_mol2.chk"
 Charge =  0 Multiplicity = 1

                         Standard orientation:
 ---------------------------------------------------------------------
 Center     Atomic      Atomic             Coordinates (Angstroms)
 Number     Number       Type             X           Y           Z
 ---------------------------------------------------------------------
      1          6           0       -1.548581   -1.230195   -0.569041
      2          6           0       -0.907239    0.014816   -0.006763
      3          6           0       -1.574869    1.316456   -0.370739
      4          7           0       -0.377364   -0.032407    1.377616
      5          6           0        0.520759   -0.006456    0.271317
      6          6           0        1.761334    0.024825   -0.065180
      7          7           0        2.932647   -0.087265   -0.421123
      8          1           0       -1.556120   -1.195765   -1.659849
      9          1           0       -2.583929   -1.309581   -0.227848
     10          1           0       -1.006235   -2.126297   -0.264712
     11          1           0       -2.621576    1.303428   -0.057709
     12          1           0       -1.074496    2.148762    0.121552
     13          1           0       -1.543205    1.474560   -1.450596
     14          1           0       -0.441632   -0.972795    1.758950
     15          1           0        3.431794    0.798719   -0.472802
 ---------------------------------------------------------------------

 SCF Done:  E(RHF) =  -303.142804344     A.U. after    2 cycles

 The electronic state is 1-A.
 Alpha  occ. eigenvalues --  -15.52400 -15.51953 -11.31197 -11.29897 -11.27160
 Alpha  occ. eigenvalues --  -11.24449 -11.23575  -1.29707  -1.23819  -1.04075
 Alpha  occ. eigenvalues --   -0.98694  -0.96213  -0.85175  -0.77284  -0.70912
 Alpha  occ. eigenvalues --   -0.66739  -0.62529  -0.60883  -0.58223  -0.56175
 Alpha  occ. eigenvalues --   -0.54731  -0.53732  -0.50982  -0.49552  -0.43329
 Alpha  occ. eigenvalues --   -0.35315
 Alpha virt. eigenvalues --    0.03313   0.04015   0.04207   0.04401   0.05508
 Alpha virt. eigenvalues --    0.06212   0.07226   0.07520   0.09834   0.10256
 Alpha virt. eigenvalues --    0.10779   0.12757   0.13398   0.13965   0.14212

 Mulliken charges:
               1
     1  C   -0.361817
     2  C   -1.412608
     3  C   -0.357706
     4  N    0.706946
     5  C    1.485188
     6  C   -2.922760
     7  N    1.091822
     8  H    0.251847
     9  H    0.208721
    10  H    0.087914
    11  H    0.214250
    12  H    0.196695
    13  H    0.270923
    14  H    0.340834
    15  H    0.199750
 Sum of Mulliken charges =  -0.00000

 Dipole moment (field-independent basis, Debye):
    X=             -2.1698    Y=              0.2304    Z=             -0.8533  Tot=              2.3429

 Test job not archived.
 1\1\GINC-SE131\SP\RHF\Aug-CC-pVDZ\C5H8N2\OHZDE\09-Apr-2025\0\\#t hf au
 g-cc-pvdz iop(5/13=1,5/36=2,99/5=2) pseudo=read geom=check guess=(read
 ,tcheck) scf=(maxcycle=1)\\title\\0,1\C,0,-0.92404668,1.44107264,-0.28
 679465\C,0,-0.44334557,0.01381637,-0.18987352\C,0,-1.3436693,-0.930150
 7,0.56565238\N,0,0.21319711,-0.58788636,-1.3757955\C,0,0.98881388,-0.2
 3936688,-0.23205143\C,0,2.17136514,-0.25900798,0.2723502\N,0,3.3072725
 ,-0.13399272,0.72547194\H,0,-1.03813647,1.87334134,0.70881142\H,0,-1.8
 967513,1.47978501,-0.78379258\H,0,-0.21797354,2.05920414,-0.84278728\H

 Normal termination of Gaussian 16 at Wed Apr  9 18:03:48 2025.
