 Gaussian 16, Revision C.01,

 ----------------------------------------------------------------------
 #t hf aug-cc-pvdz symm=none int=(grid=ultrafine) guess=(read,tcheck) s
 table=(opt,rrhf)
 ----------------------------------------------------------------------
 -----
 title
 -----
 Symbolic Z-matrix:
 Charge =  0 Multiplicity = 1

 SCF Done:  E(RHF) =  -286.807636947     A.U. after   16 cycles
 Normal termination of Gaussian 16 at Wed Apr  9 19:07:05 2025.
 Gaussian 16:  ES64L-G16RevC.01  3-Jul-2019

 ----------------------------------------------------------------------
 #t hf aug-cc-pvdz iop(5/13=1,5/36=2,99/5=2) pseudo=read geom=check gue
 ss=(read,tcheck) scf=(maxcycle=1)
 ----------------------------------------------------------------------
 -----
 title
 -----
 Structure from the checkpoint file:  "Grambow2020_wb97xd3_008583_reverse_mol1.chk"
 Charge =  0 Multiplicity = 1

                         Standard orientation:
 ---------------------------------------------------------------------
 Center     Atomic      Atomic             Coordinates (Angstroms)
 Number     Number       Type             X           Y           Z
 ---------------------------------------------------------------------
      1          6           0       -2.523734   -0.544896   -0.131361
      2          6           0       -1.090116   -0.187149    0.127594
      3          6           0        0.058361   -1.059222    0.007669
      4          6           0        1.156271   -0.120636   -0.014283
      5          6           0        2.600187   -0.515109   -0.047730
      6          6           0        0.674561    1.158998   -0.041927
      7          7           0       -0.679434    1.148741    0.027470
      8          1           0       -2.755333   -0.411157   -1.189059
      9          1           0       -2.677892   -1.593466    0.116144
     10          1           0       -3.215041    0.063668    0.455786
     11          1           0       -0.724426   -0.665973    1.170201
     12          1           0        3.255054    0.345737   -0.198634
     13          1           0        2.784039   -1.228709   -0.852289
     14          1           0        2.891700   -1.002948    0.884957
     15          1           0        1.211003    2.099113   -0.072101
     16          1           0       -1.266241    1.960627    0.092937
 ---------------------------------------------------------------------

 SCF Done:  E(RHF) =  -287.112077828     A.U. after    2 cycles

 The electronic state is 1-A.
 Alpha  occ. eigenvalues --  -15.54257 -11.28718 -11.28561 -11.24316 -11.21649
 Alpha  occ. eigenvalues --  -11.21471 -11.21402  -1.30376  -1.07570  -1.05694
 Alpha  occ. eigenvalues --   -0.95861  -0.92163  -0.78756  -0.77838  -0.73621
 Alpha  occ. eigenvalues --   -0.65362  -0.61254  -0.59063  -0.57248  -0.55856
 Alpha  occ. eigenvalues --   -0.54815  -0.53707  -0.50480  -0.42572  -0.34133
 Alpha  occ. eigenvalues --   -0.33795
 Alpha virt. eigenvalues --    0.02422   0.03728   0.04497   0.04711   0.05174
 Alpha virt. eigenvalues --    0.05653   0.06579   0.07164   0.08666   0.09135
 Alpha virt. eigenvalues --    0.11861   0.12241   0.12965   0.13178   0.13394

 Mulliken charges:
               1
     1  C   -0.180730
     2  C   -0.870701
     3  C   -1.329246
     4  C    1.164811
     5  C   -0.646962
     6  C   -0.469465
     7  N    0.828165
     8  H    0.244769
     9  H    0.183778
    10  H    0.162718
    11  H    0.599599
    12  H    0.132534
    13  H    0.232058
    14  H    0.251556
    15  H   -0.251449
    16  H   -0.051434
 Sum of Mulliken charges =   0.00000

 Dipole moment (field-independent basis, Debye):
    X=             -1.5253    Y=              3.9715    Z=              0.4994  Tot=              4.2835

 Test job not archived.
 1\1\GINC-SE098\SP\RHF\Aug-CC-pVDZ\C6H9N1\OHZDE\09-Apr-2025\0\\#t hf au
 g-cc-pvdz iop(5/13=1,5/36=2,99/5=2) pseudo=read geom=check guess=(read
 ,tcheck) scf=(maxcycle=1)\\title\\0,1\C,0,2.50081718,-0.53263598,0.191
 90399\C,0,1.07652211,-0.15283605,-0.0863717\C,0,-0.08024836,-1.0206139
 1,-0.03405374\C,0,-1.17224398,-0.07560442,0.00247043\C,0,-2.61907636,-
 0.46017672,-0.01760612\C,0,-0.68308217,1.19783393,0.09914751\N,0,0.672
 13528,1.18036945,0.06302743\H,0,2.70659257,-0.4478052,1.25994396\H,0,2
 .65434086,-1.57031217,-0.09823731\H,0,3.21061612,0.09614552,-0.3501444

 Normal termination of Gaussian 16 at Wed Apr  9 19:07:10 2025.
