 Gaussian 16, Revision C.01,

 ----------------------------------------------------------------------
 #t hf aug-cc-pvdz symm=none int=(grid=ultrafine) guess=(read,tcheck) s
 table=(opt,rrhf)
 ----------------------------------------------------------------------
 -----
 title
 -----
 Symbolic Z-matrix:
 Charge =  0 Multiplicity = 1

 SCF Done:  E(RHF) =  -318.715968694     A.U. after   19 cycles
 Normal termination of Gaussian 16 at Wed Apr  9 18:40:38 2025.
 Gaussian 16:  ES64L-G16RevC.01  3-Jul-2019

 ----------------------------------------------------------------------
 #t hf aug-cc-pvdz iop(5/13=1,5/36=2,99/5=2) pseudo=read geom=check gue
 ss=(read,tcheck) scf=(maxcycle=1)
 ----------------------------------------------------------------------
 -----
 title
 -----
 Structure from the checkpoint file:  "Grambow2020_wb97xd3_007961_forward_mol1.chk"
 Charge =  0 Multiplicity = 1

                         Standard orientation:
 ---------------------------------------------------------------------
 Center     Atomic      Atomic             Coordinates (Angstroms)
 Number     Number       Type             X           Y           Z
 ---------------------------------------------------------------------
      1          6           0       -2.440689   -0.438160    0.594998
      2          6           0       -1.743567    0.275017   -0.562177
      3          6           0       -0.364566    0.677299   -0.226469
      4          6           0        0.543771    1.444493    0.084627
      5          7           0        2.242676    0.173734    0.350528
      6          7           0        1.672926   -0.864791   -0.054054
      7          7           0        0.605308   -1.205739   -0.312357
      8          1           0       -3.461923   -0.702907    0.316570
      9          1           0       -1.909346   -1.351991    0.861961
     10          1           0       -2.479866    0.201766    1.477670
     11          1           0       -1.721666   -0.378763   -1.436420
     12          1           0       -2.306804    1.168459   -0.842970
     13          1           0        1.055879    2.341450    0.345460
     14          1           0        3.207670    0.247666    0.043029
 ---------------------------------------------------------------------

 SCF Done:  E(RHF) =  -319.044365226     A.U. after    2 cycles

 The electronic state is 1-A.
 Alpha  occ. eigenvalues --  -15.66046 -15.60080 -15.55054 -11.25236 -11.25211
 Alpha  occ. eigenvalues --  -11.23921 -11.22738  -1.48358  -1.26859  -1.08073
 Alpha  occ. eigenvalues --   -1.00242  -0.87011  -0.86226  -0.76910  -0.73742
 Alpha  occ. eigenvalues --   -0.71679  -0.69573  -0.64277  -0.62043  -0.55395
 Alpha  occ. eigenvalues --   -0.52493  -0.51221  -0.50101  -0.44168  -0.39419
 Alpha  occ. eigenvalues --   -0.36958
 Alpha virt. eigenvalues --    0.03377   0.04023   0.04062   0.04878   0.05233
 Alpha virt. eigenvalues --    0.06143   0.06696   0.07434   0.10577   0.11359
 Alpha virt. eigenvalues --    0.11731   0.12727   0.13505   0.13591   0.14287

 Mulliken charges:
               1
     1  C   -0.346960
     2  C   -0.488555
     3  C    0.290350
     4  C    0.267564
     5  N    0.445935
     6  N   -1.699185
     7  N    0.974569
     8  H    0.104402
     9  H    0.227130
    10  H    0.169856
    11  H    0.214292
    12  H    0.112584
    13  H   -0.409316
    14  H    0.137335
 Sum of Mulliken charges =  -0.00000

 Dipole moment (field-independent basis, Debye):
    X=              0.2501    Y=              1.4584    Z=             -0.5445  Tot=              1.5767

 Test job not archived.
 1\1\GINC-SE112\SP\RHF\Aug-CC-pVDZ\C4H7N3\OHZDE\09-Apr-2025\0\\#t hf au
 g-cc-pvdz iop(5/13=1,5/36=2,99/5=2) pseudo=read geom=check guess=(read
 ,tcheck) scf=(maxcycle=1)\\title\\0,1\C,0,-1.93612498,0.75109274,0.194
 03251\C,0,-1.25264222,-0.55561584,-0.20473723\C,0,0.18671108,-0.378265
 13,-0.47489407\C,0,1.20183827,-0.26646499,-1.1586058\N,0,2.75266582,0.
 13522071,0.25751303\N,0,2.03286984,-0.03686458,1.26702565\N,0,0.915134
 4,-0.16711912,1.50467192\H,0,-3.00045457,0.58434409,0.36703268\H,0,-1.
 49816376,1.15294276,1.10802808\H,0,-1.82871703,1.50033502,-0.5916205\H

 Normal termination of Gaussian 16 at Wed Apr  9 18:40:42 2025.
