 Gaussian 16, Revision C.01,

 ----------------------------------------------------------------------
 #t hf aug-cc-pvdz symm=none int=(grid=ultrafine) guess=(read,tcheck) s
 table=(opt,rrhf)
 ----------------------------------------------------------------------
 -----
 title
 -----
 Symbolic Z-matrix:
 Charge =  0 Multiplicity = 1

 SCF Done:  E(RHF) =  -302.748202421     A.U. after   17 cycles
 Normal termination of Gaussian 16 at Wed Apr  9 18:11:21 2025.
 Gaussian 16:  ES64L-G16RevC.01  3-Jul-2019

 ----------------------------------------------------------------------
 #t hf aug-cc-pvdz iop(5/13=1,5/36=2,99/5=2) pseudo=read geom=check gue
 ss=(read,tcheck) scf=(maxcycle=1)
 ----------------------------------------------------------------------
 -----
 title
 -----
 Structure from the checkpoint file:  "Grambow2020_wb97xd3_007167_forward_mol1.chk"
 Charge =  0 Multiplicity = 1

                         Standard orientation:
 ---------------------------------------------------------------------
 Center     Atomic      Atomic             Coordinates (Angstroms)
 Number     Number       Type             X           Y           Z
 ---------------------------------------------------------------------
      1          6           0       -0.275207    1.853436    0.421202
      2          6           0        0.011995    0.718521   -0.534346
      3          6           0        2.229712   -0.322964   -0.152811
      4          7           0        0.964145   -0.256786   -0.032669
      5          6           0        0.019955   -1.274522    0.467605
      6          6           0       -1.181233   -0.507185   -0.136887
      7          7           0       -2.364515   -0.592967   -0.240620
      8          1           0       -0.464298    1.482963    1.430380
      9          1           0       -1.186340    2.348561    0.081534
     10          1           0        0.535108    2.588983    0.461320
     11          1           0        0.297667    1.066575   -1.530613
     12          1           0        2.746743   -1.248338    0.071062
     13          1           0        2.779606    0.545438   -0.493501
     14          1           0        0.169958   -2.225080   -0.045009
     15          1           0        0.092815   -1.414541    1.549263
 ---------------------------------------------------------------------

 SCF Done:  E(RHF) =  -303.061167624     A.U. after    2 cycles

 The electronic state is 1-A.
 Alpha  occ. eigenvalues --  -15.63760 -15.38818 -11.37886 -11.29659 -11.26832
 Alpha  occ. eigenvalues --  -11.23669 -11.22644  -1.36659  -1.14082  -1.08200
 Alpha  occ. eigenvalues --   -1.02994  -0.92834  -0.85180  -0.76046  -0.73876
 Alpha  occ. eigenvalues --   -0.69571  -0.66815  -0.61840  -0.58913  -0.58007
 Alpha  occ. eigenvalues --   -0.53971  -0.50867  -0.50259  -0.47591  -0.39132
 Alpha  occ. eigenvalues --   -0.28111
 Alpha virt. eigenvalues --    0.00476   0.01156   0.02579   0.04133   0.04525
 Alpha virt. eigenvalues --    0.05277   0.05992   0.06696   0.07455   0.09832
 Alpha virt. eigenvalues --    0.10182   0.11429   0.12685   0.13137   0.13985

 Mulliken charges:
               1
     1  C   -0.011622
     2  C   -1.408259
     3  C   -0.115908
     4  N    1.307265
     5  C   -0.196358
     6  C   -1.291395
     7  N    0.998503
     8  H    0.202880
     9  H    0.240162
    10  H    0.105040
    11  H   -0.049321
    12  H    0.019368
    13  H    0.021209
    14  H    0.127148
    15  H    0.051287
 Sum of Mulliken charges =  -0.00000

 Dipole moment (field-independent basis, Debye):
    X=             11.5550    Y=              0.5595    Z=              0.7834  Tot=             11.5951

 Test job not archived.
 1\1\GINC-SE220\SP\RHF\Aug-CC-pVDZ\C5H8N2\OHZDE\09-Apr-2025\0\\#t hf au
 g-cc-pvdz iop(5/13=1,5/36=2,99/5=2) pseudo=read geom=check guess=(read
 ,tcheck) scf=(maxcycle=1)\\title\\0,1\C,0,-1.19173288,-1.2513006,0.451
 68807\C,0,-0.42597323,-0.46219075,-0.58489573\C,0,-0.37959692,1.969601
 25,-0.10243469\N,0,0.11288485,0.79575343,-0.09837504\C,0,1.49195186,0.
 36357468,0.19987507\C,0,1.23085281,-1.02459528,-0.43406666\N,0,1.79432
 338,-2.04925915,-0.6595447\H,0,-0.64308573,-1.3041283,1.39383492\H,0,-
 1.29580855,-2.2717268,0.07941656\H,0,-2.18812525,-0.84060476,0.6460588

 Normal termination of Gaussian 16 at Wed Apr  9 18:11:26 2025.
