 Gaussian 16, Revision C.01,

 ----------------------------------------------------------------------
 #t hf aug-cc-pvdz symm=none int=(grid=ultrafine) guess=(read,tcheck) s
 table=(opt,rrhf)
 ----------------------------------------------------------------------
 -----
 title
 -----
 Symbolic Z-matrix:
 Charge =  0 Multiplicity = 1

 SCF Done:  E(RHF) =  -286.690129353     A.U. after   15 cycles
 Normal termination of Gaussian 16 at Wed Apr  9 18:29:26 2025.
 Gaussian 16:  ES64L-G16RevC.01  3-Jul-2019

 ----------------------------------------------------------------------
 #t hf aug-cc-pvdz iop(5/13=1,5/36=2,99/5=2) pseudo=read geom=check gue
 ss=(read,tcheck) scf=(maxcycle=1)
 ----------------------------------------------------------------------
 -----
 title
 -----
 Structure from the checkpoint file:  "Grambow2020_wb97xd3_007632_reverse_mol1.chk"
 Charge =  0 Multiplicity = 1

                         Standard orientation:
 ---------------------------------------------------------------------
 Center     Atomic      Atomic             Coordinates (Angstroms)
 Number     Number       Type             X           Y           Z
 ---------------------------------------------------------------------
      1          6           0        2.080063   -0.650337    0.094456
      2          6           0        0.698766   -0.117295   -0.134960
      3          6           0        0.430291    1.290531   -0.598157
      4          6           0       -0.071842    0.838960    0.728804
      5          6           0       -1.383744    0.035185    0.700039
      6          7           0       -1.676117   -0.449719   -0.627204
      7          6           0       -0.459123   -1.154786   -0.263342
      8          1           0        2.067378   -1.421544    0.867238
      9          1           0        2.770160    0.136256    0.405934
     10          1           0        2.473839   -1.105298   -0.817848
     11          1           0        1.297080    1.936997   -0.553848
     12          1           0       -0.230505    1.534164   -1.423651
     13          1           0        0.297036    1.259761    1.654225
     14          1           0       -2.226164    0.173068    1.371495
     15          1           0       -1.532346    0.270501   -1.323435
     16          1           0       -0.950120   -1.089415    1.049283
 ---------------------------------------------------------------------

 SCF Done:  E(RHF) =  -286.997667499     A.U. after    2 cycles

 The electronic state is 1-A.
 Alpha  occ. eigenvalues --  -15.50977 -11.30777 -11.28981 -11.25790 -11.25213
 Alpha  occ. eigenvalues --  -11.24561 -11.22906  -1.30793  -1.15472  -0.98483
 Alpha  occ. eigenvalues --   -0.95609  -0.88038  -0.81576  -0.74339  -0.71660
 Alpha  occ. eigenvalues --   -0.68195  -0.60459  -0.59304  -0.58211  -0.55435
 Alpha  occ. eigenvalues --   -0.54551  -0.51204  -0.47954  -0.46237  -0.40440
 Alpha  occ. eigenvalues --   -0.32289
 Alpha virt. eigenvalues --    0.03136   0.03509   0.03657   0.04459   0.05521
 Alpha virt. eigenvalues --    0.06298   0.06728   0.07389   0.08273   0.10096
 Alpha virt. eigenvalues --    0.10502   0.12339   0.12658   0.13316   0.14099

 Mulliken charges:
               1
     1  C   -0.641894
     2  C    0.156748
     3  C    0.250095
     4  C    0.668169
     5  C   -1.025011
     6  N    0.552598
     7  C   -0.990312
     8  H    0.242148
     9  H    0.137127
    10  H    0.215701
    11  H   -0.108648
    12  H   -0.262853
    13  H   -0.178846
    14  H   -0.071536
    15  H    0.423970
    16  H    0.632543
 Sum of Mulliken charges =   0.00000

 Dipole moment (field-independent basis, Debye):
    X=              1.1694    Y=              3.1118    Z=              1.2384  Tot=              3.5475

 Test job not archived.
 1\1\GINC-SE340\SP\RHF\Aug-CC-pVDZ\C6H9N1\OHZDE\09-Apr-2025\0\\#t hf au
 g-cc-pvdz iop(5/13=1,5/36=2,99/5=2) pseudo=read geom=check guess=(read
 ,tcheck) scf=(maxcycle=1)\\title\\0,1\C,0,1.67667906,-0.6845686,0.8344
 1216\C,0,0.47215208,-0.27996378,0.04058945\C,0,0.51340963,0.78119309,-
 1.02751493\C,0,-0.33866665,0.97625852,0.17780484\C,0,-1.70584189,0.270
 93709,0.14145519\N,0,-1.74731349,-0.7465201,-0.88091931\C,0,-0.7556771
 2,-1.24210156,0.05804026\H,0,1.38029383,-1.0321073,1.8261212\H,0,2.377
 23446,0.14389149,0.95630414\H,0,2.20439967,-1.50537548,0.34234091\H,0,

 Normal termination of Gaussian 16 at Wed Apr  9 18:29:31 2025.
