 Gaussian 16, Revision C.01,

 ----------------------------------------------------------------------
 #t hf aug-cc-pvdz symm=none int=(grid=ultrafine) guess=(read,tcheck) s
 table=(opt,rrhf)
 ----------------------------------------------------------------------
 -----
 title
 -----
 Symbolic Z-matrix:
 Charge =  0 Multiplicity = 1

 SCF Done:  E(RHF) =  -308.839919782     A.U. after   15 cycles

 1\1\GINC-SE112\Stability\RHF\Aug-CC-pVDZ\C6H12O1\OHZDE\09-Apr-2025\0\\
 #t hf aug-cc-pvdz symm=none int=(grid=ultrafine) guess=(read,tcheck) s
 table=(opt,rrhf)\\title\\0,1\C,0,-2.07230092,-1.10851213,-0.25298602\C
 ,0,-1.13252916,0.05402789,-0.33250805\C,0,-1.44763432,1.28501705,0.313
 85948\C,0,0.51035684,-0.88446734,0.61408843\O,0,1.37092712,-1.31627591
 ,-0.42816919\C,0,1.88854593,-0.39267259,0.51856113\C,0,2.23593075,0.97
 880036,0.01206011\H,0,-2.90216224,-0.89510415,-0.93262191\H,0,-1.60078
 096,-2.04238319,-0.55515493\H,0,-2.48582059,-1.21579808,0.75006524\H,0

 Normal termination of Gaussian 16 at Wed Apr  9 18:32:51 2025.
 Gaussian 16:  ES64L-G16RevC.01  3-Jul-2019

 ----------------------------------------------------------------------
 #t hf aug-cc-pvdz iop(5/13=1,5/36=2,99/5=2) pseudo=read geom=check gue
 ss=(read,tcheck) scf=(maxcycle=1)
 ----------------------------------------------------------------------
 -----
 title
 -----
 Structure from the checkpoint file:  "Grambow2020_wb97xd3_007695_forward_mol1.chk"
 Charge =  0 Multiplicity = 1

                         Standard orientation:
 ---------------------------------------------------------------------
 Center     Atomic      Atomic             Coordinates (Angstroms)
 Number     Number       Type             X           Y           Z
 ---------------------------------------------------------------------
      1          6           0       -2.306049   -0.823039   -0.130668
      2          6           0       -1.309083    0.272234   -0.348450
      3          6           0       -1.519071    1.564748    0.215225
      4          6           0        0.329168   -0.688927    0.583321
      5          8           0        1.105324   -1.248064   -0.464672
      6          6           0        1.725098   -0.288634    0.379511
      7          6           0        2.119414    1.017924   -0.249438
      8          1           0       -3.159206   -0.612075   -0.781618
      9          1           0       -1.904555   -1.803340   -0.382790
     10          1           0       -2.668618   -0.830087    0.897493
     11          1           0       -0.750593    0.211152   -1.278057
     12          1           0       -2.282516    1.695818    0.968352
     13          1           0       -1.046369    2.429583   -0.224335
     14          1           0       -0.504790    0.618788    0.616592
     15          1           0        0.086397   -1.385238    1.391209
     16          1           0        2.474206   -0.722028    1.041830
     17          1           0        1.341768    1.386614   -0.918471
     18          1           0        3.036228    0.897519   -0.829211
     19          1           0        2.298594    1.771968    0.519370
 ---------------------------------------------------------------------

 SCF Done:  E(RHF) =  -309.173008711     A.U. after    2 cycles

 The electronic state is 1-A.
 Alpha  occ. eigenvalues --  -20.55002 -11.32509 -11.28767 -11.26227 -11.24881
 Alpha  occ. eigenvalues --  -11.23179 -11.20827  -1.48898  -1.11978  -1.01511
 Alpha  occ. eigenvalues --   -0.96013  -0.89109  -0.81513  -0.77489  -0.69447
 Alpha  occ. eigenvalues --   -0.67443  -0.64396  -0.61262  -0.59087  -0.57844
 Alpha  occ. eigenvalues --   -0.56278  -0.55737  -0.52591  -0.51445  -0.50851
 Alpha  occ. eigenvalues --   -0.44368  -0.42405  -0.26704
 Alpha virt. eigenvalues --    0.03491   0.03613   0.03838   0.04175   0.05597
 Alpha virt. eigenvalues --    0.05909   0.06059   0.07101   0.07405   0.08583
 Alpha virt. eigenvalues --    0.09603   0.09836   0.12330   0.12642   0.13750

 Mulliken charges:
               1
     1  C   -0.247764
     2  C   -0.528199
     3  C   -0.065244
     4  C    0.242649
     5  O   -1.313662
     6  C    0.559491
     7  C   -0.635817
     8  H    0.203849
     9  H    0.193228
    10  H    0.220257
    11  H    0.036125
    12  H   -0.132858
    13  H   -0.139352
    14  H    1.293855
    15  H   -0.190007
    16  H   -0.061020
    17  H    0.163438
    18  H    0.155004
    19  H    0.246026
 Sum of Mulliken charges =   0.00000

 Dipole moment (field-independent basis, Debye):
    X=             -0.5959    Y=              0.4026    Z=              0.5988  Tot=              0.9358

 Test job not archived.
 1\1\GINC-SE112\SP\RHF\Aug-CC-pVDZ\C6H12O1\OHZDE\09-Apr-2025\0\\#t hf a
 ug-cc-pvdz iop(5/13=1,5/36=2,99/5=2) pseudo=read geom=check guess=(rea
 d,tcheck) scf=(maxcycle=1)\\title\\0,1\C,0,-2.07230092,-1.10851213,-0.
 25298602\C,0,-1.13252916,0.05402789,-0.33250805\C,0,-1.44763432,1.2850
 1705,0.31385948\C,0,0.51035684,-0.88446734,0.61408843\O,0,1.37092712,-
 1.31627591,-0.42816919\C,0,1.88854593,-0.39267259,0.51856113\C,0,2.235
 93075,0.97880036,0.01206011\H,0,-2.90216224,-0.89510415,-0.93262191\H,
 0,-1.60078096,-2.04238319,-0.55515493\H,0,-2.48582059,-1.21579808,0.75

 Normal termination of Gaussian 16 at Wed Apr  9 18:32:58 2025.
