 Gaussian 16, Revision C.01,

 ----------------------------------------------------------------------
 #t hf aug-cc-pvdz symm=none int=(grid=ultrafine) guess=(read,tcheck) s
 table=(opt,rrhf)
 ----------------------------------------------------------------------
 -----
 title
 -----
 Symbolic Z-matrix:
 Charge =  0 Multiplicity = 1

 SCF Done:  E(RHF) =  -283.584268354     A.U. after   15 cycles
 Normal termination of Gaussian 16 at Wed Apr  9 17:03:20 2025.
 Gaussian 16:  ES64L-G16RevC.01  3-Jul-2019

 ----------------------------------------------------------------------
 #t hf aug-cc-pvdz iop(5/13=1,5/36=2,99/5=2) pseudo=read geom=check gue
 ss=(read,tcheck) scf=(maxcycle=1)
 ----------------------------------------------------------------------
 -----
 title
 -----
 Structure from the checkpoint file:  "Grambow2020_wb97xd3_006231_forward_mol1.chk"
 Charge =  0 Multiplicity = 1

                         Standard orientation:
 ---------------------------------------------------------------------
 Center     Atomic      Atomic             Coordinates (Angstroms)
 Number     Number       Type             X           Y           Z
 ---------------------------------------------------------------------
      1          8           0        2.048970   -0.024026   -0.180436
      2          6           0        0.863313    0.115550   -0.019616
      3          6           0       -0.093472    1.168551    0.144983
      4          6           0       -1.396513    0.683605   -0.116567
      5          6           0       -1.372850   -0.680917   -0.148676
      6          7           0       -0.084514   -1.060399    0.152717
      7          1           0        0.205852    2.202290    0.214969
      8          1           0        0.180882   -0.208368    1.214992
      9          1           0       -2.285158    1.291311   -0.181244
     10          1           0       -2.183456   -1.390273   -0.146658
     11          1           0        0.278849   -2.000688    0.111675
 ---------------------------------------------------------------------

 SCF Done:  E(RHF) =  -283.874119064     A.U. after    2 cycles

 The electronic state is 1-A.
 Alpha  occ. eigenvalues --  -20.50829 -15.59843 -11.37649 -11.28122 -11.25728
 Alpha  occ. eigenvalues --  -11.25589  -1.46631  -1.31865  -1.08807  -1.00606
 Alpha  occ. eigenvalues --   -0.85260  -0.81763  -0.73993  -0.70467  -0.64706
 Alpha  occ. eigenvalues --   -0.63328  -0.60411  -0.58652  -0.51803  -0.43469
 Alpha  occ. eigenvalues --   -0.41169  -0.31827
 Alpha virt. eigenvalues --    0.02588   0.03702   0.04203   0.05412   0.05702
 Alpha virt. eigenvalues --    0.09031   0.09905   0.10659   0.12029   0.12329
 Alpha virt. eigenvalues --    0.12735   0.13814   0.14172   0.14881   0.15388

 Mulliken charges:
               1
     1  O   -1.322858
     2  C    0.646116
     3  C   -0.095934
     4  C    0.724823
     5  C   -0.653883
     6  N    0.331581
     7  H   -0.154490
     8  H    0.805322
     9  H   -0.108363
    10  H   -0.207707
    11  H    0.035393
 Sum of Mulliken charges =   0.00000

 Dipole moment (field-independent basis, Debye):
    X=             -3.7681    Y=             -1.1033    Z=              0.9657  Tot=              4.0433

 Test job not archived.
 1\1\GINC-SE173\SP\RHF\Aug-CC-pVDZ\C4H5N1O1\OHZDE\09-Apr-2025\0\\#t hf
 aug-cc-pvdz iop(5/13=1,5/36=2,99/5=2) pseudo=read geom=check guess=(re
 ad,tcheck) scf=(maxcycle=1)\\title\\0,1\O,0,-1.35911611,1.96617155,-0.
 32937923\C,0,-0.7791901,0.91862746,-0.19722804\C,0,-0.96095398,-0.4689
 5587,-0.50204881\C,0,0.28091045,-1.14406741,-0.44293864\C,0,1.20173731
 ,-0.34354365,0.1692298\N,0,0.5379697,0.79981467,0.5523739\H,0,-1.87395
 309,-0.8394111,-0.94057404\H,0,-0.62220095,0.24729797,1.07539248\H,0,0
 .44830905,-2.16618286,-0.74366846\H,0,2.18507996,-0.57530008,0.5428595

 Normal termination of Gaussian 16 at Wed Apr  9 17:03:28 2025.
