 Gaussian 16, Revision C.01,

 ----------------------------------------------------------------------
 #t hf aug-cc-pvdz symm=none int=(grid=ultrafine) guess=(read,tcheck) s
 table=(opt,rrhf)
 ----------------------------------------------------------------------
 -----
 title
 -----
 Symbolic Z-matrix:
 Charge =  0 Multiplicity = 1

 SCF Done:  E(RHF) =  -321.470179795     A.U. after   15 cycles
 Normal termination of Gaussian 16 at Wed Apr  9 03:46:17 2025.
 Gaussian 16:  ES64L-G16RevC.01  3-Jul-2019

 ----------------------------------------------------------------------
 #t hf aug-cc-pvdz iop(5/13=1,5/36=2,99/5=2) pseudo=read geom=check gue
 ss=(read,tcheck) scf=(maxcycle=1)
 ----------------------------------------------------------------------
 -----
 title
 -----
 Structure from the checkpoint file:  "Grambow2020_wb97xd3_007885_reverse_mol1.chk"
 Charge =  0 Multiplicity = 1

                         Standard orientation:
 ---------------------------------------------------------------------
 Center     Atomic      Atomic             Coordinates (Angstroms)
 Number     Number       Type             X           Y           Z
 ---------------------------------------------------------------------
      1          8           0        2.290785    0.178532   -0.007519
      2          6           0        1.197581   -0.164104   -0.003208
      3          6           0       -0.458209   -0.345063   -1.068757
      4          7           0       -0.738853   -1.249595    0.010876
      5          6           0       -0.443092   -0.330336    1.073955
      6          6           0       -0.863295    0.973918    0.685061
      7          6           0       -0.871708    0.964343   -0.691744
      8          1           0       -0.449980   -0.726437   -2.082696
      9          1           0       -1.730139   -1.492755    0.019579
     10          1           0       -0.421556   -0.697282    2.092961
     11          1           0       -0.950302    1.830983    1.336298
     12          1           0       -0.970000    1.811851   -1.353958
 ---------------------------------------------------------------------

 SCF Done:  E(RHF) =  -321.796054910     A.U. after    2 cycles

 The electronic state is 1-A.
 Alpha  occ. eigenvalues --  -20.59174 -15.51339 -11.35595 -11.30002 -11.29924
 Alpha  occ. eigenvalues --  -11.24648 -11.24560  -1.54629  -1.28761  -1.07061
 Alpha  occ. eigenvalues --   -0.98114  -0.85437  -0.77577  -0.76571  -0.74725
 Alpha  occ. eigenvalues --   -0.70055  -0.61138  -0.60753  -0.58219  -0.57859
 Alpha  occ. eigenvalues --   -0.56853  -0.56649  -0.45419  -0.37530  -0.34113
 Alpha virt. eigenvalues --    0.03488   0.03935   0.04005   0.05279   0.05329
 Alpha virt. eigenvalues --    0.07682   0.09655   0.10750   0.11063   0.12297
 Alpha virt. eigenvalues --    0.12336   0.12636   0.13217   0.14170   0.15134

 Mulliken charges:
               1
     1  O   -1.002839
     2  C    1.152687
     3  C   -0.667488
     4  N    0.599284
     5  C   -0.674064
     6  C    0.410351
     7  C    0.413470
     8  H   -0.164641
     9  H    0.369236
    10  H   -0.163689
    11  H   -0.136696
    12  H   -0.135612
 Sum of Mulliken charges =   0.00000

 Dipole moment (field-independent basis, Debye):
    X=             -2.3336    Y=              0.6845    Z=              0.0103  Tot=              2.4320

 Test job not archived.
 1\1\GINC-SE364\SP\RHF\Aug-CC-pVDZ\C5H5N1O1\OHZDE\09-Apr-2025\0\\#t hf
 aug-cc-pvdz iop(5/13=1,5/36=2,99/5=2) pseudo=read geom=check guess=(re
 ad,tcheck) scf=(maxcycle=1)\\title\\0,1\O,0,0.34392629,-1.55896675,2.1
 8748205\C,0,-0.03021987,-1.08050064,1.21609253\C,0,0.32941104,-0.80319
 894,-0.70836872\N,0,-1.07041431,-0.48699259,-0.65313502\C,0,-0.9818575
 7,0.45370344,0.42848312\C,0,0.23629481,1.18184552,0.30681969\C,0,1.078
 88978,0.37337412,-0.42267472\H,0,0.65919049,-1.60895521,-1.35303033\H,
 0,-1.35994047,-0.01393894,-1.51001586\H,0,-1.89591518,0.84133218,0.861

 Normal termination of Gaussian 16 at Wed Apr  9 03:46:21 2025.
