 Gaussian 16, Revision C.01,

 ----------------------------------------------------------------------
 #t hf aug-cc-pvdz symm=none int=(grid=ultrafine) guess=(read,tcheck) s
 table=(opt,rrhf)
 ----------------------------------------------------------------------
 -----
 title
 -----
 Symbolic Z-matrix:
 Charge =  0 Multiplicity = 1

 SCF Done:  E(RHF) =  -358.358355625     A.U. after   16 cycles
 Normal termination of Gaussian 16 at Wed Apr  9 03:40:12 2025.
 Gaussian 16:  ES64L-G16RevC.01  3-Jul-2019

 ----------------------------------------------------------------------
 #t hf aug-cc-pvdz iop(5/13=1,5/36=2,99/5=2) pseudo=read geom=check gue
 ss=(read,tcheck) scf=(maxcycle=1)
 ----------------------------------------------------------------------
 -----
 title
 -----
 Structure from the checkpoint file:  "Grambow2020_wb97xd3_007458_forward_mol1.chk"
 Charge =  0 Multiplicity = 1

                         Standard orientation:
 ---------------------------------------------------------------------
 Center     Atomic      Atomic             Coordinates (Angstroms)
 Number     Number       Type             X           Y           Z
 ---------------------------------------------------------------------
      1          8           0       -2.484147   -0.344371   -0.228424
      2          6           0       -1.569696    0.573487    0.312605
      3          6           0       -0.139129    0.311774   -0.122534
      4          7           0        0.315364   -1.012758    0.053273
      5          8           0        1.589896   -0.917630    0.080284
      6          6           0        2.010708    0.396237   -0.010040
      7          6           0        0.976672    1.286934   -0.088391
      8          1           0       -2.279983   -1.221615    0.103095
      9          1           0       -1.851364    1.565119   -0.036244
     10          1           0       -1.599397    0.583953    1.407643
     11          1           0        3.085194    0.479267    0.039792
     12          1           0       -0.079316    0.368002   -1.251916
 ---------------------------------------------------------------------

 SCF Done:  E(RHF) =  -358.715235251     A.U. after    2 cycles

 The electronic state is 1-A.
 Alpha  occ. eigenvalues --  -20.73300 -20.57019 -15.65813 -11.31665 -11.31057
 Alpha  occ. eigenvalues --  -11.30387 -11.23669  -1.68466  -1.47723  -1.20788
 Alpha  occ. eigenvalues --   -1.11717  -0.98157  -0.87640  -0.83171  -0.77420
 Alpha  occ. eigenvalues --   -0.75155  -0.70300  -0.66198  -0.63418  -0.61266
 Alpha  occ. eigenvalues --   -0.57477  -0.54657  -0.50966  -0.46999  -0.38809
 Alpha  occ. eigenvalues --   -0.37956
 Alpha virt. eigenvalues --   -0.01252   0.03618   0.04252   0.04815   0.05257
 Alpha virt. eigenvalues --    0.06171   0.08720   0.09436   0.10571   0.12339
 Alpha virt. eigenvalues --    0.13058   0.13988   0.14115   0.15045   0.15914

 Mulliken charges:
               1
     1  O   -1.150996
     2  C    0.952538
     3  C   -1.625321
     4  N    1.411803
     5  O   -1.300918
     6  C    0.912035
     7  C   -0.442167
     8  H    0.323978
     9  H    0.108065
    10  H    0.213296
    11  H   -0.042404
    12  H    0.640089
 Sum of Mulliken charges =   0.00000

 Dipole moment (field-independent basis, Debye):
    X=              0.9962    Y=             -1.6042    Z=              0.6741  Tot=              2.0050

 Test job not archived.
 1\1\GINC-SE343\SP\RHF\Aug-CC-pVDZ\C4H5N1O2\OHZDE\09-Apr-2025\0\\#t hf
 aug-cc-pvdz iop(5/13=1,5/36=2,99/5=2) pseudo=read geom=check guess=(re
 ad,tcheck) scf=(maxcycle=1)\\title\\0,1\O,0,-2.32846145,0.53069303,0.1
 0610117\C,0,-1.3935631,-0.51649927,0.07870071\C,0,0.04127105,-0.033453
 22,0.18951697\N,0,0.40752818,0.99030519,-0.71027804\O,0,1.68197812,0.9
 1963171,-0.78094971\C,0,2.18284061,-0.12534686,-0.02686525\C,0,1.20828
 442,-0.84909401,0.60173566\H,0,-2.1943394,1.08987463,-0.66232029\H,0,-
 1.5973258,-1.16364011,0.92961614\H,0,-1.48322981,-1.12175979,-0.829989

 Normal termination of Gaussian 16 at Wed Apr  9 03:40:16 2025.
