 Gaussian 16, Revision C.01,

 ----------------------------------------------------------------------
 #t hf aug-cc-pvdz symm=none int=(grid=ultrafine) guess=(read,tcheck) s
 table=(opt,rrhf)
 ----------------------------------------------------------------------
 -----
 title
 -----
 Symbolic Z-matrix:
 Charge =  0 Multiplicity = 1

 SCF Done:  E(RHF) =  -353.493751519     A.U. after   15 cycles
 Normal termination of Gaussian 16 at Wed Apr  9 18:36:11 2025.
 Gaussian 16:  ES64L-G16RevC.01  3-Jul-2019

 ----------------------------------------------------------------------
 #t hf aug-cc-pvdz iop(5/13=1,5/36=2,99/5=2) pseudo=read geom=check gue
 ss=(read,tcheck) scf=(maxcycle=1)
 ----------------------------------------------------------------------
 -----
 title
 -----
 Structure from the checkpoint file:  "Grambow2020_wb97xd3_007768_reverse_mol1.chk"
 Charge =  0 Multiplicity = 1

                         Standard orientation:
 ---------------------------------------------------------------------
 Center     Atomic      Atomic             Coordinates (Angstroms)
 Number     Number       Type             X           Y           Z
 ---------------------------------------------------------------------
      1          8           0       -2.866376    0.249229   -0.000366
      2          6           0       -1.911343   -0.360224   -0.000481
      3          7           0       -0.102940    0.360778    0.001017
      4          6           0        0.976812    1.133083    0.000218
      5          7           0        2.106826    0.423578   -0.000729
      6          6           0        1.657831   -0.836998   -0.000551
      7          7           0        0.337555   -0.903982    0.000816
      8          1           0       -1.014543   -1.269798    0.000075
      9          1           0        0.926855    2.210496    0.000076
     10          1           0        2.288815   -1.712317   -0.000070
 ---------------------------------------------------------------------

 SCF Done:  E(RHF) =  -353.841904416     A.U. after    2 cycles

 The electronic state is 1-A.
 Alpha  occ. eigenvalues --  -20.66891 -15.54880 -15.54139 -15.48988 -11.43970
 Alpha  occ. eigenvalues --  -11.30059 -11.29967  -1.62326  -1.40763  -1.20340
 Alpha  occ. eigenvalues --   -1.10899  -0.94127  -0.85071  -0.83709  -0.78739
 Alpha  occ. eigenvalues --   -0.69931  -0.67224  -0.65926  -0.64719  -0.61494
 Alpha  occ. eigenvalues --   -0.56861  -0.54834  -0.46911  -0.45028  -0.40265
 Alpha virt. eigenvalues --    0.03274   0.04979   0.05405   0.06746   0.07524
 Alpha virt. eigenvalues --    0.09100   0.09413   0.09494   0.10104   0.11962
 Alpha virt. eigenvalues --    0.12401   0.13976   0.14380   0.14866   0.16104

 Mulliken charges:
               1
     1  O   -0.771215
     2  C    0.713416
     3  N    0.070840
     4  C   -0.537337
     5  N    0.525420
     6  C   -0.647091
     7  N    0.108812
     8  H    0.670580
     9  H   -0.052651
    10  H   -0.080775
 Sum of Mulliken charges =  -0.00000

 Dipole moment (field-independent basis, Debye):
    X=             -2.4502    Y=             -1.3577    Z=             -0.0020  Tot=              2.8012

 Test job not archived.
 1\1\GINC-SE220\SP\RHF\Aug-CC-pVDZ\C3H3N3O1\OHZDE\09-Apr-2025\0\\#t hf
 aug-cc-pvdz iop(5/13=1,5/36=2,99/5=2) pseudo=read geom=check guess=(re
 ad,tcheck) scf=(maxcycle=1)\\title\\0,1\O,0,3.09463942,-0.17183705,0.2
 7673965\C,0,2.04633131,-0.59445433,0.35398326\N,0,0.40428926,0.3494238
 8,-0.09652281\C,0,-0.51374027,1.23160884,-0.47241173\N,0,-1.75204836,0
 .74263462,-0.38393829\C,0,-1.54209615,-0.49828204,0.07069893\N,0,-0.25
 910857,-0.7607371,0.25146908\H,0,1.00031246,-1.30536201,0.53295016\H,0
 ,-0.26772818,2.2266235,-0.80817756\H,0,-2.32109992,-1.2174913,0.271236

 Normal termination of Gaussian 16 at Wed Apr  9 18:36:15 2025.
