 Gaussian 16, Revision C.01,

 ----------------------------------------------------------------------
 #t hf aug-cc-pvdz symm=none int=(grid=ultrafine) guess=(read,tcheck) s
 table=(opt,rrhf)
 ----------------------------------------------------------------------
 -----
 title
 -----
 Symbolic Z-matrix:
 Charge =  0 Multiplicity = 1

 SCF Done:  E(RHF) =  -302.719186034     A.U. after   19 cycles
 Normal termination of Gaussian 16 at Wed Apr  9 18:45:46 2025.
 Gaussian 16:  ES64L-G16RevC.01  3-Jul-2019

 ----------------------------------------------------------------------
 #t hf aug-cc-pvdz iop(5/13=1,5/36=2,99/5=2) pseudo=read geom=check gue
 ss=(read,tcheck) scf=(maxcycle=1)
 ----------------------------------------------------------------------
 -----
 title
 -----
 Structure from the checkpoint file:  "Grambow2020_wb97xd3_008032_forward_mol1.chk"
 Charge =  0 Multiplicity = 1

                         Standard orientation:
 ---------------------------------------------------------------------
 Center     Atomic      Atomic             Coordinates (Angstroms)
 Number     Number       Type             X           Y           Z
 ---------------------------------------------------------------------
      1          6           0        1.021487    1.608731   -0.331330
      2          6           0        0.254664    0.620904    0.520630
      3          6           0       -1.293279    0.746013    0.352765
      4          7           0       -1.621221   -0.371107   -0.510000
      5          6           0       -0.734355   -1.347295   -0.040804
      6          6           0        0.729303   -0.909056    0.007432
      7          7           0        1.877343   -1.208828   -0.021439
      8          1           0        0.760674    1.512958   -1.387577
      9          1           0        0.748303    2.617762   -0.006444
     10          1           0        2.095471    1.474527   -0.228474
     11          1           0        0.581398    0.663045    1.558678
     12          1           0       -1.607623    1.708307   -0.063463
     13          1           0       -1.782311    0.615527    1.321498
     14          1           0       -1.430949   -0.148248   -1.479619
     15          1           0       -1.024732   -1.700106    0.953321
 ---------------------------------------------------------------------

 SCF Done:  E(RHF) =  -303.032543533     A.U. after    2 cycles

 The electronic state is 1-A.
 Alpha  occ. eigenvalues --  -15.52762 -15.47706 -11.32395 -11.31550 -11.29985
 Alpha  occ. eigenvalues --  -11.27553 -11.25268  -1.28959  -1.19920  -1.07592
 Alpha  occ. eigenvalues --   -0.97381  -0.94614  -0.82929  -0.76070  -0.70311
 Alpha  occ. eigenvalues --   -0.67940  -0.63958  -0.61948  -0.59499  -0.58475
 Alpha  occ. eigenvalues --   -0.54929  -0.53882  -0.52250  -0.45881  -0.45677
 Alpha  occ. eigenvalues --   -0.31843
 Alpha virt. eigenvalues --   -0.00938   0.02782   0.03442   0.03845   0.04461
 Alpha virt. eigenvalues --    0.05590   0.06683   0.06932   0.07481   0.09980
 Alpha virt. eigenvalues --    0.11183   0.12268   0.12561   0.13669   0.14214

 Mulliken charges:
               1
     1  C   -0.200543
     2  C   -0.652273
     3  C   -0.074108
     4  N    0.313078
     5  C   -0.282935
     6  C   -1.515829
     7  N    0.935446
     8  H    0.268266
     9  H    0.168440
    10  H    0.196952
    11  H    0.097154
    12  H    0.079495
    13  H    0.102672
    14  H    0.381623
    15  H    0.182563
 Sum of Mulliken charges =  -0.00000

 Dipole moment (field-independent basis, Debye):
    X=             -3.9856    Y=              3.8832    Z=              0.8376  Tot=              5.6273

 Test job not archived.
 1\1\GINC-SE229\SP\RHF\Aug-CC-pVDZ\C5H8N2\OHZDE\09-Apr-2025\0\\#t hf au
 g-cc-pvdz iop(5/13=1,5/36=2,99/5=2) pseudo=read geom=check guess=(read
 ,tcheck) scf=(maxcycle=1)\\title\\0,1\C,0,1.19775933,-0.51000393,-1.07
 910675\C,0,0.58447859,-0.06446222,0.23048649\C,0,-0.23705487,1.2575439
 4,0.09881043\N,0,-1.60916401,0.7916354,0.08815652\C,0,-1.54437896,-0.2
 6756582,1.00112784\C,0,-0.45507038,-1.29850956,0.70577283\N,0,-0.06453
 854,-2.41502427,0.80362083\H,0,0.4394598,-0.62819214,-1.8561948\H,0,1.
 89721379,0.26626295,-1.4054455\H,0,1.72899525,-1.45234896,-0.97045082\

 Normal termination of Gaussian 16 at Wed Apr  9 18:45:51 2025.
