 Gaussian 16, Revision C.01,

 ----------------------------------------------------------------------
 #t hf aug-cc-pvdz symm=none int=(grid=ultrafine) guess=(read,tcheck) s
 table=(opt,rrhf)
 ----------------------------------------------------------------------
 -----
 title
 -----
 Symbolic Z-matrix:
 Charge =  0 Multiplicity = 1

 SCF Done:  E(RHF) =  -380.732786403     A.U. after   13 cycles
 Normal termination of Gaussian 16 at Wed Apr  9 19:02:51 2025.
 Gaussian 16:  ES64L-G16RevC.01  3-Jul-2019

 ----------------------------------------------------------------------
 #t hf aug-cc-pvdz iop(5/13=1,5/36=2,99/5=2) pseudo=read geom=check gue
 ss=(read,tcheck) scf=(maxcycle=1)
 ----------------------------------------------------------------------
 -----
 title
 -----
 Structure from the checkpoint file:  "Grambow2020_wb97xd3_008491_reverse_mol2.chk"
 Charge =  0 Multiplicity = 1

                         Standard orientation:
 ---------------------------------------------------------------------
 Center     Atomic      Atomic             Coordinates (Angstroms)
 Number     Number       Type             X           Y           Z
 ---------------------------------------------------------------------
      1          6           0       -2.685373   -0.241756    0.254838
      2          8           0       -1.658855    0.669671   -0.112574
      3          6           0       -0.400934    0.208514   -0.135182
      4          8           0       -0.312321   -1.110365   -0.369243
      5          6           0        0.642139    1.026415    0.045414
      6          6           0        2.059312    0.585080   -0.120871
      7          8           0        2.219517   -0.754073    0.381853
      8          1           0       -2.470236   -0.709110    1.218452
      9          1           0       -3.591212    0.355306    0.333835
     10          1           0       -2.819531   -1.017546   -0.499295
     11          1           0        0.440642    2.057748    0.292369
     12          1           0        0.604282   -1.365813   -0.157145
     13          1           0        2.367894    0.599073   -1.175645
     14          1           0        2.721559    1.261671    0.427223
     15          1           0        3.069015   -1.092713    0.094729
 ---------------------------------------------------------------------

 SCF Done:  E(RHF) =  -381.122062380     A.U. after    2 cycles

 The electronic state is 1-A.
 Alpha  occ. eigenvalues --  -20.56905 -20.56897 -20.56764 -11.35432 -11.29756
 Alpha  occ. eigenvalues --  -11.28592 -11.20140  -1.53866  -1.47233  -1.45525
 Alpha  occ. eigenvalues --   -1.05584  -0.96715  -0.88648  -0.81583  -0.72789
 Alpha  occ. eigenvalues --   -0.70141  -0.68686  -0.66217  -0.63758  -0.60454
 Alpha  occ. eigenvalues --   -0.59329  -0.56227  -0.54007  -0.51954  -0.50838
 Alpha  occ. eigenvalues --   -0.47415  -0.46115  -0.31619
 Alpha virt. eigenvalues --    0.03156   0.04234   0.04299   0.05093   0.05963
 Alpha virt. eigenvalues --    0.06220   0.06669   0.09097   0.10682   0.12272
 Alpha virt. eigenvalues --    0.12523   0.13825   0.14257   0.15496   0.15921

 Mulliken charges:
               1
     1  C    0.140246
     2  O   -1.506452
     3  C    2.220813
     4  O   -1.453606
     5  C    0.208800
     6  C    0.416290
     7  O   -1.180236
     8  H    0.143175
     9  H    0.001825
    10  H    0.171567
    11  H   -0.280618
    12  H    0.522501
    13  H    0.156938
    14  H    0.089673
    15  H    0.349084
 Sum of Mulliken charges =  -0.00000

 Dipole moment (field-independent basis, Debye):
    X=              1.6160    Y=             -0.6929    Z=             -0.1653  Tot=              1.7660

 Test job not archived.
 1\1\GINC-SE219\SP\RHF\Aug-CC-pVDZ\C4H8O3\OHZDE\09-Apr-2025\0\\#t hf au
 g-cc-pvdz iop(5/13=1,5/36=2,99/5=2) pseudo=read geom=check guess=(read
 ,tcheck) scf=(maxcycle=1)\\title\\0,1\C,0,-2.70591122,-0.29367631,-0.0
 2585847\O,0,-1.66751951,0.65341772,0.18434503\C,0,-0.41082611,0.258461
 76,-0.06116196\O,0,-0.32016911,-0.7204091,-0.97531275\C,0,0.62969353,0
 .82794105,0.55737573\C,0,2.04935275,0.52533575,0.20551492\O,0,2.192504
 92,-0.87367517,-0.10108682\H,0,-2.51711618,-1.21455856,0.53054735\H,0,
 -3.61168799,0.17854637,0.34809737\H,0,-2.82289754,-0.53005977,-1.08368

 Normal termination of Gaussian 16 at Wed Apr  9 19:02:55 2025.
