 Gaussian 16, Revision C.01,

 ----------------------------------------------------------------------
 #t hf aug-cc-pvdz symm=none int=(grid=ultrafine) guess=(read,tcheck) s
 table=(opt,rrhf)
 ----------------------------------------------------------------------
 -----
 title
 -----
 Symbolic Z-matrix:
 Charge =  0 Multiplicity = 1

 SCF Done:  E(RHF) =  -301.563537468     A.U. after   16 cycles
 Normal termination of Gaussian 16 at Wed Apr  9 19:11:55 2025.
 Gaussian 16:  ES64L-G16RevC.01  3-Jul-2019

 ----------------------------------------------------------------------
 #t hf aug-cc-pvdz iop(5/13=1,5/36=2,99/5=2) pseudo=read geom=check gue
 ss=(read,tcheck) scf=(maxcycle=1)
 ----------------------------------------------------------------------
 -----
 title
 -----
 Structure from the checkpoint file:  "Grambow2020_wb97xd3_008865_forward_mol1.chk"
 Charge =  0 Multiplicity = 1

                         Standard orientation:
 ---------------------------------------------------------------------
 Center     Atomic      Atomic             Coordinates (Angstroms)
 Number     Number       Type             X           Y           Z
 ---------------------------------------------------------------------
      1          7           0        2.406148   -0.614897    0.064179
      2          6           0        1.499789    0.083102   -0.020078
      3          6           0        0.370396    0.976804   -0.155038
      4          6           0       -0.823552    0.596760   -0.976915
      5          6           0       -1.048194   -0.902166   -0.702489
      6          6           0       -1.045395   -0.686719    0.810882
      7          7           0       -0.731557    0.788527    0.795027
      8          1           0        0.679172    2.015466   -0.213189
      9          1           0       -1.537963    1.200415   -0.021349
     10          1           0       -1.998030   -1.254934   -1.096631
     11          1           0       -0.251331   -1.538873   -1.090534
     12          1           0       -2.024208   -0.814089    1.267171
     13          1           0       -0.308041   -1.230085    1.401918
 ---------------------------------------------------------------------

 SCF Done:  E(RHF) =  -301.870627779     A.U. after    2 cycles

 The electronic state is 1-A.
 Alpha  occ. eigenvalues --  -15.58044 -15.53012 -11.33279 -11.30004 -11.29590
 Alpha  occ. eigenvalues --  -11.29414 -11.25959  -1.33985  -1.25113  -1.05807
 Alpha  occ. eigenvalues --   -1.00832  -0.93476  -0.78971  -0.75996  -0.72593
 Alpha  occ. eigenvalues --   -0.64069  -0.63201  -0.60828  -0.59980  -0.58351
 Alpha  occ. eigenvalues --   -0.53688  -0.52064  -0.51927  -0.45304  -0.37610
 Alpha virt. eigenvalues --    0.03095   0.03974   0.04153   0.04580   0.06484
 Alpha virt. eigenvalues --    0.06926   0.06995   0.08285   0.09776   0.10881
 Alpha virt. eigenvalues --    0.12423   0.12613   0.13537   0.14023   0.14627

 Mulliken charges:
               1
     1  N    1.006567
     2  C   -2.070254
     3  C    0.582785
     4  C   -0.335633
     5  C    0.096763
     6  C   -0.192751
     7  N    0.178899
     8  H   -0.145414
     9  H    0.618246
    10  H    0.025235
    11  H    0.165201
    12  H    0.010320
    13  H    0.060036
 Sum of Mulliken charges =   0.00000

 Dipole moment (field-independent basis, Debye):
    X=             -3.1637    Y=              0.1563    Z=              0.0647  Tot=              3.1682

 Test job not archived.
 1\1\GINC-SE135\SP\RHF\Aug-CC-pVDZ\C5H6N2\OHZDE\09-Apr-2025\0\\#t hf au
 g-cc-pvdz iop(5/13=1,5/36=2,99/5=2) pseudo=read geom=check guess=(read
 ,tcheck) scf=(maxcycle=1)\\title\\0,1\N,0,2.20660575,0.1897623,1.73125
 601\C,0,1.71347789,0.24620169,0.69712383\C,0,1.11603223,0.29634779,-0.
 61930666\C,0,0.10953408,-0.72597376,-1.05202895\C,0,-0.76553723,-0.988
 32489,0.18812249\C,0,-1.04262233,0.50243816,0.38194907\N,0,-0.16143082
 ,1.0088303,-0.73257534\H,0,1.82516119,0.61807081,-1.37506681\H,0,-0.50
 5426,0.2945762,-1.65881561\H,0,-1.64982698,-1.57478003,-0.04869628\H,0

 Normal termination of Gaussian 16 at Wed Apr  9 19:12:00 2025.
