 Gaussian 16, Revision C.01,

 ----------------------------------------------------------------------
 #t hf aug-cc-pvdz symm=none int=(grid=ultrafine) guess=(read,tcheck) s
 table=(opt,rrhf)
 ----------------------------------------------------------------------
 -----
 title
 -----
 Symbolic Z-matrix:
 Charge =  0 Multiplicity = 1

 SCF Done:  E(RHF) =  -232.987958998     A.U. after   12 cycles
 Normal termination of Gaussian 16 at Wed Apr  9 03:07:57 2025.
 Gaussian 16:  ES64L-G16RevC.01  3-Jul-2019

 ----------------------------------------------------------------------
 #t hf aug-cc-pvdz iop(5/13=1,5/36=2,99/5=2) pseudo=read geom=check gue
 ss=(read,tcheck) scf=(maxcycle=1)
 ----------------------------------------------------------------------
 -----
 title
 -----
 Structure from the checkpoint file:  "Grambow2020_b97d3_006586_forward_mol2.chk"
 Charge =  0 Multiplicity = 1

                         Standard orientation:
 ---------------------------------------------------------------------
 Center     Atomic      Atomic             Coordinates (Angstroms)
 Number     Number       Type             X           Y           Z
 ---------------------------------------------------------------------
      1          6           0        1.479334   -0.004549    0.842969
      2          6           0        1.687240    0.003808   -0.658805
      3          6           0        0.299964   -0.001505   -0.089930
      4          6           0       -0.773615    1.096529   -0.149094
      5          6           0       -1.832205    0.001041    0.185648
      6          6           0       -0.776688   -1.096130   -0.155026
      7          1           0        1.699619    0.909632    1.396454
      8          1           0        1.703187   -0.925716    1.383435
      9          1           0        2.053080   -0.909927   -1.129928
     10          1           0        2.045202    0.925085   -1.121275
     11          1           0       -0.899449    1.500505   -1.164180
     12          1           0       -0.673985    1.931335    0.558323
     13          1           0       -2.755302    0.004551   -0.407476
     14          1           0       -2.093573   -0.001577    1.251371
     15          1           0       -0.903786   -1.496179   -1.171412
     16          1           0       -0.679178   -1.932872    0.550114
 ---------------------------------------------------------------------

 SCF Done:  E(RHF) =  -233.244698430     A.U. after    2 cycles

 The electronic state is 1-A.
 Alpha  occ. eigenvalues --  -11.23480 -11.22858 -11.22835 -11.22757 -11.22740
 Alpha  occ. eigenvalues --  -11.22727  -1.16077  -1.06483  -0.89893  -0.83545
 Alpha  occ. eigenvalues --   -0.81911  -0.72102  -0.65982  -0.64494  -0.63719
 Alpha  occ. eigenvalues --   -0.54685  -0.52629  -0.50962  -0.50028  -0.48106
 Alpha  occ. eigenvalues --   -0.44486  -0.40140  -0.39557
 Alpha virt. eigenvalues --    0.03855   0.03871   0.04130   0.04158   0.06167
 Alpha virt. eigenvalues --    0.06313   0.06332   0.06413   0.07397   0.09504
 Alpha virt. eigenvalues --    0.11900   0.13198   0.13562   0.13691   0.13999

 Mulliken charges:
               1
     1  C    0.064120
     2  C    0.101546
     3  C    0.420329
     4  C   -0.348886
     5  C    0.028182
     6  C   -0.345793
     7  H   -0.084769
     8  H   -0.082748
     9  H   -0.067950
    10  H   -0.066182
    11  H    0.105556
    12  H    0.043585
    13  H    0.015448
    14  H    0.068676
    15  H    0.104412
    16  H    0.044474
 Sum of Mulliken charges =  -0.00000

 Dipole moment (field-independent basis, Debye):
    X=             -0.1538    Y=             -0.0010    Z=              0.0095  Tot=              0.1541

 Test job not archived.
 1\1\GINC-SE459\SP\RHF\Aug-CC-pVDZ\C6H10\OHZDE\09-Apr-2025\0\\#t hf aug
 -cc-pvdz iop(5/13=1,5/36=2,99/5=2) pseudo=read geom=check guess=(read,
 tcheck) scf=(maxcycle=1)\\title\\0,1\C,0,-1.50489181,0.32191552,0.7722
 6482\C,0,-1.70644602,-0.0568224,-0.68188587\C,0,-0.32483112,-0.0009447
 7,-0.10205959\C,0,0.66712711,-1.14835333,0.14537716\C,0,1.80042211,-0.
 07886136,0.21309389\C,0,0.82812435,0.96399349,-0.42019031\H,0,-1.79280
 131,-0.40254352,1.5357201\H,0,-1.66412969,1.36393626,1.05439422\H,0,-2
 .00351758,0.72847824,-1.37885075\H,0,-2.12784766,-1.03909274,-0.901731

 Normal termination of Gaussian 16 at Wed Apr  9 03:08:02 2025.
