 Gaussian 16, Revision C.01,

 ----------------------------------------------------------------------
 #t hf aug-cc-pvdz symm=none int=(grid=ultrafine) guess=(read,tcheck) s
 table=(opt,rrhf)
 ----------------------------------------------------------------------
 -----
 title
 -----
 Symbolic Z-matrix:
 Charge =  0 Multiplicity = 1

 SCF Done:  E(RHF) =  -301.505570489     A.U. after   19 cycles
 Normal termination of Gaussian 16 at Wed Apr  9 19:10:55 2025.
 Gaussian 16:  ES64L-G16RevC.01  3-Jul-2019

 ----------------------------------------------------------------------
 #t hf aug-cc-pvdz iop(5/13=1,5/36=2,99/5=2) pseudo=read geom=check gue
 ss=(read,tcheck) scf=(maxcycle=1)
 ----------------------------------------------------------------------
 -----
 title
 -----
 Structure from the checkpoint file:  "Grambow2020_wb97xd3_008859_forward_mol1.chk"
 Charge =  0 Multiplicity = 1

                         Standard orientation:
 ---------------------------------------------------------------------
 Center     Atomic      Atomic             Coordinates (Angstroms)
 Number     Number       Type             X           Y           Z
 ---------------------------------------------------------------------
      1          7           0       -2.418856   -0.384678    0.224845
      2          6           0       -1.355134   -0.329176   -0.341869
      3          6           0       -0.588028    0.871448   -0.011908
      4          6           0        0.671217    0.691753    0.707922
      5          6           0        1.159936   -0.762114    0.784176
      6          6           0        1.190440   -0.619473   -0.710819
      7          7           0        0.982656    0.702199   -0.773327
      8          1           0       -1.019384    1.855968   -0.115431
      9          1           0        1.055599    1.480266    1.346203
     10          1           0        2.161832   -0.801428    1.214148
     11          1           0        0.526324   -1.516379    1.249218
     12          1           0        1.537081   -1.237162   -1.529885
     13          1           0       -0.678639   -1.118547   -0.889885
 ---------------------------------------------------------------------

 SCF Done:  E(RHF) =  -301.810028614     A.U. after    2 cycles

 The electronic state is 1-A.
 Alpha  occ. eigenvalues --  -15.55617 -15.47458 -11.34702 -11.33392 -11.31800
 Alpha  occ. eigenvalues --  -11.28814 -11.26167  -1.35249  -1.19946  -1.04708
 Alpha  occ. eigenvalues --   -1.02291  -0.90588  -0.79298  -0.76855  -0.71853
 Alpha  occ. eigenvalues --   -0.70627  -0.65766  -0.61923  -0.58021  -0.56322
 Alpha  occ. eigenvalues --   -0.53834  -0.50588  -0.49017  -0.43405  -0.31850
 Alpha virt. eigenvalues --    0.01692   0.02428   0.03315   0.03797   0.04741
 Alpha virt. eigenvalues --    0.05378   0.06998   0.08010   0.08883   0.10424
 Alpha virt. eigenvalues --    0.12103   0.12771   0.13255   0.13894   0.14305

 Mulliken charges:
               1
     1  N    0.735690
     2  C   -1.431167
     3  C    0.074414
     4  C    0.550666
     5  C   -0.016148
     6  C   -0.337673
     7  N    0.441698
     8  H   -0.121419
     9  H   -0.140485
    10  H    0.094447
    11  H    0.131907
    12  H   -0.105666
    13  H    0.123736
 Sum of Mulliken charges =   0.00000

 Dipole moment (field-independent basis, Debye):
    X=              6.5377    Y=             -0.0764    Z=              0.6946  Tot=              6.5749

 Test job not archived.
 1\1\GINC-SE454\SP\RHF\Aug-CC-pVDZ\C5H6N2\OHZDE\09-Apr-2025\0\\#t hf au
 g-cc-pvdz iop(5/13=1,5/36=2,99/5=2) pseudo=read geom=check guess=(read
 ,tcheck) scf=(maxcycle=1)\\title\\0,1\N,0,2.34432167,0.13263467,1.3328
 8431\C,0,1.29400396,0.56346466,0.92426594\C,0,1.11624333,0.37909101,-0
 .51560654\C,0,0.04433552,-0.51194049,-0.9551726\C,0,-0.93416352,-0.927
 09776,0.15323811\C,0,-1.19197992,0.5518658,0.20308989\N,0,-0.51539516,
 0.89340352,-0.90121234\H,0,1.8599523,0.72314352,-1.21887716\H,0,0.1159
 0239,-1.02862452,-1.90639324\H,0,-1.77490872,-1.47708269,-0.27206312\H

 Normal termination of Gaussian 16 at Wed Apr  9 19:10:59 2025.
