 Gaussian 16, Revision C.01,

 ----------------------------------------------------------------------
 #t hf aug-cc-pvdz symm=none int=(grid=ultrafine) guess=(read,tcheck) s
 table=(opt,rrhf)
 ----------------------------------------------------------------------
 -----
 title
 -----
 Symbolic Z-matrix:
 Charge =  0 Multiplicity = 1

 SCF Done:  E(RHF) =  -269.586967316     A.U. after   14 cycles
 Normal termination of Gaussian 16 at Wed Apr  9 17:22:33 2025.
 Gaussian 16:  ES64L-G16RevC.01  3-Jul-2019

 ----------------------------------------------------------------------
 #t hf aug-cc-pvdz iop(5/13=1,5/36=2,99/5=2) pseudo=read geom=check gue
 ss=(read,tcheck) scf=(maxcycle=1)
 ----------------------------------------------------------------------
 -----
 title
 -----
 Structure from the checkpoint file:  "Grambow2020_wb97xd3_006585_reverse_mol2.chk"
 Charge =  0 Multiplicity = 1

                         Standard orientation:
 ---------------------------------------------------------------------
 Center     Atomic      Atomic             Coordinates (Angstroms)
 Number     Number       Type             X           Y           Z
 ---------------------------------------------------------------------
      1          6           0        2.253100   -0.047633   -0.486345
      2          6           0        1.046898   -0.028355    0.449318
      3          6           0        0.129623    1.231489    0.218658
      4          6           0       -1.211864    0.659981   -0.055575
      5          6           0       -2.302637   -0.018263   -0.283779
      6          6           0       -1.133820   -0.793130   -0.024821
      7          6           0        0.096236   -1.217740    0.252683
      8          1           0        1.929171   -0.044439   -1.530394
      9          1           0        2.904709    0.815036   -0.322646
     10          1           0        2.849642   -0.947959   -0.326484
     11          1           0        1.424861   -0.007427    1.479248
     12          1           0        0.097164    1.904810    1.076347
     13          1           0        0.459591    1.830221   -0.634100
     14          1           0       -3.359032   -0.025003   -0.504700
     15          1           0        0.428680   -2.243326    0.341899
 ---------------------------------------------------------------------

 SCF Done:  E(RHF) =  -269.873134704     A.U. after    2 cycles

 The electronic state is 1-A.
 Alpha  occ. eigenvalues --  -11.29735 -11.27394 -11.26772 -11.24889 -11.23866
 Alpha  occ. eigenvalues --  -11.21883 -11.20301  -1.23389  -1.08418  -0.96999
 Alpha  occ. eigenvalues --   -0.95450  -0.81019  -0.76588  -0.70544  -0.67116
 Alpha  occ. eigenvalues --   -0.64416  -0.58492  -0.57627  -0.55177  -0.51931
 Alpha  occ. eigenvalues --   -0.50310  -0.49588  -0.47567  -0.38517  -0.29037
 Alpha virt. eigenvalues --    0.03270   0.03520   0.04204   0.04313   0.05485
 Alpha virt. eigenvalues --    0.06685   0.06896   0.07234   0.09812   0.10305
 Alpha virt. eigenvalues --    0.11240   0.12506   0.13311   0.13762   0.14489

 Mulliken charges:
               1
     1  C   -0.296303
     2  C   -0.651295
     3  C   -0.652454
     4  C    0.312680
     5  C    0.150581
     6  C   -0.247270
     7  C    0.881726
     8  H    0.228231
     9  H    0.139783
    10  H    0.117312
    11  H    0.138143
    12  H    0.247548
    13  H    0.215544
    14  H   -0.342086
    15  H   -0.242139
 Sum of Mulliken charges =  -0.00000

 Dipole moment (field-independent basis, Debye):
    X=             -0.3296    Y=              1.8465    Z=             -0.0197  Tot=              1.8757

 Test job not archived.
 1\1\GINC-SE232\SP\RHF\Aug-CC-pVDZ\C7H8\OHZDE\09-Apr-2025\0\\#t hf aug-
 cc-pvdz iop(5/13=1,5/36=2,99/5=2) pseudo=read geom=check guess=(read,t
 check) scf=(maxcycle=1)\\title\\0,1\C,0,-0.25954196,-1.32424762,1.4509
 786\C,0,-0.56982084,-0.05811195,0.65637926\C,0,0.68296617,0.88766508,0
 .52283201\C,0,0.84325786,1.07540617,-0.94020378\C,0,0.83313472,1.11478
 271,-2.24413013\C,0,-0.17892165,0.31166966,-1.64050528\C,0,-0.9837699,
 -0.32938112,-0.79693419\H,0,0.5477168,-1.88761833,0.97566128\H,0,0.036
 27428,-1.09381216,2.47810141\H,0,-1.13570463,-1.97404737,1.49685075\H,

 Normal termination of Gaussian 16 at Wed Apr  9 17:22:39 2025.
