 Gaussian 16, Revision C.01,

 ----------------------------------------------------------------------
 #t hf aug-cc-pvdz symm=none int=(grid=ultrafine) guess=(read,tcheck) s
 table=(opt,rrhf)
 ----------------------------------------------------------------------
 -----
 title
 -----
 Symbolic Z-matrix:
 Charge =  0 Multiplicity = 1

 SCF Done:  E(RHF) =  -245.668506708     A.U. after   15 cycles
 Normal termination of Gaussian 16 at Wed Apr  9 16:29:41 2025.
 Gaussian 16:  ES64L-G16RevC.01  3-Jul-2019

 ----------------------------------------------------------------------
 #t hf aug-cc-pvdz iop(5/13=1,5/36=2,99/5=2) pseudo=read geom=check gue
 ss=(read,tcheck) scf=(maxcycle=1)
 ----------------------------------------------------------------------
 -----
 title
 -----
 Structure from the checkpoint file:  "Grambow2020_wb97xd3_006124_forward_mol1.chk"
 Charge =  0 Multiplicity = 1

                         Standard orientation:
 ---------------------------------------------------------------------
 Center     Atomic      Atomic             Coordinates (Angstroms)
 Number     Number       Type             X           Y           Z
 ---------------------------------------------------------------------
      1          6           0       -0.513857    0.965774   -0.292769
      2          6           0       -1.147425   -0.250635    0.288491
      3          7           0       -0.065800   -1.144131   -0.244940
      4          6           0        1.029466   -0.463414    0.127962
      5          8           0        0.822765    0.819154    0.121882
      6          1           0       -0.239517   -0.395075   -1.230613
      7          1           0       -0.848006    1.987548   -0.154772
      8          1           0       -1.190827   -0.298450    1.388981
      9          1           0       -2.101314   -0.528801   -0.149075
     10          1           0        2.049040   -0.819888    0.142898
 ---------------------------------------------------------------------

 SCF Done:  E(RHF) =  -245.920772416     A.U. after    2 cycles

 The electronic state is 1-A.
 Alpha  occ. eigenvalues --  -20.64200 -15.52517 -11.37219 -11.27750 -11.27054
 Alpha  occ. eigenvalues --   -1.59021  -1.25298  -1.03689  -0.87859  -0.80942
 Alpha  occ. eigenvalues --   -0.76695  -0.74421  -0.64067  -0.61256  -0.57320
 Alpha  occ. eigenvalues --   -0.55590  -0.52499  -0.46508  -0.31139
 Alpha virt. eigenvalues --    0.03567   0.04418   0.05032   0.05136   0.06943
 Alpha virt. eigenvalues --    0.07311   0.09116   0.10411   0.11589   0.12702
 Alpha virt. eigenvalues --    0.14443   0.15266   0.15636   0.16691   0.17344

 Mulliken charges:
               1
     1  C    0.479880
     2  C   -0.412993
     3  N    0.157263
     4  C    0.366056
     5  O   -1.108496
     6  H    0.526578
     7  H   -0.111707
     8  H    0.016395
     9  H    0.084570
    10  H    0.002455
 Sum of Mulliken charges =  -0.00000

 Dipole moment (field-independent basis, Debye):
    X=              0.6000    Y=              0.4924    Z=              1.0947  Tot=              1.3420

 Test job not archived.
 1\1\GINC-SE037\SP\RHF\Aug-CC-pVDZ\C3H5N1O1\OHZDE\09-Apr-2025\0\\#t hf
 aug-cc-pvdz iop(5/13=1,5/36=2,99/5=2) pseudo=read geom=check guess=(re
 ad,tcheck) scf=(maxcycle=1)\\title\\0,1\C,0,-0.70903413,-0.75444676,-0
 .17654455\C,0,-0.69646878,0.6931071,0.17466947\N,0,0.69175633,0.607392
 44,0.73883431\C,0,1.32027966,-0.06216125,-0.24029585\O,0,0.52593892,-0
 .90073871,-0.83489905\H,0,0.2022598,-0.4483712,1.19552808\H,0,-1.49373
 057,-1.27419366,-0.71397884\H,0,-0.73521692,1.39961789,-0.67066456\H,0
 ,-1.39184548,0.98521224,0.95561099\H,0,2.38566117,-0.17954709,-0.37449

 Normal termination of Gaussian 16 at Wed Apr  9 16:29:44 2025.
