 Gaussian 16, Revision C.01,

 ----------------------------------------------------------------------
 #t hf aug-cc-pvdz symm=none int=(grid=ultrafine) guess=(read,tcheck) s
 table=(opt,rrhf)
 ----------------------------------------------------------------------
 -----
 title
 -----
 Symbolic Z-matrix:
 Charge =  0 Multiplicity = 1

 SCF Done:  E(RHF) =  -304.558879505     A.U. after   16 cycles
 Normal termination of Gaussian 16 at Wed Apr  9 15:56:42 2025.
 Gaussian 16:  ES64L-G16RevC.01  3-Jul-2019

 ----------------------------------------------------------------------
 #t hf aug-cc-pvdz iop(5/13=1,5/36=2,99/5=2) pseudo=read geom=check gue
 ss=(read,tcheck) scf=(maxcycle=1)
 ----------------------------------------------------------------------
 -----
 title
 -----
 Structure from the checkpoint file:  "Grambow2020_b97d3_007027_reverse_mol2.chk"
 Charge =  0 Multiplicity = 1

                         Standard orientation:
 ---------------------------------------------------------------------
 Center     Atomic      Atomic             Coordinates (Angstroms)
 Number     Number       Type             X           Y           Z
 ---------------------------------------------------------------------
      1          8           0       -1.522276   -1.383450    0.133031
      2          6           0       -1.163475    0.490716   -0.688613
      3          6           0       -0.799071    1.316540    0.494392
      4          6           0        0.318647    0.763840   -0.370670
      5          6           0        1.212746   -0.218080    0.288676
      6          8           0        2.343896   -0.496799   -0.078196
      7          1           0       -2.454278   -1.192499   -0.093847
      8          1           0       -1.179281   -1.803158   -0.682073
      9          1           0       -1.075329    2.373618    0.453027
     10          1           0       -0.837749    0.886243    1.499554
     11          1           0        0.808786    1.360656   -1.143002
     12          1           0        0.751813   -0.700969    1.184947
 ---------------------------------------------------------------------

 SCF Done:  E(RHF) =  -304.865299953     A.U. after    2 cycles

 The electronic state is 1-A.
 Alpha  occ. eigenvalues --  -20.61374 -20.54326 -11.34906 -11.31016 -11.26630
 Alpha  occ. eigenvalues --  -11.26199  -1.48971  -1.46378  -1.17127  -0.92398
 Alpha  occ. eigenvalues --   -0.81874  -0.75993  -0.74980  -0.67106  -0.65046
 Alpha  occ. eigenvalues --   -0.63226  -0.60256  -0.57516  -0.53952  -0.50900
 Alpha  occ. eigenvalues --   -0.45289  -0.41857  -0.36910
 Alpha virt. eigenvalues --    0.02949   0.03638   0.04249   0.05002   0.06291
 Alpha virt. eigenvalues --    0.07374   0.07574   0.10045   0.10895   0.11271
 Alpha virt. eigenvalues --    0.12668   0.13634   0.15148   0.15444   0.15663

 Mulliken charges:
               1
     1  O   -0.895918
     2  C   -0.044352
     3  C    0.112585
     4  C    0.440378
     5  C    0.660863
     6  O   -1.158988
     7  H    0.477681
     8  H    0.489828
     9  H   -0.092716
    10  H   -0.002405
    11  H   -0.158910
    12  H    0.171954
 Sum of Mulliken charges =   0.00000

 Dipole moment (field-independent basis, Debye):
    X=             -3.5272    Y=              0.1207    Z=              0.8859  Tot=              3.6388

 Test job not archived.
 1\1\GINC-SE026\SP\RHF\Aug-CC-pVDZ\C4H6O2\OHZDE\09-Apr-2025\0\\#t hf au
 g-cc-pvdz iop(5/13=1,5/36=2,99/5=2) pseudo=read geom=check guess=(read
 ,tcheck) scf=(maxcycle=1)\\title\\0,1\O,0,-1.74035837,0.73341342,0.449
 91093\C,0,-0.71054982,-0.62436634,-0.73847676\C,0,0.41626351,0.1832153
 9,-1.27919744\C,0,0.68157803,-0.71599222,-0.08582532\C,0,1.04789731,-0
 .02026907,1.17119351\O,0,1.63988905,-0.52947396,2.11036159\H,0,-2.4257
 0084,0.6669721,-0.24467914\H,0,-1.97936045,0.00982762,1.06431783\H,0,0
 .77080408,-0.08465087,-2.27819279\H,0,0.48542898,1.25182551,-1.0549441

 Normal termination of Gaussian 16 at Wed Apr  9 15:56:46 2025.
