 Gaussian 16, Revision C.01,

 ----------------------------------------------------------------------
 #t hf aug-cc-pvdz symm=none int=(grid=ultrafine) guess=(read,tcheck) s
 table=(opt,rrhf)
 ----------------------------------------------------------------------
 -----
 title
 -----
 Symbolic Z-matrix:
 Charge =  0 Multiplicity = 1

 SCF Done:  E(RHF) =  -283.561633312     A.U. after   16 cycles
 Normal termination of Gaussian 16 at Wed Apr  9 15:43:39 2025.
 Gaussian 16:  ES64L-G16RevC.01  3-Jul-2019

 ----------------------------------------------------------------------
 #t hf aug-cc-pvdz iop(5/13=1,5/36=2,99/5=2) pseudo=read geom=check gue
 ss=(read,tcheck) scf=(maxcycle=1)
 ----------------------------------------------------------------------
 -----
 title
 -----
 Structure from the checkpoint file:  "Grambow2020_b97d3_006724_forward_mol1.chk"
 Charge =  0 Multiplicity = 1

                         Standard orientation:
 ---------------------------------------------------------------------
 Center     Atomic      Atomic             Coordinates (Angstroms)
 Number     Number       Type             X           Y           Z
 ---------------------------------------------------------------------
      1          6           0        1.687149   -0.160206    0.588705
      2          6           0        0.743991   -0.577228   -0.441444
      3          8           0       -0.568694   -1.169298   -0.097334
      4          6           0       -1.366864   -0.119567    0.207844
      5          7           0       -0.921445    1.083225    0.081357
      6          6           0        0.448799    0.952527   -0.332871
      7          1           0        1.185052   -0.264299    1.572247
      8          1           0        1.229677    1.297790    0.485718
      9          1           0        1.077487   -1.015206   -1.381777
     10          1           0       -2.357115   -0.382846    0.574438
     11          1           0        0.786112    1.563217   -1.174855
 ---------------------------------------------------------------------

 SCF Done:  E(RHF) =  -283.845905352     A.U. after    2 cycles

 The electronic state is 1-A.
 Alpha  occ. eigenvalues --  -20.60471 -15.51532 -11.36786 -11.32804 -11.32122
 Alpha  occ. eigenvalues --  -11.27872  -1.53145  -1.25217  -1.12765  -0.91304
 Alpha  occ. eigenvalues --   -0.88262  -0.80165  -0.74481  -0.66851  -0.64672
 Alpha  occ. eigenvalues --   -0.61298  -0.59890  -0.58385  -0.52563  -0.47479
 Alpha  occ. eigenvalues --   -0.42781  -0.37656
 Alpha virt. eigenvalues --    0.03450   0.04030   0.04747   0.05066   0.07093
 Alpha virt. eigenvalues --    0.08327   0.08901   0.09162   0.10551   0.12664
 Alpha virt. eigenvalues --    0.13423   0.14258   0.14680   0.15201   0.15553

 Mulliken charges:
               1
     1  C   -0.398378
     2  C    1.315364
     3  O   -1.307980
     4  C    0.251769
     5  N    0.724823
     6  C   -1.276967
     7  H    0.209044
     8  H    0.396907
     9  H    0.028648
    10  H    0.031911
    11  H    0.024859
 Sum of Mulliken charges =  -0.00000

 Dipole moment (field-independent basis, Debye):
    X=             -1.0468    Y=             -0.9290    Z=             -0.5510  Tot=              1.5042

 Test job not archived.
 1\1\GINC-SE220\SP\RHF\Aug-CC-pVDZ\C4H5N1O1\OHZDE\09-Apr-2025\0\\#t hf
 aug-cc-pvdz iop(5/13=1,5/36=2,99/5=2) pseudo=read geom=check guess=(re
 ad,tcheck) scf=(maxcycle=1)\\title\\0,1\C,0,-1.47934528,0.40331258,-0.
 54262216\C,0,-0.34500287,-0.47785138,-0.79057254\O,0,1.00199002,0.0579
 3189,-1.09164972\C,0,1.52909825,0.39825109,0.10771857\N,0,0.87482869,0
 .14958909,1.18994099\C,0,-0.37564733,-0.42144336,0.76986245\H,0,-1.100
 5415,1.44534428,-0.51148099\H,0,-1.31029557,0.27411066,0.97407389\H,0,
 -0.45834249,-1.42542757,-1.31642635\H,0,2.49481381,0.8979804,0.0633523

 Normal termination of Gaussian 16 at Wed Apr  9 15:43:43 2025.
