 Gaussian 16, Revision C.01,

 ----------------------------------------------------------------------
 #t hf aug-cc-pvdz symm=none int=(grid=ultrafine) guess=(read,tcheck) s
 table=(opt,rrhf)
 ----------------------------------------------------------------------
 -----
 title
 -----
 Symbolic Z-matrix:
 Charge =  0 Multiplicity = 1

 SCF Done:  E(RHF) =  -286.749831023     A.U. after   17 cycles
 Normal termination of Gaussian 16 at Wed Apr  9 18:13:26 2025.
 Gaussian 16:  ES64L-G16RevC.01  3-Jul-2019

 ----------------------------------------------------------------------
 #t hf aug-cc-pvdz iop(5/13=1,5/36=2,99/5=2) pseudo=read geom=check gue
 ss=(read,tcheck) scf=(maxcycle=1)
 ----------------------------------------------------------------------
 -----
 title
 -----
 Structure from the checkpoint file:  "Grambow2020_wb97xd3_007189_forward_mol1.chk"
 Charge =  0 Multiplicity = 1

                         Standard orientation:
 ---------------------------------------------------------------------
 Center     Atomic      Atomic             Coordinates (Angstroms)
 Number     Number       Type             X           Y           Z
 ---------------------------------------------------------------------
      1          6           0       -1.754167   -0.880898    0.603855
      2          6           0       -1.211160   -0.149304   -0.460044
      3          6           0       -0.981670    1.246340   -0.231922
      4          6           0        0.318264    1.307221    0.162760
      5          6           0        0.854415   -0.026604    0.110335
      6          6           0        2.308674   -0.360894    0.205563
      7          7           0        0.023268   -0.700038   -0.824528
      8          1           0       -0.250842   -0.581967    1.188980
      9          1           0       -2.575909   -0.468672    1.180765
     10          1           0       -1.724817   -1.967740    0.581348
     11          1           0       -1.751610    1.989146   -0.088752
     12          1           0        0.837551    2.153695    0.588483
     13          1           0        2.848314   -0.046987   -0.690943
     14          1           0        2.745831    0.147766    1.064976
     15          1           0        2.456847   -1.434004    0.337107
     16          1           0        0.045619   -1.706143   -0.733552
 ---------------------------------------------------------------------

 SCF Done:  E(RHF) =  -287.057978747     A.U. after    2 cycles

 The electronic state is 1-A.
 Alpha  occ. eigenvalues --  -15.51217 -11.28754 -11.26984 -11.25452 -11.24114
 Alpha  occ. eigenvalues --  -11.23782 -11.23438  -1.29533  -1.06873  -1.04785
 Alpha  occ. eigenvalues --   -0.97638  -0.86895  -0.80797  -0.76645  -0.68557
 Alpha  occ. eigenvalues --   -0.66192  -0.62091  -0.61261  -0.58495  -0.57506
 Alpha  occ. eigenvalues --   -0.53506  -0.52853  -0.51779  -0.42192  -0.35629
 Alpha  occ. eigenvalues --   -0.31228
 Alpha virt. eigenvalues --    0.03538   0.03872   0.04014   0.04700   0.05114
 Alpha virt. eigenvalues --    0.05360   0.07117   0.07313   0.08279   0.09474
 Alpha virt. eigenvalues --    0.10701   0.11255   0.12127   0.13008   0.14111

 Mulliken charges:
               1
     1  C    0.254022
     2  C   -1.200365
     3  C    0.483446
     4  C    0.570055
     5  C   -1.411373
     6  C   -0.503519
     7  N    0.725305
     8  H    0.600686
     9  H   -0.109983
    10  H   -0.080266
    11  H   -0.127557
    12  H   -0.173831
    13  H    0.286047
    14  H    0.203271
    15  H    0.143399
    16  H    0.340663
 Sum of Mulliken charges =  -0.00000

 Dipole moment (field-independent basis, Debye):
    X=              0.5937    Y=             -0.3358    Z=              1.3961  Tot=              1.5538

 Test job not archived.
 1\1\GINC-SE029\SP\RHF\Aug-CC-pVDZ\C6H9N1\OHZDE\09-Apr-2025\0\\#t hf au
 g-cc-pvdz iop(5/13=1,5/36=2,99/5=2) pseudo=read geom=check guess=(read
 ,tcheck) scf=(maxcycle=1)\\title\\0,1\C,0,-2.03171194,-0.36810448,0.30
 615139\C,0,-1.2809737,0.22352023,-0.71773274\C,0,-0.77787976,1.5416974
 ,-0.46907379\C,0,0.47823952,1.3314357,0.00764833\C,0,0.72402015,-0.085
 70553,-0.01675745\C,0,2.06644984,-0.71739039,0.1691015\N,0,-0.16955208
 ,-0.57762604,-1.00561178\H,0,-0.53910001,-0.3867144,0.98694456\H,0,-2.
 78305579,0.21276189,0.83159731\H,0,-2.23029084,-1.43698487,0.28055169\

 Normal termination of Gaussian 16 at Wed Apr  9 18:13:31 2025.
