 Gaussian 16, Revision C.01,

 ----------------------------------------------------------------------
 #t hf aug-cc-pvdz symm=none int=(grid=ultrafine) guess=(read,tcheck) s
 table=(opt,rrhf)
 ----------------------------------------------------------------------
 -----
 title
 -----
 Symbolic Z-matrix:
 Charge =  0 Multiplicity = 1

 SCF Done:  E(RHF) =  -359.609243338     A.U. after   16 cycles
 Normal termination of Gaussian 16 at Wed Apr  9 18:18:19 2025.
 Gaussian 16:  ES64L-G16RevC.01  3-Jul-2019

 ----------------------------------------------------------------------
 #t hf aug-cc-pvdz iop(5/13=1,5/36=2,99/5=2) pseudo=read geom=check gue
 ss=(read,tcheck) scf=(maxcycle=1)
 ----------------------------------------------------------------------
 -----
 title
 -----
 Structure from the checkpoint file:  "Grambow2020_wb97xd3_007294_reverse_mol1.chk"
 Charge =  0 Multiplicity = 1

                         Standard orientation:
 ---------------------------------------------------------------------
 Center     Atomic      Atomic             Coordinates (Angstroms)
 Number     Number       Type             X           Y           Z
 ---------------------------------------------------------------------
      1          8           0        0.424295    1.645606   -0.763576
      2          6           0        0.211149    0.895671    0.442386
      3          6           0       -1.241969    0.722030    0.688327
      4          7           0       -1.557824   -0.571836   -0.230930
      5          6           0       -0.342183   -1.339457   -0.455469
      6          6           0        0.779557   -0.494126    0.144141
      7          8           0        1.901196   -0.878592    0.326019
      8          1           0        1.371971    1.714623   -0.913046
      9          1           0        0.718934    1.359219    1.291574
     10          1           0       -1.503794    0.501637    1.719716
     11          1           0       -1.820538    0.489371   -0.557161
     12          1           0       -2.367364   -1.074346    0.094191
     13          1           0       -0.147618   -1.537259   -1.510514
     14          1           0       -0.390069   -2.291216    0.075891
 ---------------------------------------------------------------------

 SCF Done:  E(RHF) =  -359.976107217     A.U. after    2 cycles

 The electronic state is 1-A.
 Alpha  occ. eigenvalues --  -20.55669 -20.55385 -15.56454 -11.34837 -11.30032
 Alpha  occ. eigenvalues --  -11.29781 -11.23126  -1.49360  -1.45455  -1.27567
 Alpha  occ. eigenvalues --   -1.03483  -1.01547  -0.83755  -0.79560  -0.75875
 Alpha  occ. eigenvalues --   -0.72856  -0.69727  -0.65063  -0.64001  -0.62107
 Alpha  occ. eigenvalues --   -0.58525  -0.54079  -0.51736  -0.50157  -0.47681
 Alpha  occ. eigenvalues --   -0.41164  -0.32254
 Alpha virt. eigenvalues --    0.02530   0.04298   0.04499   0.04889   0.05652
 Alpha virt. eigenvalues --    0.06329   0.07147   0.08526   0.09798   0.12017
 Alpha virt. eigenvalues --    0.12950   0.13380   0.14124   0.14597   0.14864

 Mulliken charges:
               1
     1  O   -1.286815
     2  C    0.960502
     3  C   -0.507568
     4  N    0.201156
     5  C   -0.576083
     6  C    1.094173
     7  O   -1.402914
     8  H    0.308268
     9  H    0.151192
    10  H   -0.125347
    11  H    0.537514
    12  H    0.251096
    13  H    0.217862
    14  H    0.176964
 Sum of Mulliken charges =  -0.00000

 Dipole moment (field-independent basis, Debye):
    X=             -1.6470    Y=             -2.4065    Z=             -0.0680  Tot=              2.9169

 Test job not archived.
 1\1\GINC-SE232\SP\RHF\Aug-CC-pVDZ\C4H7N1O2\OHZDE\09-Apr-2025\0\\#t hf
 aug-cc-pvdz iop(5/13=1,5/36=2,99/5=2) pseudo=read geom=check guess=(re
 ad,tcheck) scf=(maxcycle=1)\\title\\0,1\O,0,1.9644035,-0.14177603,-0.5
 8939109\C,0,0.95411307,0.0730698,0.40827243\C,0,0.22273047,1.33486979,
 0.13417081\N,0,-0.87591217,0.82730002,-0.9401867\C,0,-1.09049808,-0.60
 538927,-0.80308009\C,0,-0.04359471,-1.0704407,0.20693824\O,0,-0.028215
 4,-2.15239432,0.72472942\H,0,2.39888026,-0.97966312,-0.40400056\H,0,1.
 38107749,0.05595304,1.4138826\H,0,-0.28696324,1.75930674,0.99495844\H,

 Normal termination of Gaussian 16 at Wed Apr  9 18:18:23 2025.
