 Gaussian 16, Revision C.01,

 ----------------------------------------------------------------------
 #t hf aug-cc-pvdz symm=none int=(grid=ultrafine) guess=(read,tcheck) s
 table=(opt,rrhf)
 ----------------------------------------------------------------------
 -----
 title
 -----
 Symbolic Z-matrix:
 Charge =  0 Multiplicity = 1

 SCF Done:  E(RHF) =  -321.399603073     A.U. after   17 cycles
 Normal termination of Gaussian 16 at Wed Apr  9 03:40:45 2025.
 Gaussian 16:  ES64L-G16RevC.01  3-Jul-2019

 ----------------------------------------------------------------------
 #t hf aug-cc-pvdz iop(5/13=1,5/36=2,99/5=2) pseudo=read geom=check gue
 ss=(read,tcheck) scf=(maxcycle=1)
 ----------------------------------------------------------------------
 -----
 title
 -----
 Structure from the checkpoint file:  "Grambow2020_wb97xd3_007494_reverse_mol1.chk"
 Charge =  0 Multiplicity = 1

                         Standard orientation:
 ---------------------------------------------------------------------
 Center     Atomic      Atomic             Coordinates (Angstroms)
 Number     Number       Type             X           Y           Z
 ---------------------------------------------------------------------
      1          8           0       -1.207883    1.727131    0.239929
      2          6           0       -0.515471    0.752259    0.015219
      3          6           0       -1.156000   -0.579471   -0.053143
      4          6           0       -1.759904   -1.610746   -0.144149
      5          6           0        0.886694    0.842151   -0.298488
      6          6           0        1.554141   -0.788386    0.708902
      7          7           0        1.675005   -0.284847   -0.521022
      8          1           0       -2.310946   -2.519165   -0.216176
      9          1           0        1.293480    1.833112   -0.472027
     10          1           0        1.191625   -1.796533    0.892201
     11          1           0        1.965217   -0.220209    1.529226
     12          1           0        1.741896   -0.815164   -1.375545
 ---------------------------------------------------------------------

 SCF Done:  E(RHF) =  -321.726478140     A.U. after    2 cycles

 The electronic state is 1-A.
 Alpha  occ. eigenvalues --  -20.50241 -15.57479 -11.35150 -11.34406 -11.27925
 Alpha  occ. eigenvalues --  -11.25523 -11.25126  -1.44503  -1.31958  -1.05601
 Alpha  occ. eigenvalues --   -0.99155  -0.94424  -0.85871  -0.78325  -0.73776
 Alpha  occ. eigenvalues --   -0.71384  -0.68610  -0.63594  -0.60832  -0.54845
 Alpha  occ. eigenvalues --   -0.49295  -0.43159  -0.41568  -0.40251  -0.32354
 Alpha virt. eigenvalues --    0.01978   0.03152   0.03556   0.04428   0.05155
 Alpha virt. eigenvalues --    0.06072   0.09055   0.09588   0.10061   0.10302
 Alpha virt. eigenvalues --    0.11516   0.12740   0.13349   0.13945   0.14910

 Mulliken charges:
               1
     1  O   -1.484970
     2  C    1.371273
     3  C    0.273783
     4  C    0.212510
     5  C   -1.015444
     6  C   -0.044759
     7  N    0.892966
     8  H   -0.374800
     9  H   -0.135693
    10  H    0.044661
    11  H    0.070792
    12  H    0.189681
 Sum of Mulliken charges =  -0.00000

 Dipole moment (field-independent basis, Debye):
    X=              3.7257    Y=             -4.8552    Z=             -0.3808  Tot=              6.1318

 Test job not archived.
 1\1\GINC-SE322\SP\RHF\Aug-CC-pVDZ\C5H5N1O1\OHZDE\09-Apr-2025\0\\#t hf
 aug-cc-pvdz iop(5/13=1,5/36=2,99/5=2) pseudo=read geom=check guess=(re
 ad,tcheck) scf=(maxcycle=1)\\title\\0,1\O,0,1.57879055,1.92720335,0.48
 6365\C,0,0.81587184,0.98659064,0.3701417\C,0,1.37125638,-0.38395046,0.
 32985453\C,0,1.89751986,-1.46039062,0.35873546\C,0,-0.6162701,1.132945
 57,0.38053175\C,0,-1.09756961,-0.24275581,-1.0318306\N,0,-1.47787354,0
 .0509554,0.21314972\H,0,2.38151393,-2.40872225,0.38055317\H,0,-1.01313
 733,2.10882916,0.64080569\H,0,-0.74218343,-1.230318,-1.31431471\H,0,-1

 Normal termination of Gaussian 16 at Wed Apr  9 03:40:50 2025.
