 Gaussian 16, Revision C.01,

 ----------------------------------------------------------------------
 #t hf aug-cc-pvdz symm=none int=(grid=ultrafine) guess=(read,tcheck) s
 table=(opt,rrhf)
 ----------------------------------------------------------------------
 -----
 title
 -----
 Symbolic Z-matrix:
 Charge =  0 Multiplicity = 1

 SCF Done:  E(RHF) =  -332.313153920     A.U. after   20 cycles
 Normal termination of Gaussian 16 at Wed Apr  9 19:15:41 2025.
 Gaussian 16:  ES64L-G16RevC.01  3-Jul-2019

 ----------------------------------------------------------------------
 #t hf aug-cc-pvdz iop(5/13=1,5/36=2,99/5=2) pseudo=read geom=check gue
 ss=(read,tcheck) scf=(maxcycle=1)
 ----------------------------------------------------------------------
 -----
 title
 -----
 Structure from the checkpoint file:  "Grambow2020_wb97xd3_009005_forward_mol1.chk"
 Charge =  0 Multiplicity = 1

                         Standard orientation:
 ---------------------------------------------------------------------
 Center     Atomic      Atomic             Coordinates (Angstroms)
 Number     Number       Type             X           Y           Z
 ---------------------------------------------------------------------
      1          7           0        2.269296   -0.003187   -0.487770
      2          6           0        1.217661   -0.162388    0.020573
      3          6           0        0.125994   -1.161127    0.568710
      4          6           0        0.259878    0.935057    0.484866
      5          7           0       -0.932257    1.001949   -0.064111
      6          7           0       -1.640145   -0.080920   -0.419532
      7          7           0       -0.972130   -1.115552   -0.039437
      8          1           0        0.726357    1.841095    0.840738
      9          1           0       -1.420910    1.873623   -0.209675
 ---------------------------------------------------------------------

 SCF Done:  E(RHF) =  -332.636846623     A.U. after    2 cycles

 The electronic state is 1-A.
 Alpha  occ. eigenvalues --  -15.67347 -15.62410 -15.60428 -15.52466 -11.37693
 Alpha  occ. eigenvalues --  -11.34280 -11.32862  -1.48670  -1.31378  -1.25601
 Alpha  occ. eigenvalues --   -1.16889  -1.00924  -0.95348  -0.85465  -0.77919
 Alpha  occ. eigenvalues --   -0.73682  -0.66961  -0.64380  -0.61711  -0.55652
 Alpha  occ. eigenvalues --   -0.55483  -0.51997  -0.40193  -0.38323
 Alpha virt. eigenvalues --   -0.02150   0.01505   0.03489   0.04325   0.07763
 Alpha virt. eigenvalues --    0.08216   0.09315   0.09574   0.09959   0.10771
 Alpha virt. eigenvalues --    0.12111   0.13122   0.14047   0.14848   0.15366

 Mulliken charges:
               1
     1  N    0.930245
     2  C   -1.166035
     3  C   -0.481623
     4  C   -0.132907
     5  N    0.550485
     6  N   -0.148018
     7  N    0.310947
     8  H   -0.000300
     9  H    0.137205
 Sum of Mulliken charges =  -0.00000

 Dipole moment (field-independent basis, Debye):
    X=             -2.5578    Y=              4.4199    Z=              1.8652  Tot=              5.4366

 Test job not archived.
 1\1\GINC-SE222\SP\RHF\Aug-CC-pVDZ\C3H2N4\OHZDE\09-Apr-2025\0\\#t hf au
 g-cc-pvdz iop(5/13=1,5/36=2,99/5=2) pseudo=read geom=check guess=(read
 ,tcheck) scf=(maxcycle=1)\\title\\0,1\N,0,2.28012602,-0.73770001,0.187
 30472\C,0,1.35759688,-0.04137245,-0.04456103\C,0,0.74149653,1.41101507
 ,-0.07030452\C,0,0.0062829,-0.48408048,-0.60604258\N,0,-1.07107672,-0.
 28536215,0.11979664\N,0,-1.24723913,0.79620655,0.89388298\N,0,-0.23791
 643,1.57372172,0.69915755\H,0,0.03562311,-1.32301855,-1.28462649\H,0,-
 1.86489317,-0.90940971,0.10539175\\Version=ES64L-G16RevC.01\State=1-A\

 Normal termination of Gaussian 16 at Wed Apr  9 19:15:44 2025.
