 Gaussian 16, Revision C.01,

 ----------------------------------------------------------------------
 #t hf aug-cc-pvdz symm=none int=(grid=ultrafine) guess=(read,tcheck) s
 table=(opt,rrhf)
 ----------------------------------------------------------------------
 -----
 title
 -----
 Symbolic Z-matrix:
 Charge =  0 Multiplicity = 1

 SCF Done:  E(RHF) =  -307.713454541     A.U. after   15 cycles

 1\1\GINC-SE247\Stability\RHF\Aug-CC-pVDZ\C6H10O1\OHZDE\09-Apr-2025\0\\
 #t hf aug-cc-pvdz symm=none int=(grid=ultrafine) guess=(read,tcheck) s
 table=(opt,rrhf)\\title\\0,1\C,0,1.81405413,0.34806998,-0.66636419\C,0
 ,0.5339038,0.28664931,0.11885433\C,0,0.06755848,-1.12749181,0.58188036
 \C,0,-1.20535963,-0.99215281,-0.2946104\C,0,-0.83148355,0.45705476,-0.
 59007093\C,0,-0.89804768,1.52418898,1.18018151\O,0,0.48539598,1.307071
 28,1.08989684\H,0,2.66126413,0.12701052,-0.01419797\H,0,1.80077777,-0.
 38591132,-1.47504543\H,0,1.95129193,1.34242165,-1.09267588\H,0,0.74369

 Normal termination of Gaussian 16 at Wed Apr  9 03:34:08 2025.
 Gaussian 16:  ES64L-G16RevC.01  3-Jul-2019

 ----------------------------------------------------------------------
 #t hf aug-cc-pvdz iop(5/13=1,5/36=2,99/5=2) pseudo=read geom=check gue
 ss=(read,tcheck) scf=(maxcycle=1)
 ----------------------------------------------------------------------
 -----
 title
 -----
 Structure from the checkpoint file:  "Grambow2020_wb97xd3_007030_reverse_mol1.chk"
 Charge =  0 Multiplicity = 1

                         Standard orientation:
 ---------------------------------------------------------------------
 Center     Atomic      Atomic             Coordinates (Angstroms)
 Number     Number       Type             X           Y           Z
 ---------------------------------------------------------------------
      1          6           0       -1.760340   -0.878028    0.287373
      2          6           0       -0.506968   -0.126311   -0.063491
      3          6           0        0.514801   -0.864902   -0.981171
      4          6           0        1.561414   -0.834508    0.163622
      5          6           0        0.622651    0.048163    0.980261
      6          6           0        0.390229    1.848685   -0.010245
      7          8           0       -0.796093    1.210591   -0.403545
      8          1           0       -2.399908   -0.966066   -0.593056
      9          1           0       -1.516399   -1.883163    0.638182
     10          1           0       -2.311734   -0.354143    1.068923
     11          1           0        0.196037   -1.857154   -1.297732
     12          1           0        0.786928   -0.288925   -1.863890
     13          1           0        2.542068   -0.424486   -0.075122
     14          1           0        1.708767   -1.806910    0.639020
     15          1           0        0.472033   -0.128539    2.048202
     16          1           0        1.200571    1.546624   -0.697896
     17          1           0        0.759660    1.319438    1.103639
 ---------------------------------------------------------------------

 SCF Done:  E(RHF) =  -308.037292472     A.U. after    2 cycles

 The electronic state is 1-A.
 Alpha  occ. eigenvalues --  -20.54919 -11.30697 -11.29540 -11.28066 -11.25475
 Alpha  occ. eigenvalues --  -11.24181 -11.23493  -1.48706  -1.15079  -1.01751
 Alpha  occ. eigenvalues --   -0.95256  -0.87689  -0.86125  -0.74068  -0.70372
 Alpha  occ. eigenvalues --   -0.65991  -0.64925  -0.59630  -0.59199  -0.58533
 Alpha  occ. eigenvalues --   -0.55432  -0.51873  -0.50530  -0.50089  -0.45300
 Alpha  occ. eigenvalues --   -0.42649  -0.32257
 Alpha virt. eigenvalues --    0.02961   0.03458   0.03557   0.04558   0.05558
 Alpha virt. eigenvalues --    0.06222   0.06610   0.06897   0.07249   0.09871
 Alpha virt. eigenvalues --    0.10710   0.11047   0.12563   0.13747   0.14042

 Mulliken charges:
               1
     1  C   -0.356402
     2  C    0.754821
     3  C    0.167504
     4  C    0.145756
     5  C   -0.529154
     6  C   -0.241249
     7  O   -1.493390
     8  H    0.255440
     9  H    0.250802
    10  H    0.232458
    11  H    0.002977
    12  H    0.079573
    13  H    0.017463
    14  H    0.084881
    15  H   -0.128277
    16  H    0.177524
    17  H    0.579272
 Sum of Mulliken charges =   0.00000

 Dipole moment (field-independent basis, Debye):
    X=              1.2169    Y=             -3.8557    Z=              0.6204  Tot=              4.0904

 Test job not archived.
 1\1\GINC-SE247\SP\RHF\Aug-CC-pVDZ\C6H10O1\OHZDE\09-Apr-2025\0\\#t hf a
 ug-cc-pvdz iop(5/13=1,5/36=2,99/5=2) pseudo=read geom=check guess=(rea
 d,tcheck) scf=(maxcycle=1)\\title\\0,1\C,0,1.81405413,0.34806998,-0.66
 636419\C,0,0.5339038,0.28664931,0.11885433\C,0,0.06755848,-1.12749181,
 0.58188036\C,0,-1.20535963,-0.99215281,-0.2946104\C,0,-0.83148355,0.45
 705476,-0.59007093\C,0,-0.89804768,1.52418898,1.18018151\O,0,0.4853959
 8,1.30707128,1.08989684\H,0,2.66126413,0.12701052,-0.01419797\H,0,1.80
 077777,-0.38591132,-1.47504543\H,0,1.95129193,1.34242165,-1.09267588\H

 Normal termination of Gaussian 16 at Wed Apr  9 03:34:15 2025.
