 Gaussian 16, Revision C.01,

 ----------------------------------------------------------------------
 #t hf aug-cc-pvdz symm=none int=(grid=ultrafine) guess=(read,tcheck) s
 table=(opt,rrhf)
 ----------------------------------------------------------------------
 -----
 title
 -----
 Symbolic Z-matrix:
 Charge =  0 Multiplicity = 1

 SCF Done:  E(RHF) =  -343.647360721     A.U. after   14 cycles
 Normal termination of Gaussian 16 at Wed Apr  9 03:28:19 2025.
 Gaussian 16:  ES64L-G16RevC.01  3-Jul-2019

 ----------------------------------------------------------------------
 #t hf aug-cc-pvdz iop(5/13=1,5/36=2,99/5=2) pseudo=read geom=check gue
 ss=(read,tcheck) scf=(maxcycle=1)
 ----------------------------------------------------------------------
 -----
 title
 -----
 Structure from the checkpoint file:  "Grambow2020_wb97xd3_006686_reverse_mol2.chk"
 Charge =  0 Multiplicity = 1

                         Standard orientation:
 ---------------------------------------------------------------------
 Center     Atomic      Atomic             Coordinates (Angstroms)
 Number     Number       Type             X           Y           Z
 ---------------------------------------------------------------------
      1          6           0        2.182492   -0.382684   -0.790108
      2          6           0        1.070711   -0.251451   -0.072687
      3          8           0        0.920346   -0.704001    1.199742
      4          6           0       -0.159273    0.401059   -0.564401
      5          6           0       -1.090670    1.173733    0.431783
      6          6           0       -1.504226   -0.083792   -0.174596
      7          8           0       -2.329617   -0.928470   -0.300338
      8          1           0        1.926743    2.579590    0.192272
      9          1           0        3.056757   -0.886385   -0.395496
     10          1           0        2.234828    0.004739   -1.796470
     11          1           0        1.723368   -1.148363    1.480427
     12          1           0        1.736588    3.286092    0.337862
     13          1           0       -0.077735    0.829807   -1.556358
     14          1           0       -0.800076    1.146695    1.475752
     15          1           0       -1.520506    2.106405    0.086828
 ---------------------------------------------------------------------

 SCF Done:  E(RHF) =  -343.999764835     A.U. after    2 cycles

 The electronic state is 1-A.
 Alpha  occ. eigenvalues --  -20.59378 -20.55971 -11.35921 -11.32842 -11.27072
 Alpha  occ. eigenvalues --  -11.26445 -11.23155  -1.51395  -1.49225  -1.17807
 Alpha  occ. eigenvalues --   -1.05072  -0.90026  -0.82456  -0.77260  -0.70723
 Alpha  occ. eigenvalues --   -0.69300  -0.67255  -0.63148  -0.61305  -0.59630
 Alpha  occ. eigenvalues --   -0.58811  -0.56361  -0.55311  -0.52126  -0.48364
 Alpha  occ. eigenvalues --   -0.40095  -0.34902
 Alpha virt. eigenvalues --    0.03023   0.03467   0.03831   0.05382   0.05756
 Alpha virt. eigenvalues --    0.06469   0.08086   0.08404   0.09095   0.11001
 Alpha virt. eigenvalues --    0.11417   0.12246   0.12711   0.13525   0.13858

 Mulliken charges:
               1
     1  C   -0.197280
     2  C    1.753553
     3  O   -1.650327
     4  C    0.264850
     5  C   -0.026895
     6  C    1.130455
     7  O   -1.219647
     8  H   -0.020602
     9  H   -0.222553
    10  H   -0.127376
    11  H    0.403693
    12  H    0.046553
    13  H   -0.162103
    14  H    0.048965
    15  H   -0.021285
 Sum of Mulliken charges =  -0.00000

 Dipole moment (field-independent basis, Debye):
    X=              2.8221    Y=              1.8748    Z=              0.3290  Tot=              3.4040

 Test job not archived.
 1\1\GINC-SE396\SP\RHF\Aug-CC-pVDZ\C5H8O2\OHZDE\09-Apr-2025\0\\#t hf au
 g-cc-pvdz iop(5/13=1,5/36=2,99/5=2) pseudo=read geom=check guess=(read
 ,tcheck) scf=(maxcycle=1)\\title\\0,1\C,0,-1.99546732,-0.11432777,-0.4
 9995199\C,0,-0.71207914,0.22403737,-0.5799102\O,0,-0.2612193,1.4235617
 1,-1.03196663\C,0,0.40323836,-0.66283006,-0.1926823\C,0,1.72233082,-0.
 05465217,0.39640323\C,0,1.68971924,-0.65852028,-0.92812416\O,0,2.26586
 399,-0.96077204,-1.92173489\H,0,-0.90904272,0.51497061,2.36870803\H,0,
 -2.78159994,0.56200856,-0.81354017\H,0,-2.28450556,-1.08528393,-0.1267

 Normal termination of Gaussian 16 at Wed Apr  9 03:28:24 2025.
