 Gaussian 16, Revision C.01,

 ----------------------------------------------------------------------
 #t hf aug-cc-pvdz symm=none int=(grid=ultrafine) guess=(read,tcheck) s
 table=(opt,rrhf)
 ----------------------------------------------------------------------
 -----
 title
 -----
 Symbolic Z-matrix:
 Charge =  0 Multiplicity = 1

 SCF Done:  E(RHF) =  -342.366446283     A.U. after   15 cycles
 Normal termination of Gaussian 16 at Wed Apr  9 19:13:56 2025.
 Gaussian 16:  ES64L-G16RevC.01  3-Jul-2019

 ----------------------------------------------------------------------
 #t hf aug-cc-pvdz iop(5/13=1,5/36=2,99/5=2) pseudo=read geom=check gue
 ss=(read,tcheck) scf=(maxcycle=1)
 ----------------------------------------------------------------------
 -----
 title
 -----
 Structure from the checkpoint file:  "Grambow2020_wb97xd3_008952_reverse_mol1.chk"
 Charge =  0 Multiplicity = 1

                         Standard orientation:
 ---------------------------------------------------------------------
 Center     Atomic      Atomic             Coordinates (Angstroms)
 Number     Number       Type             X           Y           Z
 ---------------------------------------------------------------------
      1          8           0        2.445121   -0.112909    0.117516
      2          6           0        1.263150    0.011298    0.011368
      3          6           0        0.245204   -1.079440   -0.326414
      4          6           0       -0.724183    0.464031   -0.650340
      5          6           0       -1.428387   -0.653260    0.501400
      6          8           0       -2.032658    0.398288   -0.114460
      7          6           0        0.343143    1.205373    0.156270
      8          1           0        0.316487   -1.863357    0.440272
      9          1           0        0.350897   -1.551496   -1.299493
     10          1           0       -1.888948   -1.612640    0.286417
     11          1           0       -1.111619   -0.486970    1.528379
     12          1           0        0.691630    2.107025   -0.346171
     13          1           0        0.148285    1.436393    1.212443
 ---------------------------------------------------------------------

 SCF Done:  E(RHF) =  -342.707825994     A.U. after    2 cycles

 The electronic state is 1-A.
 Alpha  occ. eigenvalues --  -20.59439 -20.55777 -11.36978 -11.36059 -11.31134
 Alpha  occ. eigenvalues --  -11.31041 -11.25601  -1.54628  -1.49673  -1.13911
 Alpha  occ. eigenvalues --   -0.99951  -0.91819  -0.83246  -0.76279  -0.73425
 Alpha  occ. eigenvalues --   -0.68839  -0.66995  -0.65903  -0.63728  -0.59382
 Alpha  occ. eigenvalues --   -0.56627  -0.52175  -0.50703  -0.46866  -0.42140
 Alpha  occ. eigenvalues --   -0.33575
 Alpha virt. eigenvalues --    0.02541   0.03606   0.04313   0.04818   0.05960
 Alpha virt. eigenvalues --    0.06740   0.08714   0.09061   0.10217   0.11555
 Alpha virt. eigenvalues --    0.12730   0.13272   0.13971   0.14235   0.14807

 Mulliken charges:
               1
     1  O   -1.296044
     2  C    1.285730
     3  C   -0.428902
     4  C    0.508345
     5  C    0.557867
     6  O   -1.170958
     7  C   -0.301620
     8  H    0.221251
     9  H    0.095086
    10  H    0.021914
    11  H    0.160004
    12  H    0.139099
    13  H    0.208227
 Sum of Mulliken charges =  -0.00000

 Dipole moment (field-independent basis, Debye):
    X=             -1.7277    Y=             -1.8048    Z=              2.0264  Tot=              3.2169

 Test job not archived.
 1\1\GINC-SE220\SP\RHF\Aug-CC-pVDZ\C5H6O2\OHZDE\09-Apr-2025\0\\#t hf au
 g-cc-pvdz iop(5/13=1,5/36=2,99/5=2) pseudo=read geom=check guess=(read
 ,tcheck) scf=(maxcycle=1)\\title\\0,1\O,0,-2.45796344,-0.42994506,0.54
 983188\C,0,-1.34614955,-0.2936521,0.13868325\C,0,-0.4890409,0.97226388
 ,0.19199665\C,0,0.39892849,-0.03937929,-1.07884208\C,0,1.35764936,0.47
 528179,0.29473917\O,0,1.8013474,-0.03115635,-0.88713751\C,0,-0.3882564
 8,-1.24078167,-0.55313469\H,0,-0.37153836,1.26188678,1.24543175\H,0,-0
 .86800946,1.83315583,-0.35218873\H,0,1.71551854,1.47844282,0.5053172\H

 Normal termination of Gaussian 16 at Wed Apr  9 19:14:00 2025.
