 Gaussian 16, Revision C.01,

 ----------------------------------------------------------------------
 #t hf aug-cc-pvdz symm=none int=(grid=ultrafine) guess=(read,tcheck) s
 table=(opt,rrhf)
 ----------------------------------------------------------------------
 -----
 title
 -----
 Symbolic Z-matrix:
 Charge =  0 Multiplicity = 1

 SCF Done:  E(RHF) =  -324.863137765     A.U. after   15 cycles
 Normal termination of Gaussian 16 at Wed Apr  9 04:05:59 2025.
 Gaussian 16:  ES64L-G16RevC.01  3-Jul-2019

 ----------------------------------------------------------------------
 #t hf aug-cc-pvdz iop(5/13=1,5/36=2,99/5=2) pseudo=read geom=check gue
 ss=(read,tcheck) scf=(maxcycle=1)
 ----------------------------------------------------------------------
 -----
 title
 -----
 Structure from the checkpoint file:  "Grambow2020_wb97xd3_009234_forward_mol1.chk"
 Charge =  0 Multiplicity = 1

                         Standard orientation:
 ---------------------------------------------------------------------
 Center     Atomic      Atomic             Coordinates (Angstroms)
 Number     Number       Type             X           Y           Z
 ---------------------------------------------------------------------
      1          6           0        2.770184   -0.417260   -0.062291
      2          8           0        1.778494    0.532250    0.235264
      3          6           0        0.568232    0.230387   -0.346735
      4          6           0       -0.360086   -0.916431    0.113810
      5          7           0       -1.393369   -0.061617   -0.135996
      6          6           0       -2.812242   -0.247898   -0.005251
      7          6           0       -0.652918    1.073834   -0.039160
      8          1           0        3.695822   -0.072665    0.395479
      9          1           0        2.922459   -0.512927   -1.145877
     10          1           0        2.511674   -1.401369    0.346369
     11          1           0        0.658361    0.143662   -1.440109
     12          1           0       -0.392786   -1.974246   -0.118109
     13          1           0       -0.162512   -0.185007    1.701525
     14          1           0       -3.097549   -0.182748    1.047965
     15          1           0       -3.091288   -1.224808   -0.396885
     16          1           0       -3.335311    0.525788   -0.566355
     17          1           0       -0.290586    0.665514    1.645262
     18          1           0       -0.971673    2.056325   -0.361638
 ---------------------------------------------------------------------

 SCF Done:  E(RHF) =  -325.209018019     A.U. after    2 cycles

 The electronic state is 1-A.
 Alpha  occ. eigenvalues --  -20.54272 -15.56147 -11.29620 -11.28493 -11.27852
 Alpha  occ. eigenvalues --  -11.26376 -11.26001  -1.47452  -1.32943  -1.07143
 Alpha  occ. eigenvalues --   -0.95518  -0.93069  -0.87542  -0.75885  -0.71866
 Alpha  occ. eigenvalues --   -0.70804  -0.67786  -0.64844  -0.61998  -0.61726
 Alpha  occ. eigenvalues --   -0.58273  -0.56363  -0.52191  -0.51784  -0.47332
 Alpha  occ. eigenvalues --   -0.42973  -0.41088  -0.28342
 Alpha virt. eigenvalues --    0.03216   0.03916   0.04245   0.04928   0.05290
 Alpha virt. eigenvalues --    0.05714   0.06020   0.07208   0.08551   0.08937
 Alpha virt. eigenvalues --    0.09652   0.10151   0.11235   0.13530   0.14377

 Mulliken charges:
               1
     1  C    0.094623
     2  O   -1.463114
     3  C    1.325114
     4  C   -0.812572
     5  N    0.871893
     6  C   -0.138960
     7  C   -0.528610
     8  H   -0.025698
     9  H    0.192782
    10  H    0.183606
    11  H    0.103986
    12  H   -0.308943
    13  H    0.139321
    14  H    0.193988
    15  H    0.121935
    16  H    0.127943
    17  H    0.188960
    18  H   -0.266251
 Sum of Mulliken charges =   0.00000

 Dipole moment (field-independent basis, Debye):
    X=             -1.5736    Y=             -1.2322    Z=             -2.2193  Tot=              2.9866

 Test job not archived.
 1\1\GINC-SE366\SP\RHF\Aug-CC-pVDZ\C5H11N1O1\OHZDE\09-Apr-2025\0\\#t hf
  aug-cc-pvdz iop(5/13=1,5/36=2,99/5=2) pseudo=read geom=check guess=(r
 ead,tcheck) scf=(maxcycle=1)\\title\\0,1\C,0,2.84779182,0.39835306,-0.
 04920246\O,0,1.67363797,0.91010199,-0.62629358\C,0,0.64034419,0.000864
 46,-0.61323089\C,0,-0.13848706,-0.41743105,0.65464752\N,0,-1.25043871,
 -0.41659868,-0.13550824\C,0,-2.61893905,-0.72366597,0.17740198\C,0,-0.
 74034693,0.41466061,-1.08192775\H,0,3.61658465,1.16276195,-0.14790363\
 H,0,3.18334593,-0.51302453,-0.56232132\H,0,2.70061485,0.17164246,1.013

 Normal termination of Gaussian 16 at Wed Apr  9 04:06:05 2025.
