 Gaussian 16, Revision C.01,

 ----------------------------------------------------------------------
 #t hf aug-cc-pvdz symm=none int=(grid=ultrafine) guess=(read,tcheck) s
 table=(opt,rrhf)
 ----------------------------------------------------------------------
 -----
 title
 -----
 Symbolic Z-matrix:
 Charge =  0 Multiplicity = 1

 SCF Done:  E(RHF) =  -320.550079060     A.U. after   16 cycles
 Normal termination of Gaussian 16 at Wed Apr  9 16:09:43 2025.
 Gaussian 16:  ES64L-G16RevC.01  3-Jul-2019

 ----------------------------------------------------------------------
 #t hf aug-cc-pvdz iop(5/13=1,5/36=2,99/5=2) pseudo=read geom=check gue
 ss=(read,tcheck) scf=(maxcycle=1)
 ----------------------------------------------------------------------
 -----
 title
 -----
 Structure from the checkpoint file:  "Grambow2020_b97d3_007134_forward_mol1.chk"
 Charge =  0 Multiplicity = 1

                         Standard orientation:
 ---------------------------------------------------------------------
 Center     Atomic      Atomic             Coordinates (Angstroms)
 Number     Number       Type             X           Y           Z
 ---------------------------------------------------------------------
      1          8           0       -1.169307   -1.436285   -0.409794
      2          6           0       -0.925041   -0.383732    0.060975
      3          7           0       -1.035120    0.825027    0.500121
      4          6           0       -0.120995    1.460137   -0.423191
      5          6           0        1.647473   -0.109045   -0.363347
      6          8           0        1.310375   -0.667339    0.699433
      7          1           0       -1.335114    1.085664    1.448149
      8          1           0       -0.635396    1.951278   -1.251612
      9          1           0        0.642042    2.057173    0.075731
     10          1           0        2.428224    0.682400   -0.375068
     11          1           0        1.408913   -0.526872   -1.361784
 ---------------------------------------------------------------------

 SCF Done:  E(RHF) =  -320.869800066     A.U. after    2 cycles

 The electronic state is 1-A.
 Alpha  occ. eigenvalues --  -20.64429 -20.51604 -15.60609 -11.48599 -11.34231
 Alpha  occ. eigenvalues --  -11.24104  -1.57560  -1.43655  -1.33601  -0.94219
 Alpha  occ. eigenvalues --   -0.89906  -0.85537  -0.76526  -0.71322  -0.69300
 Alpha  occ. eigenvalues --   -0.65867  -0.61154  -0.60615  -0.58871  -0.50369
 Alpha  occ. eigenvalues --   -0.48857  -0.40329  -0.31283
 Alpha virt. eigenvalues --    0.02565   0.04375   0.04958   0.05250   0.07251
 Alpha virt. eigenvalues --    0.08119   0.09181   0.10374   0.10876   0.12239
 Alpha virt. eigenvalues --    0.12915   0.13366   0.14146   0.14420   0.15891

 Mulliken charges:
               1
     1  O   -0.838391
     2  C    0.540234
     3  N    0.712450
     4  C   -0.566546
     5  C    0.624435
     6  O   -1.014761
     7  H    0.228112
     8  H   -0.056923
     9  H    0.096180
    10  H    0.088598
    11  H    0.186613
 Sum of Mulliken charges =  -0.00000

 Dipole moment (field-independent basis, Debye):
    X=             -1.3221    Y=              2.0041    Z=              0.2185  Tot=              2.4108

 Test job not archived.
 1\1\GINC-SE037\SP\RHF\Aug-CC-pVDZ\C3H5N1O2\OHZDE\09-Apr-2025\0\\#t hf
 aug-cc-pvdz iop(5/13=1,5/36=2,99/5=2) pseudo=read geom=check guess=(re
 ad,tcheck) scf=(maxcycle=1)\\title\\0,1\O,0,1.98576625,0.00124833,-1.2
 5972017\C,0,1.33983017,-0.32195091,-0.32834136\N,0,0.8039433,-1.017484
 83,0.6177679\C,0,-0.57335418,-0.91645999,0.18842002\C,0,-0.64854695,1.
 38668732,-0.3437926\O,0,0.37015067,1.71672902,0.29507924\H,0,1.2176919
 5,-1.17280536,1.54586929\H,0,-0.91044872,-1.80341948,-0.35174695\H,0,-
 1.24007742,-0.56432166,0.97523544\H,0,-1.66501132,1.51335545,0.0884691

 Normal termination of Gaussian 16 at Wed Apr  9 16:09:47 2025.
