 Gaussian 16, Revision C.01,

 ----------------------------------------------------------------------
 #t hf aug-cc-pvdz symm=none int=(grid=ultrafine) guess=(read,tcheck) s
 table=(opt,rrhf)
 ----------------------------------------------------------------------
 -----
 title
 -----
 Symbolic Z-matrix:
 Charge =  0 Multiplicity = 1

 SCF Done:  E(RHF) =  -307.659394452     A.U. after   17 cycles

 1\1\GINC-SE045\Stability\RHF\Aug-CC-pVDZ\C6H10O1\OHZDE\09-Apr-2025\0\\
 #t hf aug-cc-pvdz symm=none int=(grid=ultrafine) guess=(read,tcheck) s
 table=(opt,rrhf)\\title\\0,1\C,0,-2.04281785,0.26494077,-0.15200838\C,
 0,-0.55347907,0.09185649,0.00234478\C,0,0.402643,0.22145924,-1.1880223
 2\C,0,1.61517279,0.26772849,-0.29317011\O,0,2.57276025,-0.63559763,-0.
 51566929\C,0,0.09539914,-1.09355519,0.62225192\C,0,0.25918568,0.768609
 5,1.07079031\H,0,-2.43931421,-0.45216144,-0.87502359\H,0,-2.54622938,0
 .09555825,0.80273176\H,0,-2.2941528,1.27199561,-0.49405397\H,0,0.31404

 Normal termination of Gaussian 16 at Wed Apr  9 18:46:56 2025.
 Gaussian 16:  ES64L-G16RevC.01  3-Jul-2019

 ----------------------------------------------------------------------
 #t hf aug-cc-pvdz iop(5/13=1,5/36=2,99/5=2) pseudo=read geom=check gue
 ss=(read,tcheck) scf=(maxcycle=1)
 ----------------------------------------------------------------------
 -----
 title
 -----
 Structure from the checkpoint file:  "Grambow2020_wb97xd3_008046_reverse_mol1.chk"
 Charge =  0 Multiplicity = 1

                         Standard orientation:
 ---------------------------------------------------------------------
 Center     Atomic      Atomic             Coordinates (Angstroms)
 Number     Number       Type             X           Y           Z
 ---------------------------------------------------------------------
      1          6           0       -2.342802   -0.379964    0.110026
      2          6           0       -0.875970   -0.046535    0.014408
      3          6           0        0.191127   -1.134463   -0.145766
      4          6           0        1.259770   -0.127792   -0.488906
      5          8           0        2.364905   -0.131515    0.260186
      6          6           0       -0.136193    0.782908    1.001972
      7          6           0       -0.317820    1.009537   -0.898376
      8          1           0       -2.530365   -1.045705    0.956078
      9          1           0       -2.930423    0.529028    0.258611
     10          1           0       -2.700566   -0.870424   -0.798697
     11          1           0        0.032303   -1.818061   -0.985287
     12          1           0        0.332849   -1.710257    0.778833
     13          1           0        3.032297    0.403592   -0.177431
     14          1           0       -0.528928    1.750256    1.296299
     15          1           0        0.546004    0.323088    1.709984
     16          1           0       -0.728470    2.006250   -0.729033
     17          1           0       -0.112618    0.862202   -1.950999
 ---------------------------------------------------------------------

 SCF Done:  E(RHF) =  -307.983532619     A.U. after    2 cycles

 The electronic state is 1-A.
 Alpha  occ. eigenvalues --  -20.57856 -11.28600 -11.28007 -11.25276 -11.25111
 Alpha  occ. eigenvalues --  -11.22740 -11.22440  -1.49500  -1.17122  -0.97996
 Alpha  occ. eigenvalues --   -0.95172  -0.87895  -0.81807  -0.74207  -0.68512
 Alpha  occ. eigenvalues --   -0.65471  -0.63187  -0.61474  -0.57854  -0.56741
 Alpha  occ. eigenvalues --   -0.54995  -0.51994  -0.51488  -0.47283  -0.45977
 Alpha  occ. eigenvalues --   -0.38878  -0.26210
 Alpha virt. eigenvalues --    0.03407   0.03478   0.03787   0.04242   0.05828
 Alpha virt. eigenvalues --    0.06324   0.06502   0.07081   0.07390   0.09455
 Alpha virt. eigenvalues --    0.09727   0.11086   0.12246   0.13375   0.13616

 Mulliken charges:
               1
     1  C   -0.547521
     2  C   -0.115403
     3  C   -0.315114
     4  C    1.063729
     5  O   -1.246201
     6  C    0.213047
     7  C    0.250402
     8  H    0.266461
     9  H    0.225515
    10  H    0.238793
    11  H    0.088925
    12  H    0.050875
    13  H    0.309483
    14  H   -0.179065
    15  H   -0.106127
    16  H   -0.102895
    17  H   -0.094904
 Sum of Mulliken charges =   0.00000

 Dipole moment (field-independent basis, Debye):
    X=             -0.4439    Y=              0.7207    Z=             -0.2652  Tot=              0.8870

 Test job not archived.
 1\1\GINC-SE045\SP\RHF\Aug-CC-pVDZ\C6H10O1\OHZDE\09-Apr-2025\0\\#t hf a
 ug-cc-pvdz iop(5/13=1,5/36=2,99/5=2) pseudo=read geom=check guess=(rea
 d,tcheck) scf=(maxcycle=1)\\title\\0,1\C,0,-2.04281785,0.26494077,-0.1
 5200838\C,0,-0.55347907,0.09185649,0.00234478\C,0,0.402643,0.22145924,
 -1.18802232\C,0,1.61517279,0.26772849,-0.29317011\O,0,2.57276025,-0.63
 559763,-0.51566929\C,0,0.09539914,-1.09355519,0.62225192\C,0,0.2591856
 8,0.7686095,1.07079031\H,0,-2.43931421,-0.45216144,-0.87502359\H,0,-2.
 54622938,0.09555825,0.80273176\H,0,-2.2941528,1.27199561,-0.49405397\H

 Normal termination of Gaussian 16 at Wed Apr  9 18:47:02 2025.
