 Gaussian 16, Revision C.01,

 ----------------------------------------------------------------------
 #t hf aug-cc-pvdz symm=none int=(grid=ultrafine) guess=(read,tcheck) s
 table=(opt,rrhf)
 ----------------------------------------------------------------------
 -----
 title
 -----
 Symbolic Z-matrix:
 Charge =  0 Multiplicity = 1

 SCF Done:  E(RHF) =  -283.454498776     A.U. after   18 cycles
 Normal termination of Gaussian 16 at Wed Apr  9 16:12:42 2025.
 Gaussian 16:  ES64L-G16RevC.01  3-Jul-2019

 ----------------------------------------------------------------------
 #t hf aug-cc-pvdz iop(5/13=1,5/36=2,99/5=2) pseudo=read geom=check gue
 ss=(read,tcheck) scf=(maxcycle=1)
 ----------------------------------------------------------------------
 -----
 title
 -----
 Structure from the checkpoint file:  "Grambow2020_b97d3_007167_forward_mol1.chk"
 Charge =  0 Multiplicity = 1

                         Standard orientation:
 ---------------------------------------------------------------------
 Center     Atomic      Atomic             Coordinates (Angstroms)
 Number     Number       Type             X           Y           Z
 ---------------------------------------------------------------------
      1          6           0       -0.827858    1.546876   -0.564613
      2          7           0        1.205951    0.769320    0.816724
      3          6           0        0.789985   -0.282534    0.077744
      4          8           0        1.487898   -1.001033   -0.634568
      5          6           0       -0.716564   -0.516281    0.104861
      6          6           0       -1.795897   -1.090537    0.285766
      7          1           0       -1.515849    1.865545    0.213603
      8          1           0       -1.263863    1.143597   -1.473085
      9          1           0        0.062076    2.150796   -0.699746
     10          1           0        0.455941    1.010875    1.481225
     11          1           0       -2.781144   -1.492938    0.414927
 ---------------------------------------------------------------------

 SCF Done:  E(RHF) =  -283.734988214     A.U. after    2 cycles

 The electronic state is 1-A.
 Alpha  occ. eigenvalues --  -20.48798 -15.47074 -11.41023 -11.35689 -11.31162
 Alpha  occ. eigenvalues --  -11.29574  -1.42626  -1.16522  -1.07779  -1.01749
 Alpha  occ. eigenvalues --   -0.84775  -0.76150  -0.71378  -0.69392  -0.69028
 Alpha  occ. eigenvalues --   -0.60790  -0.56637  -0.49139  -0.44473  -0.44152
 Alpha  occ. eigenvalues --   -0.40087  -0.35166
 Alpha virt. eigenvalues --   -0.05717   0.01731   0.03019   0.03566   0.05035
 Alpha virt. eigenvalues --    0.06189   0.08526   0.09140   0.10909   0.11462
 Alpha virt. eigenvalues --    0.11871   0.12993   0.13752   0.14386   0.14955

 Mulliken charges:
               1
     1  C   -0.236559
     2  N    0.297433
     3  C    0.248952
     4  O   -1.324837
     5  C    0.241720
     6  C    0.096035
     7  H    0.274824
     8  H    0.337288
     9  H    0.226299
    10  H    0.143111
    11  H   -0.304266
 Sum of Mulliken charges =  -0.00000

 Dipole moment (field-independent basis, Debye):
    X=             -9.2721    Y=              3.3102    Z=             -0.7451  Tot=              9.8734

 Test job not archived.
 1\1\GINC-SE174\SP\RHF\Aug-CC-pVDZ\C4H5N1O1\OHZDE\09-Apr-2025\0\\#t hf
 aug-cc-pvdz iop(5/13=1,5/36=2,99/5=2) pseudo=read geom=check guess=(re
 ad,tcheck) scf=(maxcycle=1)\\title\\0,1\C,0,-0.98907056,0.83597022,-0.
 45066759\N,0,-0.81478596,-1.67008938,0.13101694\C,0,0.06524434,-1.0085
 4877,0.91423196\O,0,0.18706127,-1.11394746,2.13274021\C,0,0.92142244,0
 .01487833,0.1762492\C,0,1.92904868,0.58155857,-0.26080757\H,0,-0.75319
 942,0.83446284,-1.51126351\H,0,-0.70477912,1.71679298,0.11624149\H,0,-
 1.92818339,0.37685692,-0.1638841\H,0,-0.51722608,-1.55966595,-0.849641

 Normal termination of Gaussian 16 at Wed Apr  9 16:12:46 2025.
