 Gaussian 16, Revision C.01,

 ----------------------------------------------------------------------
 #t hf aug-cc-pvdz symm=none int=(grid=ultrafine) guess=(read,tcheck) s
 table=(opt,rrhf)
 ----------------------------------------------------------------------
 -----
 title
 -----
 Symbolic Z-matrix:
 Charge =  0 Multiplicity = 1

 SCF Done:  E(RHF) =  -232.904263118     A.U. after   14 cycles
 Normal termination of Gaussian 16 at Wed Apr  9 03:15:07 2025.
 Gaussian 16:  ES64L-G16RevC.01  3-Jul-2019

 ----------------------------------------------------------------------
 #t hf aug-cc-pvdz iop(5/13=1,5/36=2,99/5=2) pseudo=read geom=check gue
 ss=(read,tcheck) scf=(maxcycle=1)
 ----------------------------------------------------------------------
 -----
 title
 -----
 Structure from the checkpoint file:  "Grambow2020_b97d3_006948_forward_mol1.chk"
 Charge =  0 Multiplicity = 1

                         Standard orientation:
 ---------------------------------------------------------------------
 Center     Atomic      Atomic             Coordinates (Angstroms)
 Number     Number       Type             X           Y           Z
 ---------------------------------------------------------------------
      1          6           0       -2.154694    0.003341    0.039174
      2          6           0       -0.694141    0.024215   -0.395062
      3          6           0        0.170942   -1.123051    0.092156
      4          6           0        1.519529   -0.720322   -0.077960
      5          6           0        1.548320    0.677669   -0.076270
      6          6           0        0.216826    1.152229    0.086152
      7          1           0       -2.687238    0.900118   -0.303913
      8          1           0       -2.235271   -0.057787    1.132585
      9          1           0       -2.658341   -0.876419   -0.388038
     10          1           0       -0.629586    0.005252   -1.498844
     11          1           0       -0.029257   -0.469473    1.501647
     12          1           0       -0.150804   -2.167366    0.041132
     13          1           0        2.383148   -1.382920   -0.029322
     14          1           0        2.450149    1.283416   -0.016309
     15          1           0       -0.015225    0.479724    1.498489
     16          1           0       -0.068275    2.200974    0.053438
 ---------------------------------------------------------------------

 SCF Done:  E(RHF) =  -233.159025271     A.U. after    2 cycles

 The electronic state is 1-A.
 Alpha  occ. eigenvalues --  -11.25828 -11.25643 -11.24746 -11.23751 -11.23578
 Alpha  occ. eigenvalues --  -11.22917  -1.17111  -1.01713  -0.95163  -0.89306
 Alpha  occ. eigenvalues --   -0.76413  -0.73360  -0.70711  -0.66285  -0.57640
 Alpha  occ. eigenvalues --   -0.55845  -0.55099  -0.54479  -0.51415  -0.48241
 Alpha  occ. eigenvalues --   -0.47951  -0.35841  -0.34068
 Alpha virt. eigenvalues --    0.03512   0.03569   0.03802   0.04509   0.05475
 Alpha virt. eigenvalues --    0.05855   0.07378   0.07989   0.08437   0.08901
 Alpha virt. eigenvalues --    0.11831   0.12360   0.12815   0.13731   0.13741

 Mulliken charges:
               1
     1  C   -0.161601
     2  C   -0.788822
     3  C   -0.358752
     4  C    0.389362
     5  C    0.383453
     6  C   -0.333008
     7  H    0.160976
     8  H    0.197846
     9  H    0.173615
    10  H    0.163899
    11  H    0.354751
    12  H   -0.145660
    13  H   -0.117968
    14  H   -0.115222
    15  H    0.346669
    16  H   -0.149537
 Sum of Mulliken charges =  -0.00000

 Dipole moment (field-independent basis, Debye):
    X=             -0.2442    Y=             -0.0308    Z=             -0.6449  Tot=              0.6903

 Test job not archived.
 1\1\GINC-SE459\SP\RHF\Aug-CC-pVDZ\C6H10\OHZDE\09-Apr-2025\0\\#t hf aug
 -cc-pvdz iop(5/13=1,5/36=2,99/5=2) pseudo=read geom=check guess=(read,
 tcheck) scf=(maxcycle=1)\\title\\0,1\C,0,1.9521554,-0.23049218,0.05054
 622\C,0,0.48024522,-0.26783247,0.44335665\C,0,-0.46340142,-0.93586067,
 -0.53910924\C,0,-1.77502485,-0.52553154,-0.19112784\C,0,-1.67238527,0.
 69205713,0.48869012\C,0,-0.29581762,1.04146144,0.57496277\H,0,2.548796
 63,0.32523282,0.78587612\H,0,2.08085665,0.2379225,-0.93423741\H,0,2.34
 917831,-1.25484123,-0.006282\H,0,0.35944422,-0.81250843,1.39813276\H,0

 Normal termination of Gaussian 16 at Wed Apr  9 03:15:12 2025.
