 Gaussian 16, Revision C.01,

 ----------------------------------------------------------------------
 #t hf aug-cc-pvdz symm=none int=(grid=ultrafine) guess=(read,tcheck) s
 table=(opt,rrhf)
 ----------------------------------------------------------------------
 -----
 title
 -----
 Symbolic Z-matrix:
 Charge =  0 Multiplicity = 1

 SCF Done:  E(RHF) =  -322.728270440     A.U. after   15 cycles
 Normal termination of Gaussian 16 at Wed Apr  9 03:33:22 2025.
 Gaussian 16:  ES64L-G16RevC.01  3-Jul-2019

 ----------------------------------------------------------------------
 #t hf aug-cc-pvdz iop(5/13=1,5/36=2,99/5=2) pseudo=read geom=check gue
 ss=(read,tcheck) scf=(maxcycle=1)
 ----------------------------------------------------------------------
 -----
 title
 -----
 Structure from the checkpoint file:  "Grambow2020_wb97xd3_007020_reverse_mol2.chk"
 Charge =  0 Multiplicity = 1

                         Standard orientation:
 ---------------------------------------------------------------------
 Center     Atomic      Atomic             Coordinates (Angstroms)
 Number     Number       Type             X           Y           Z
 ---------------------------------------------------------------------
      1          6           0       -2.009379   -0.290421   -0.344751
      2          6           0       -0.700242   -0.333088    0.432841
      3          6           0        0.225317   -1.523577    0.151827
      4          6           0        1.604471   -1.006071   -0.189912
      5          7           0        1.465168    0.308461   -0.193623
      6          6           0        0.182702    0.852065    0.107527
      7          8           0       -0.069746    2.019378    0.084573
      8          1           0       -2.657857   -1.115013   -0.046734
      9          1           0       -1.827154   -0.374122   -1.418372
     10          1           0       -2.535162    0.647268   -0.162200
     11          1           0       -0.917287   -0.257501    1.502619
     12          1           0        0.307594   -2.229846    0.979944
     13          1           0       -0.107519   -2.118603   -0.705099
     14          1           0        2.221967    0.940118   -0.416577
 ---------------------------------------------------------------------

 SCF Done:  E(RHF) =  -323.056887400     A.U. after    2 cycles

 The electronic state is 1-A.
 Alpha  occ. eigenvalues --  -20.55201 -15.56793 -11.37990 -11.27948 -11.26560
 Alpha  occ. eigenvalues --  -11.25064 -11.24752  -1.50344  -1.30448  -1.10613
 Alpha  occ. eigenvalues --   -0.99700  -0.93873  -0.85772  -0.81790  -0.70607
 Alpha  occ. eigenvalues --   -0.68367  -0.64235  -0.61298  -0.58464  -0.57701
 Alpha  occ. eigenvalues --   -0.56273  -0.53759  -0.53000  -0.47974  -0.45760
 Alpha  occ. eigenvalues --   -0.37045
 Alpha virt. eigenvalues --    0.03200   0.03952   0.04125   0.04459   0.06058
 Alpha virt. eigenvalues --    0.06345   0.07219   0.08786   0.09257   0.10452
 Alpha virt. eigenvalues --    0.11940   0.12212   0.13373   0.14013   0.14961

 Mulliken charges:
               1
     1  C   -0.060777
     2  C   -1.056030
     3  C    0.161213
     4  C   -0.694374
     5  N    0.776978
     6  C    0.847086
     7  O   -1.269103
     8  H    0.183123
     9  H    0.214028
    10  H    0.161739
    11  H    0.233428
    12  H    0.200689
    13  H    0.219356
    14  H    0.082645
 Sum of Mulliken charges =   0.00000

 Dipole moment (field-independent basis, Debye):
    X=             -1.6010    Y=             -1.3328    Z=              0.4816  Tot=              2.1381

 Test job not archived.
 1\1\GINC-SE461\SP\RHF\Aug-CC-pVDZ\C5H7N1O1\OHZDE\09-Apr-2025\0\\#t hf
 aug-cc-pvdz iop(5/13=1,5/36=2,99/5=2) pseudo=read geom=check guess=(re
 ad,tcheck) scf=(maxcycle=1)\\title\\0,1\C,0,-1.65971331,0.1522606,0.36
 379983\C,0,-0.34242765,0.24157819,-0.39586366\C,0,0.77392058,1.0623302
 5,0.26218164\C,0,2.02687042,0.21909087,0.33785883\N,0,1.65303379,-0.95
 889239,-0.13119731\C,0,0.30285913,-1.11749666,-0.55873624\O,0,-0.15626
 316,-2.14778927,-0.95190413\H,0,-2.14019716,1.13007713,0.41175539\H,0,
 -1.4964357,-0.19513587,1.38631181\H,0,-2.34030037,-0.54454882,-0.12639

 Normal termination of Gaussian 16 at Wed Apr  9 03:33:26 2025.
