 Gaussian 16, Revision C.01,

 ----------------------------------------------------------------------
 #t hf aug-cc-pvdz symm=none int=(grid=ultrafine) guess=(read,tcheck) s
 table=(opt,rrhf)
 ----------------------------------------------------------------------
 -----
 title
 -----
 Symbolic Z-matrix:
 Charge =  0 Multiplicity = 1

 SCF Done:  E(RHF) =  -281.275602491     A.U. after   15 cycles
 Normal termination of Gaussian 16 at Wed Apr  9 03:05:35 2025.
 Gaussian 16:  ES64L-G16RevC.01  3-Jul-2019

 ----------------------------------------------------------------------
 #t hf aug-cc-pvdz iop(5/13=1,5/36=2,99/5=2) pseudo=read geom=check gue
 ss=(read,tcheck) scf=(maxcycle=1)
 ----------------------------------------------------------------------
 -----
 title
 -----
 Structure from the checkpoint file:  "Grambow2020_b97d3_006501_reverse_mol2.chk"
 Charge =  0 Multiplicity = 1

                         Standard orientation:
 ---------------------------------------------------------------------
 Center     Atomic      Atomic             Coordinates (Angstroms)
 Number     Number       Type             X           Y           Z
 ---------------------------------------------------------------------
      1          8           0        0.282558    1.679435    0.000739
      2          6           0        0.106300    0.477182   -0.000760
      3          6           0       -1.178751   -0.175597   -0.001340
      4          6           0       -2.284166   -0.686779    0.000413
      5          6           0        2.136405   -1.158934    0.000772
      6          7           0        1.188165   -0.433293   -0.000523
      7          1           0       -3.256348   -1.137656    0.003239
 ---------------------------------------------------------------------

 SCF Done:  E(RHF) =  -281.538937734     A.U. after    2 cycles

 The electronic state is 1-A.
 Alpha  occ. eigenvalues --  -20.59822 -15.57496 -11.46198 -11.34859 -11.31479
 Alpha  occ. eigenvalues --  -11.30014  -1.52992  -1.30703  -1.10720  -1.02873
 Alpha  occ. eigenvalues --   -0.87695  -0.76490  -0.72014  -0.65576  -0.57404
 Alpha  occ. eigenvalues --   -0.54523  -0.53554  -0.50815  -0.45683  -0.45346
 Alpha virt. eigenvalues --    0.01704   0.02553   0.06913   0.07449   0.08629
 Alpha virt. eigenvalues --    0.08655   0.09119   0.09983   0.10153   0.11788
 Alpha virt. eigenvalues --    0.12868   0.13210   0.14236   0.15407   0.16057

 Mulliken charges:
               1
     1  O   -1.072903
     2  C    0.616289
     3  C    0.328844
     4  C    0.300642
     5  C   -0.437359
     6  N    0.558253
     7  H   -0.293766
 Sum of Mulliken charges =  -0.00000

 Dipole moment (field-independent basis, Debye):
    X=             -3.0100    Y=             -1.7150    Z=              0.0012  Tot=              3.4643

 Test job not archived.
 1\1\GINC-SE060\SP\RHF\Aug-CC-pVDZ\C4H1N1O1\OHZDE\09-Apr-2025\0\\#t hf
 aug-cc-pvdz iop(5/13=1,5/36=2,99/5=2) pseudo=read geom=check guess=(re
 ad,tcheck) scf=(maxcycle=1)\\title\\0,1\O,0,-1.00631684,-0.96859185,1.
 44800547\C,0,-0.63783537,-0.34323752,0.47351329\C,0,0.73401822,-0.0497
 9324,0.14277884\C,0,1.9058215,0.1780152,-0.09853371\C,0,-2.37304191,0.
 59919093,-1.2291582\N,0,-1.55626584,0.17882456,-0.46634402\H,0,2.93653
 124,0.38014392,-0.31117667\\Version=ES64L-G16RevC.01\State=1-A\HF=-281
 .5389377\RMSD=2.468e-02\Dipole=1.2760319,0.3098291,-0.3653\Quadrupole=

 Normal termination of Gaussian 16 at Wed Apr  9 03:05:37 2025.
