 Gaussian 16, Revision C.01,

 ----------------------------------------------------------------------
 #t hf aug-cc-pvdz symm=none int=(grid=ultrafine) guess=(read,tcheck) s
 table=(opt,rrhf)
 ----------------------------------------------------------------------
 -----
 title
 -----
 Symbolic Z-matrix:
 Charge =  0 Multiplicity = 1

 SCF Done:  E(RHF) =  -343.488170193     A.U. after   14 cycles
 Normal termination of Gaussian 16 at Wed Apr  9 04:04:50 2025.
 Gaussian 16:  ES64L-G16RevC.01  3-Jul-2019

 ----------------------------------------------------------------------
 #t hf aug-cc-pvdz iop(5/13=1,5/36=2,99/5=2) pseudo=read geom=check gue
 ss=(read,tcheck) scf=(maxcycle=1)
 ----------------------------------------------------------------------
 -----
 title
 -----
 Structure from the checkpoint file:  "Grambow2020_wb97xd3_009109_forward_mol1.chk"
 Charge =  0 Multiplicity = 1

                         Standard orientation:
 ---------------------------------------------------------------------
 Center     Atomic      Atomic             Coordinates (Angstroms)
 Number     Number       Type             X           Y           Z
 ---------------------------------------------------------------------
      1          6           0       -1.873409   -0.084456   -0.398234
      2          6           0       -0.853872   -0.703212    0.506594
      3          8           0        0.222795   -1.365559   -0.116776
      4          6           0        1.384898   -0.680926   -0.151478
      5          6           0        1.358372    0.726744    0.095832
      6          8           0        0.162911    1.315100   -0.402270
      7          6           0       -0.901228    0.787344    0.331225
      8          1           0       -1.706498   -0.200288   -1.460733
      9          1           0       -2.905593   -0.091700   -0.075723
     10          1           0       -1.156684   -1.168941    1.435729
     11          1           0        2.058797   -1.165773   -0.838839
     12          1           0        2.874242   -0.311445    0.510520
     13          1           0        1.545394    1.105597    1.096358
     14          1           0        2.763184    0.557318    0.026618
     15          1           0       -1.247068    1.405937    1.154807
 ---------------------------------------------------------------------

 SCF Done:  E(RHF) =  -343.838936014     A.U. after    2 cycles

 The electronic state is 1-A.
 Alpha  occ. eigenvalues --  -20.59879 -20.55803 -11.34850 -11.30989 -11.30678
 Alpha  occ. eigenvalues --  -11.30603 -11.24960  -1.53831  -1.47752  -1.16200
 Alpha  occ. eigenvalues --   -1.03873  -0.91040  -0.84818  -0.76499  -0.75578
 Alpha  occ. eigenvalues --   -0.74492  -0.69245  -0.64727  -0.61758  -0.57868
 Alpha  occ. eigenvalues --   -0.56883  -0.56008  -0.49848  -0.47077  -0.42228
 Alpha  occ. eigenvalues --   -0.41385  -0.33779
 Alpha virt. eigenvalues --    0.03176   0.03953   0.04119   0.04466   0.05911
 Alpha virt. eigenvalues --    0.06042   0.07158   0.08844   0.09112   0.10314
 Alpha virt. eigenvalues --    0.10950   0.12709   0.13214   0.13763   0.14294

 Mulliken charges:
               1
     1  C   -0.084793
     2  C    1.122344
     3  O   -1.458648
     4  C    0.617235
     5  C    0.280241
     6  O   -1.608488
     7  C    1.223526
     8  H   -0.105174
     9  H   -0.104269
    10  H   -0.124792
    11  H   -0.114854
    12  H    0.065791
    13  H    0.067134
    14  H    0.356977
    15  H   -0.132231
 Sum of Mulliken charges =  -0.00000

 Dipole moment (field-independent basis, Debye):
    X=             -1.6815    Y=             -0.6076    Z=              1.1639  Tot=              2.1334

 Test job not archived.
 1\1\GINC-SE150\SP\RHF\Aug-CC-pVDZ\C5H8O2\OHZDE\09-Apr-2025\0\\#t hf au
 g-cc-pvdz iop(5/13=1,5/36=2,99/5=2) pseudo=read geom=check guess=(read
 ,tcheck) scf=(maxcycle=1)\\title\\0,1\C,0,-1.84181787,-0.13757607,0.89
 6598\C,0,-1.18401949,0.10709146,-0.42569871\O,0,-0.36047799,1.24711564
 ,-0.51859798\C,0,0.96660158,1.01245795,-0.45374808\C,0,1.41558672,-0.2
 4928386,0.04607271\O,0,0.54904598,-0.73898321,1.06228963\C,0,-0.690006
 84,-0.99156111,0.47077711\H,0,-1.63800895,0.58459967,1.67576658\H,0,-2
 .83389406,-0.56798589,0.89520376\H,0,-1.70766807,-0.1131759,-1.3472010

 Normal termination of Gaussian 16 at Wed Apr  9 04:04:56 2025.
