 Gaussian 16, Revision C.01,

 ----------------------------------------------------------------------
 #t hf aug-cc-pvdz symm=none int=(grid=ultrafine) guess=(read,tcheck) s
 table=(opt,rrhf)
 ----------------------------------------------------------------------
 -----
 title
 -----
 Symbolic Z-matrix:
 Charge =  0 Multiplicity = 1

 SCF Done:  E(RHF) =  -270.741161853     A.U. after   15 cycles
 Normal termination of Gaussian 16 at Wed Apr  9 18:57:01 2025.
 Gaussian 16:  ES64L-G16RevC.01  3-Jul-2019

 ----------------------------------------------------------------------
 #t hf aug-cc-pvdz iop(5/13=1,5/36=2,99/5=2) pseudo=read geom=check gue
 ss=(read,tcheck) scf=(maxcycle=1)
 ----------------------------------------------------------------------
 -----
 title
 -----
 Structure from the checkpoint file:  "Grambow2020_wb97xd3_008380_forward_mol1.chk"
 Charge =  0 Multiplicity = 1

                         Standard orientation:
 ---------------------------------------------------------------------
 Center     Atomic      Atomic             Coordinates (Angstroms)
 Number     Number       Type             X           Y           Z
 ---------------------------------------------------------------------
      1          6           0        2.143412    0.224879    0.003499
      2          6           0        0.644276    0.096032   -0.004893
      3          6           0       -0.118931   -0.739169    1.065196
      4          6           0       -1.253290   -0.685587    0.016729
      5          6           0       -0.120914   -0.789335   -1.044208
      6          6           0       -1.457543    0.819244   -0.044544
      7          6           0       -0.179159    1.393175   -0.131207
      8          1           0        2.486905    0.745015   -0.892464
      9          1           0        2.470228    0.806913    0.867471
     10          1           0        2.629764   -0.752991    0.042756
     11          1           0       -0.302670   -0.283063    2.041292
     12          1           0        0.305950   -1.737308    1.184657
     13          1           0       -2.114343   -1.349704    0.041288
     14          1           0       -0.308965   -0.368419   -2.033140
     15          1           0        0.299221   -1.792659   -1.125361
     16          1           0       -2.394733    1.336296   -0.225456
     17          1           0       -1.018464    1.480480    0.935524
 ---------------------------------------------------------------------

 SCF Done:  E(RHF) =  -271.032078866     A.U. after    2 cycles

 The electronic state is 1-A.
 Alpha  occ. eigenvalues --  -11.27335 -11.25405 -11.24443 -11.24325 -11.24235
 Alpha  occ. eigenvalues --  -11.23543 -11.21671  -1.22726  -1.03491  -0.99271
 Alpha  occ. eigenvalues --   -0.91360  -0.87552  -0.77588  -0.69909  -0.66876
 Alpha  occ. eigenvalues --   -0.65687  -0.60366  -0.57572  -0.56934  -0.52153
 Alpha  occ. eigenvalues --   -0.50641  -0.48559  -0.46437  -0.45453  -0.42845
 Alpha  occ. eigenvalues --   -0.34348
 Alpha virt. eigenvalues --    0.02930   0.03476   0.03787   0.04226   0.05628
 Alpha virt. eigenvalues --    0.05903   0.06449   0.06841   0.07423   0.09354
 Alpha virt. eigenvalues --    0.10957   0.11707   0.12082   0.12426   0.12836

 Mulliken charges:
               1
     1  C   -0.408678
     2  C   -0.161674
     3  C   -0.066675
     4  C    0.389456
     5  C    0.045151
     6  C    0.215711
     7  C   -0.767620
     8  H    0.251623
     9  H    0.256823
    10  H    0.201567
    11  H   -0.054303
    12  H   -0.063197
    13  H   -0.170210
    14  H   -0.043636
    15  H   -0.041172
    16  H   -0.100322
    17  H    0.517156
 Sum of Mulliken charges =  -0.00000

 Dipole moment (field-independent basis, Debye):
    X=             -1.4337    Y=             -2.4334    Z=              0.6576  Tot=              2.8999

 Test job not archived.
 1\1\GINC-SE113\SP\RHF\Aug-CC-pVDZ\C7H10\OHZDE\09-Apr-2025\0\\#t hf aug
 -cc-pvdz iop(5/13=1,5/36=2,99/5=2) pseudo=read geom=check guess=(read,
 tcheck) scf=(maxcycle=1)\\title\\0,1\C,0,2.0591493,-0.13083477,-0.0045
 4652\C,0,0.5680966,0.0700146,-0.02698333\C,0,-0.38018462,-0.6717905,0.
 96075274\C,0,-1.45351135,-0.27988972,-0.08006668\C,0,-0.34784383,-0.53
 174654,-1.14434782\C,0,-1.32658306,1.23271517,-0.00321857\C,0,0.047137
 43,1.52091769,-0.03490014\H,0,2.52595054,0.38024286,-0.84845136\H,0,2.
 4854028,0.28686161,0.90970578\H,0,2.32187654,-1.19045101,-0.05451095\H

 Normal termination of Gaussian 16 at Wed Apr  9 18:57:07 2025.
