 Gaussian 16, Revision C.01,

 ----------------------------------------------------------------------
 #t hf aug-cc-pvdz symm=none int=(grid=ultrafine) guess=(read,tcheck) s
 table=(opt,rrhf)
 ----------------------------------------------------------------------
 -----
 title
 -----
 Symbolic Z-matrix:
 Charge =  0 Multiplicity = 1

 SCF Done:  E(RHF) =  -302.688658100     A.U. after   17 cycles
 Normal termination of Gaussian 16 at Wed Apr  9 18:15:21 2025.
 Gaussian 16:  ES64L-G16RevC.01  3-Jul-2019

 ----------------------------------------------------------------------
 #t hf aug-cc-pvdz iop(5/13=1,5/36=2,99/5=2) pseudo=read geom=check gue
 ss=(read,tcheck) scf=(maxcycle=1)
 ----------------------------------------------------------------------
 -----
 title
 -----
 Structure from the checkpoint file:  "Grambow2020_wb97xd3_007236_forward_mol1.chk"
 Charge =  0 Multiplicity = 1

                         Standard orientation:
 ---------------------------------------------------------------------
 Center     Atomic      Atomic             Coordinates (Angstroms)
 Number     Number       Type             X           Y           Z
 ---------------------------------------------------------------------
      1          6           0        1.876839   -0.533983    0.729798
      2          7           0        1.162110   -0.315199   -0.503616
      3          6           0        0.876523    1.009174   -0.514024
      4          7           0       -0.272442    1.162136    0.189001
      5          6           0       -0.983702   -0.071021   -0.069863
      6          6           0       -2.426858   -0.165638    0.243869
      7          6           0       -0.103329   -0.968935   -0.498698
      8          1           0        2.269994   -1.543894    0.841816
      9          1           0        2.604275    0.241650    0.959323
     10          1           0        0.355395    0.602605    1.188463
     11          1           0        1.682907    1.727252   -0.442201
     12          1           0       -2.599257    0.115943    1.284605
     13          1           0       -3.002855    0.518031   -0.382213
     14          1           0       -2.792535   -1.180221    0.089167
     15          1           0       -0.182434   -2.027504   -0.683141
 ---------------------------------------------------------------------

 SCF Done:  E(RHF) =  -303.007003794     A.U. after    2 cycles

 The electronic state is 1-A.
 Alpha  occ. eigenvalues --  -15.55860 -15.53942 -11.32036 -11.28228 -11.26703
 Alpha  occ. eigenvalues --  -11.26656 -11.24594  -1.37230  -1.19318  -1.07235
 Alpha  occ. eigenvalues --   -0.98195  -0.92465  -0.82327  -0.80777  -0.72191
 Alpha  occ. eigenvalues --   -0.70084  -0.64312  -0.62599  -0.59047  -0.57597
 Alpha  occ. eigenvalues --   -0.57336  -0.55573  -0.52853  -0.47909  -0.36557
 Alpha  occ. eigenvalues --   -0.28961
 Alpha virt. eigenvalues --    0.03493   0.03722   0.03989   0.04456   0.05110
 Alpha virt. eigenvalues --    0.05571   0.06230   0.06841   0.08293   0.09867
 Alpha virt. eigenvalues --    0.10711   0.11683   0.12805   0.13113   0.13888

 Mulliken charges:
               1
     1  C   -0.301784
     2  N    0.782874
     3  C   -0.504950
     4  N    0.464090
     5  C   -0.413085
     6  C   -0.919795
     7  C   -0.026075
     8  H   -0.073697
     9  H   -0.028331
    10  H    0.678132
    11  H   -0.142844
    12  H    0.239603
    13  H    0.266638
    14  H    0.216379
    15  H   -0.237154
 Sum of Mulliken charges =  -0.00000

 Dipole moment (field-independent basis, Debye):
    X=             -0.3474    Y=             -0.8910    Z=             -0.2770  Tot=              0.9957

 Test job not archived.
 1\1\GINC-SE224\SP\RHF\Aug-CC-pVDZ\C5H8N2\OHZDE\09-Apr-2025\0\\#t hf au
 g-cc-pvdz iop(5/13=1,5/36=2,99/5=2) pseudo=read geom=check guess=(read
 ,tcheck) scf=(maxcycle=1)\\title\\0,1\C,0,-2.05477203,0.40253813,-0.07
 608132\N,0,-1.17811384,-0.70024397,-0.38487621\C,0,-0.76089977,-1.1647
 5141,0.8175369\N,0,0.30445638,-0.40690415,1.17592936\C,0,0.91335944,-0
 .07324927,-0.09351494\C,0,2.29114115,0.46586613,-0.12747331\C,0,0.0048
 5593,-0.26000391,-1.04480306\H,0,-2.55866407,0.82559501,-0.94450254\H,
 0,-2.72238065,0.2116234,0.76135565\H,0,-0.49264509,0.62309255,1.076355

 Normal termination of Gaussian 16 at Wed Apr  9 18:15:26 2025.
