 Gaussian 16, Revision C.01,

 ----------------------------------------------------------------------
 #t hf aug-cc-pvdz symm=none int=(grid=ultrafine) guess=(read,tcheck) s
 table=(opt,rrhf)
 ----------------------------------------------------------------------
 -----
 title
 -----
 Symbolic Z-matrix:
 Charge =  0 Multiplicity = 1

 SCF Done:  E(RHF) =  -305.837952903     A.U. after   13 cycles
 Normal termination of Gaussian 16 at Wed Apr  9 03:15:35 2025.
 Gaussian 16:  ES64L-G16RevC.01  3-Jul-2019

 ----------------------------------------------------------------------
 #t hf aug-cc-pvdz iop(5/13=1,5/36=2,99/5=2) pseudo=read geom=check gue
 ss=(read,tcheck) scf=(maxcycle=1)
 ----------------------------------------------------------------------
 -----
 title
 -----
 Structure from the checkpoint file:  "Grambow2020_b97d3_006962_reverse_mol2.chk"
 Charge =  0 Multiplicity = 1

                         Standard orientation:
 ---------------------------------------------------------------------
 Center     Atomic      Atomic             Coordinates (Angstroms)
 Number     Number       Type             X           Y           Z
 ---------------------------------------------------------------------
      1          8           0        1.349617   -0.946789   -0.696822
      2          6           0        2.090122    0.065713   -0.169724
      3          6           0        1.729740    0.944456    0.784295
      4          6           0       -2.044202    0.100209    0.217234
      5          6           0       -1.769278    0.933177   -0.791704
      6          8           0       -1.232747   -0.985568    0.505402
      7          1           0        0.475625   -0.974266   -0.241792
      8          1           0       -1.448131   -1.337069    1.386650
      9          1           0        3.076173    0.095715   -0.636758
     10          1           0        2.432394    1.708558    1.108332
     11          1           0        0.741045    0.934841    1.241251
     12          1           0       -2.925206    0.206000    0.853091
     13          1           0       -0.878360    0.810806   -1.404739
     14          1           0       -2.446790    1.752944   -1.015279
 ---------------------------------------------------------------------

 SCF Done:  E(RHF) =  -306.153329014     A.U. after    2 cycles

 The electronic state is 1-A.
 Alpha  occ. eigenvalues --  -20.60497 -20.55698 -11.32183 -11.29760 -11.24159
 Alpha  occ. eigenvalues --  -11.21428  -1.50750  -1.46573  -1.04188  -1.00730
 Alpha  occ. eigenvalues --   -0.82292  -0.80868  -0.75842  -0.67113  -0.65589
 Alpha  occ. eigenvalues --   -0.64337  -0.60672  -0.58391  -0.55426  -0.54644
 Alpha  occ. eigenvalues --   -0.53155  -0.51175  -0.37011  -0.33569
 Alpha virt. eigenvalues --    0.02451   0.04094   0.04546   0.05191   0.05630
 Alpha virt. eigenvalues --    0.07205   0.07576   0.08529   0.10743   0.12032
 Alpha virt. eigenvalues --    0.12555   0.13300   0.14008   0.14416   0.15199

 Mulliken charges:
               1
     1  O   -1.445679
     2  C    1.164428
     3  C   -0.083573
     4  C    1.245901
     5  C   -0.132153
     6  O   -1.433568
     7  H    0.616596
     8  H    0.471915
     9  H   -0.010048
    10  H   -0.093470
    11  H   -0.078871
    12  H   -0.090684
    13  H   -0.070449
    14  H   -0.060345
 Sum of Mulliken charges =   0.00000

 Dipole moment (field-independent basis, Debye):
    X=             -2.5333    Y=              0.3338    Z=              2.0767  Tot=              3.2927

 Test job not archived.
 1\1\GINC-SE105\SP\RHF\Aug-CC-pVDZ\C4H8O2\OHZDE\09-Apr-2025\0\\#t hf au
 g-cc-pvdz iop(5/13=1,5/36=2,99/5=2) pseudo=read geom=check guess=(read
 ,tcheck) scf=(maxcycle=1)\\title\\0,1\O,0,1.61087677,0.74957408,0.8581
 9668\C,0,1.71557119,-0.58104403,1.12246028\C,0,1.13082674,-1.60275447,
 0.46947019\C,0,-1.45361082,0.83867143,-1.1544349\C,0,-1.94570487,0.657
 02449,0.07529018\O,0,-0.1225762,1.16213975,-1.36449968\H,0,1.04313329,
 0.87382432,0.06201931\H,0,0.10735893,1.03249872,-2.30090957\H,0,2.3668
 6343,-0.74551793,1.98274157\H,0,1.30614451,-2.62463758,0.79748361\H,0,

 Normal termination of Gaussian 16 at Wed Apr  9 03:15:39 2025.
