 Gaussian 16, Revision C.01,

 ----------------------------------------------------------------------
 #t hf aug-cc-pvdz symm=none int=(grid=ultrafine) guess=(read,tcheck) s
 table=(opt,rrhf)
 ----------------------------------------------------------------------
 -----
 title
 -----
 Symbolic Z-matrix:
 Charge =  0 Multiplicity = 1

 SCF Done:  E(RHF) =  -266.825239263     A.U. after   13 cycles
 Normal termination of Gaussian 16 at Wed Apr  9 15:42:35 2025.
 Gaussian 16:  ES64L-G16RevC.01  3-Jul-2019

 ----------------------------------------------------------------------
 #t hf aug-cc-pvdz iop(5/13=1,5/36=2,99/5=2) pseudo=read geom=check gue
 ss=(read,tcheck) scf=(maxcycle=1)
 ----------------------------------------------------------------------
 -----
 title
 -----
 Structure from the checkpoint file:  "Grambow2020_b97d3_006691_reverse_mol2.chk"
 Charge =  0 Multiplicity = 1

                         Standard orientation:
 ---------------------------------------------------------------------
 Center     Atomic      Atomic             Coordinates (Angstroms)
 Number     Number       Type             X           Y           Z
 ---------------------------------------------------------------------
      1          6           0        1.618388   -0.392897   -0.035192
      2          6           0        1.471539    1.105244    0.036094
      3          8           0       -2.005701    0.779842   -0.068650
      4          6           0       -1.908025   -0.425840    0.054616
      5          8           0        0.704316   -1.201773   -0.005284
      6          1           0        2.674051   -0.751380   -0.122777
      7          1           0        1.912517    1.554092   -0.868670
      8          1           0        2.059076    1.486962    0.886571
      9          1           0        0.425184    1.408604    0.131647
     10          1           0       -1.811663   -0.921534    1.047167
     11          1           0       -1.939506   -1.120335   -0.815575
 ---------------------------------------------------------------------

 SCF Done:  E(RHF) =  -267.094509693     A.U. after    2 cycles

 The electronic state is 1-A.
 Alpha  occ. eigenvalues --  -20.55881 -20.54513 -11.35974 -11.34188 -11.25460
 Alpha  occ. eigenvalues --   -1.48067  -1.46465  -1.02834  -0.85870  -0.81240
 Alpha  occ. eigenvalues --   -0.68542  -0.67391  -0.64015  -0.63144  -0.60854
 Alpha  occ. eigenvalues --   -0.56794  -0.51546  -0.51035  -0.42951  -0.41618
 Alpha virt. eigenvalues --    0.03202   0.04562   0.04639   0.04801   0.06468
 Alpha virt. eigenvalues --    0.08254   0.09547   0.09821   0.11321   0.12844
 Alpha virt. eigenvalues --    0.13045   0.14670   0.14969   0.15955   0.16248

 Mulliken charges:
               1
     1  C    0.933969
     2  C   -0.484317
     3  O   -0.862902
     4  C    0.537263
     5  O   -1.100914
     6  H    0.109479
     7  H    0.233423
     8  H    0.244391
     9  H    0.092206
    10  H    0.146916
    11  H    0.150485
 Sum of Mulliken charges =  -0.00000

 Dipole moment (field-independent basis, Debye):
    X=              2.5429    Y=             -0.3638    Z=              0.2299  Tot=              2.5791

 Test job not archived.
 1\1\GINC-SE229\SP\RHF\Aug-CC-pVDZ\C3H6O2\OHZDE\09-Apr-2025\0\\#t hf au
 g-cc-pvdz iop(5/13=1,5/36=2,99/5=2) pseudo=read geom=check guess=(read
 ,tcheck) scf=(maxcycle=1)\\title\\0,1\C,0,0.48691929,1.33733263,0.1269
 0298\C,0,1.50593468,0.22719928,0.1100821\O,0,-1.05965288,-2.139559,-0.
 04570962\C,0,-1.87905596,-1.25707178,-0.2136377\O,0,-0.71943649,1.2007
 0907,-0.00249239\H,0,0.91717603,2.35910022,0.27345158\H,0,2.06069854,0
 .23270427,1.06230627\H,0,2.24789931,0.42819993,-0.67941544\H,0,1.04162
 529,-0.75057102,-0.04612517\H,0,-2.10371256,-0.83012406,-1.21733103\H,

 Normal termination of Gaussian 16 at Wed Apr  9 15:42:38 2025.
