 Gaussian 16, Revision C.01,

 ----------------------------------------------------------------------
 #t hf aug-cc-pvdz symm=none int=(grid=ultrafine) guess=(read,tcheck) s
 table=(opt,rrhf)
 ----------------------------------------------------------------------
 -----
 title
 -----
 Symbolic Z-matrix:
 Charge =  0 Multiplicity = 1

 SCF Done:  E(RHF) =  -285.902240415     A.U. after   17 cycles
 Normal termination of Gaussian 16 at Wed Apr  9 03:21:09 2025.
 Gaussian 16:  ES64L-G16RevC.01  3-Jul-2019

 ----------------------------------------------------------------------
 #t hf aug-cc-pvdz iop(5/13=1,5/36=2,99/5=2) pseudo=read geom=check gue
 ss=(read,tcheck) scf=(maxcycle=1)
 ----------------------------------------------------------------------
 -----
 title
 -----
 Structure from the checkpoint file:  "Grambow2020_wb97xd3_006064_reverse_mol1.chk"
 Charge =  0 Multiplicity = 1

                         Standard orientation:
 ---------------------------------------------------------------------
 Center     Atomic      Atomic             Coordinates (Angstroms)
 Number     Number       Type             X           Y           Z
 ---------------------------------------------------------------------
      1          6           0        2.421643    0.269793    0.146032
      2          6           0        1.298125   -0.551481   -0.506156
      3          6           0        0.114548   -0.756072    0.335455
      4          6           0       -1.070248    0.146588    0.291312
      5          8           0       -0.603655    1.280798   -0.114486
      6          7           0       -2.292983   -0.347591   -0.292106
      7          1           0        3.288251    0.306570   -0.514560
      8          1           0        2.735531   -0.166544    1.096638
      9          1           0        2.059867    1.281378    0.323465
     10          1           0        0.983754   -0.059955   -1.428602
     11          1           0        1.684865   -1.559838   -0.711093
     12          1           0        0.240521   -1.392993    1.213260
     13          1           0       -1.125106    0.157868    1.443890
     14          1           0       -3.059501    0.264032   -0.045383
     15          1           0       -2.512464   -1.296729   -0.016848
 ---------------------------------------------------------------------

 SCF Done:  E(RHF) =  -286.203184792     A.U. after    2 cycles

 The electronic state is 1-A.
 Alpha  occ. eigenvalues --  -20.44501 -15.48731 -11.36257 -11.31890 -11.26581
 Alpha  occ. eigenvalues --  -11.24874  -1.37872  -1.16994  -1.11080  -0.98472
 Alpha  occ. eigenvalues --   -0.88323  -0.78053  -0.71698  -0.68028  -0.67686
 Alpha  occ. eigenvalues --   -0.62277  -0.60884  -0.55487  -0.54488  -0.52612
 Alpha  occ. eigenvalues --   -0.51404  -0.43994  -0.36505  -0.34006
 Alpha virt. eigenvalues --    0.00189   0.02390   0.03561   0.04220   0.04658
 Alpha virt. eigenvalues --    0.06222   0.06337   0.07452   0.07564   0.08241
 Alpha virt. eigenvalues --    0.12515   0.12722   0.13117   0.13658   0.14179

 Mulliken charges:
               1
     1  C   -0.384489
     2  C   -0.363298
     3  C    0.210906
     4  C    0.124706
     5  O   -1.394699
     6  N    0.386324
     7  H    0.141639
     8  H    0.160552
     9  H    0.208149
    10  H    0.215892
    11  H    0.259490
    12  H   -0.076669
    13  H    0.226153
    14  H    0.170024
    15  H    0.115321
 Sum of Mulliken charges =  -0.00000

 Dipole moment (field-independent basis, Debye):
    X=              1.8925    Y=             -4.8267    Z=              2.1860  Tot=              5.6265

 Test job not archived.
 1\1\GINC-SE402\SP\RHF\Aug-CC-pVDZ\C4H9N1O1\OHZDE\09-Apr-2025\0\\#t hf
 aug-cc-pvdz iop(5/13=1,5/36=2,99/5=2) pseudo=read geom=check guess=(re
 ad,tcheck) scf=(maxcycle=1)\\title\\0,1\C,0,2.12718023,0.31709657,-0.3
 7425871\C,0,0.76938844,-0.09622023,-0.96392379\C,0,-0.18615752,-0.6388
 0004,0.00744628\C,0,-1.19947157,0.20739125,0.69856126\O,0,-0.68655614,
 1.39300096,0.70636461\N,0,-2.58731646,0.05590404,0.33716439\H,0,2.7992
 7864,0.63392105,-1.17216228\H,0,2.59885201,-0.50973335,0.16094679\H,0,
 1.97290453,1.14391152,0.31729317\H,0,0.31231132,0.76694898,-1.45111288

 Normal termination of Gaussian 16 at Wed Apr  9 03:21:13 2025.
