 Gaussian 16, Revision C.01,

 ----------------------------------------------------------------------
 #t hf aug-cc-pvdz symm=none int=(grid=ultrafine) guess=(read,tcheck) s
 table=(opt,rrhf)
 ----------------------------------------------------------------------
 -----
 title
 -----
 Symbolic Z-matrix:
 Charge =  0 Multiplicity = 1

 SCF Done:  E(RHF) =  -310.155522827     A.U. after   13 cycles

 1\1\GINC-SE220\Stability\RHF\Aug-CC-pVDZ\C6H14O1\OHZDE\09-Apr-2025\0\\
 #t hf aug-cc-pvdz symm=none int=(grid=ultrafine) guess=(read,tcheck) s
 table=(opt,rrhf)\\title\\0,1\C,0,-1.91713571,0.31940908,-0.07919098\C,
 0,-1.80700507,0.35728637,-1.56937843\C,0,-1.25861283,-0.58982209,-2.31
 643954\C,0,1.41165073,-1.80777673,0.82767243\C,0,1.57171858,-0.765878,
 0.02588739\O,0,1.45891158,0.50951308,0.45714516\C,0,1.64391899,1.50363
 889,-0.53229969\H,0,-1.43254629,1.18951878,0.37071378\H,0,-1.45108124,
 -0.57629141,0.3326322\H,0,-2.9649464,0.34356591,0.23181581\H,0,-2.2166

 Normal termination of Gaussian 16 at Wed Apr  9 18:34:17 2025.
 Gaussian 16:  ES64L-G16RevC.01  3-Jul-2019

 ----------------------------------------------------------------------
 #t hf aug-cc-pvdz iop(5/13=1,5/36=2,99/5=2) pseudo=read geom=check gue
 ss=(read,tcheck) scf=(maxcycle=1)
 ----------------------------------------------------------------------
 -----
 title
 -----
 Structure from the checkpoint file:  "Grambow2020_wb97xd3_007720_reverse_mol2.chk"
 Charge =  0 Multiplicity = 1

                         Standard orientation:
 ---------------------------------------------------------------------
 Center     Atomic      Atomic             Coordinates (Angstroms)
 Number     Number       Type             X           Y           Z
 ---------------------------------------------------------------------
      1          6           0       -1.658782   -0.227801    1.282332
      2          6           0       -2.334836    0.159185    0.006630
      3          6           0       -2.167828   -0.449578   -1.158430
      4          6           0        1.834817   -1.677805   -0.173824
      5          6           0        1.466907   -0.477666   -0.596132
      6          8           0        1.479994    0.611618    0.203004
      7          6           0        1.041028    1.813208   -0.401154
      8          1           0       -1.090779    0.610447    1.693484
      9          1           0       -0.970340   -1.060066    1.132450
     10          1           0       -2.394652   -0.513835    2.038570
     11          1           0       -3.014272    1.007483    0.060468
     12          1           0        1.425334   -0.150697    3.486297
     13          1           0       -1.502497   -1.301250   -1.257573
     14          1           0       -2.692229   -0.123737   -2.048941
     15          1           0        1.806277   -2.514404   -0.856249
     16          1           0        2.170199   -1.841129    0.842066
     17          1           0        1.125707   -0.304248   -1.614800
     18          1           0        1.415633    0.063088    2.771400
     19          1           0        1.691694    2.094356   -1.235097
     20          1           0        1.091498    2.585731    0.363460
     21          1           0        0.010645    1.718052   -0.756090
 ---------------------------------------------------------------------

 SCF Done:  E(RHF) =  -310.494076468     A.U. after    2 cycles

 The electronic state is 1-A.
 Alpha  occ. eigenvalues --  -20.56808 -11.29795 -11.29156 -11.24110 -11.22587
 Alpha  occ. eigenvalues --  -11.22421 -11.21690  -1.49894  -1.06807  -1.04206
 Alpha  occ. eigenvalues --   -0.93567  -0.93324  -0.79991  -0.76046  -0.69566
 Alpha  occ. eigenvalues --   -0.65916  -0.65554  -0.64870  -0.59378  -0.58224
 Alpha  occ. eigenvalues --   -0.57012  -0.56679  -0.55536  -0.52803  -0.50754
 Alpha  occ. eigenvalues --   -0.49759  -0.49352  -0.36998  -0.34164
 Alpha virt. eigenvalues --    0.03286   0.03597   0.04072   0.04433   0.05704
 Alpha virt. eigenvalues --    0.06023   0.06122   0.06570   0.07517   0.08437
 Alpha virt. eigenvalues --    0.08854   0.09370   0.09625   0.11520   0.12378

 Mulliken charges:
               1
     1  C   -0.543260
     2  C    0.479253
     3  C   -0.064923
     4  C   -0.198828
     5  C    1.484434
     6  O   -1.502131
     7  C    0.296528
     8  H    0.203174
     9  H    0.109307
    10  H    0.156287
    11  H   -0.167706
    12  H    0.057055
    13  H   -0.084513
    14  H   -0.123425
    15  H   -0.104491
    16  H   -0.146290
    17  H   -0.112826
    18  H   -0.072810
    19  H    0.113427
    20  H   -0.005494
    21  H    0.227233
 Sum of Mulliken charges =  -0.00000

 Dipole moment (field-independent basis, Debye):
    X=             -0.5835    Y=              1.2027    Z=             -0.9177  Tot=              1.6215

 Test job not archived.
 1\1\GINC-SE220\SP\RHF\Aug-CC-pVDZ\C6H14O1\OHZDE\09-Apr-2025\0\\#t hf a
 ug-cc-pvdz iop(5/13=1,5/36=2,99/5=2) pseudo=read geom=check guess=(rea
 d,tcheck) scf=(maxcycle=1)\\title\\0,1\C,0,-1.91713571,0.31940908,-0.0
 7919098\C,0,-1.80700507,0.35728637,-1.56937843\C,0,-1.25861283,-0.5898
 2209,-2.31643954\C,0,1.41165073,-1.80777673,0.82767243\C,0,1.57171858,
 -0.765878,0.02588739\O,0,1.45891158,0.50951308,0.45714516\C,0,1.643918
 99,1.50363889,-0.53229969\H,0,-1.43254629,1.18951878,0.37071378\H,0,-1
 .45108124,-0.57629141,0.3326322\H,0,-2.9649464,0.34356591,0.23181581\H

 Normal termination of Gaussian 16 at Wed Apr  9 18:34:26 2025.
