 Gaussian 16, Revision C.01,

 ----------------------------------------------------------------------
 #t hf aug-cc-pvdz symm=none int=(grid=ultrafine) guess=(read,tcheck) s
 table=(opt,rrhf)
 ----------------------------------------------------------------------
 -----
 title
 -----
 Symbolic Z-matrix:
 Charge =  0 Multiplicity = 1

 SCF Done:  E(RHF) =  -269.966515780     A.U. after   14 cycles

 1\1\GINC-SE219\Stability\RHF\Aug-CC-pVDZ\C5H10O1\OHZDE\09-Apr-2025\0\\
 #t hf aug-cc-pvdz symm=none int=(grid=ultrafine) guess=(read,tcheck) s
 table=(opt,rrhf)\\title\\0,1\C,0,2.87786429,-0.78163611,0.07374572\O,0
 ,1.52861358,-0.75878903,0.55244381\C,0,0.5924808,-0.60895966,-0.333358
 56\C,0,-1.54990214,1.64503685,-0.19646899\C,0,-1.80521073,0.14934167,-
 0.32791687\C,0,-0.72979488,-0.68248915,0.36361467\H,0,3.42028976,0.021
 49997,0.57122269\H,0,2.87476454,-0.64494425,-1.00656289\H,0,3.31245984
 ,-1.74266922,0.34666518\H,0,-0.58883987,1.91362608,-0.64231146\H,0,-1.

 Normal termination of Gaussian 16 at Wed Apr  9 16:57:12 2025.
 Gaussian 16:  ES64L-G16RevC.01  3-Jul-2019

 ----------------------------------------------------------------------
 #t hf aug-cc-pvdz iop(5/13=1,5/36=2,99/5=2) pseudo=read geom=check gue
 ss=(read,tcheck) scf=(maxcycle=1)
 ----------------------------------------------------------------------
 -----
 title
 -----
 Structure from the checkpoint file:  "Grambow2020_wb97xd3_006202_reverse_mol2.chk"
 Charge =  0 Multiplicity = 1

                         Standard orientation:
 ---------------------------------------------------------------------
 Center     Atomic      Atomic             Coordinates (Angstroms)
 Number     Number       Type             X           Y           Z
 ---------------------------------------------------------------------
      1          6           0       -2.761254    0.438842    0.128133
      2          8           0       -1.545744   -0.132161   -0.368499
      3          6           0       -0.548748   -0.204665    0.458653
      4          6           0        2.256124    1.010249   -0.129328
      5          6           0        1.949361   -0.426188    0.273301
      6          6           0        0.587465   -0.889289   -0.234097
      7          1           0       -3.007888    1.293413   -0.500848
      8          1           0       -2.615479    0.741008    1.164090
      9          1           0       -3.542567   -0.315921    0.045513
     10          1           0        1.504817    1.693595    0.274569
     11          1           0        2.258542    1.122794   -1.216938
     12          1           0        3.231702    1.329285    0.241584
     13          1           0        1.963651   -0.513956    1.362820
     14          1           0        2.725598   -1.093712   -0.110487
     15          1           0        0.512969   -0.827359   -1.327922
     16          1           0        0.436922   -1.945556    0.035636
 ---------------------------------------------------------------------

 SCF Done:  E(RHF) =  -270.253406360     A.U. after    2 cycles

 The electronic state is 1-A.
 Alpha  occ. eigenvalues --  -20.60204 -11.29436 -11.29027 -11.22474 -11.22389
 Alpha  occ. eigenvalues --  -11.21795  -1.53289  -1.07862  -1.00187  -0.93017
 Alpha  occ. eigenvalues --   -0.82699  -0.76959  -0.66676  -0.66215  -0.65409
 Alpha  occ. eigenvalues --   -0.61297  -0.57400  -0.55306  -0.54018  -0.51321
 Alpha  occ. eigenvalues --   -0.48446  -0.47958  -0.47529  -0.34613
 Alpha virt. eigenvalues --    0.03652   0.03984   0.04156   0.04472   0.05741
 Alpha virt. eigenvalues --    0.06159   0.06647   0.07273   0.07850   0.08929
 Alpha virt. eigenvalues --    0.10775   0.11792   0.13387   0.14302   0.14817

 Mulliken charges:
               1
     1  C    0.226630
     2  O   -1.150131
     3  C    0.580856
     4  C   -0.317251
     5  C   -0.283972
     6  C   -0.531947
     7  H    0.096287
     8  H    0.195895
     9  H    0.107504
    10  H    0.160696
    11  H    0.174000
    12  H    0.111914
    13  H    0.149809
    14  H    0.138155
    15  H    0.061818
    16  H    0.279738
 Sum of Mulliken charges =  -0.00000

 Dipole moment (field-independent basis, Debye):
    X=             -1.0230    Y=             -0.0614    Z=             -0.8607  Tot=              1.3383

 Test job not archived.
 1\1\GINC-SE219\SP\RHF\Aug-CC-pVDZ\C5H10O1\OHZDE\09-Apr-2025\0\\#t hf a
 ug-cc-pvdz iop(5/13=1,5/36=2,99/5=2) pseudo=read geom=check guess=(rea
 d,tcheck) scf=(maxcycle=1)\\title\\0,1\C,0,2.87786429,-0.78163611,0.07
 374572\O,0,1.52861358,-0.75878903,0.55244381\C,0,0.5924808,-0.60895966
 ,-0.33335856\C,0,-1.54990214,1.64503685,-0.19646899\C,0,-1.80521073,0.
 14934167,-0.32791687\C,0,-0.72979488,-0.68248915,0.36361467\H,0,3.4202
 8976,0.02149997,0.57122269\H,0,2.87476454,-0.64494425,-1.00656289\H,0,
 3.31245984,-1.74266922,0.34666518\H,0,-0.58883987,1.91362608,-0.642311

 Normal termination of Gaussian 16 at Wed Apr  9 16:57:17 2025.
