 Gaussian 16, Revision C.01,

 ----------------------------------------------------------------------
 #t hf aug-cc-pvdz symm=none int=(grid=ultrafine) guess=(read,tcheck) s
 table=(opt,rrhf)
 ----------------------------------------------------------------------
 -----
 title
 -----
 Symbolic Z-matrix:
 Charge =  0 Multiplicity = 1

 SCF Done:  E(RHF) =  -338.645769164     A.U. after   16 cycles
 Normal termination of Gaussian 16 at Wed Apr  9 03:28:15 2025.
 Gaussian 16:  ES64L-G16RevC.01  3-Jul-2019

 ----------------------------------------------------------------------
 #t hf aug-cc-pvdz iop(5/13=1,5/36=2,99/5=2) pseudo=read geom=check gue
 ss=(read,tcheck) scf=(maxcycle=1)
 ----------------------------------------------------------------------
 -----
 title
 -----
 Structure from the checkpoint file:  "Grambow2020_wb97xd3_006688_forward_mol1.chk"
 Charge =  0 Multiplicity = 1

                         Standard orientation:
 ---------------------------------------------------------------------
 Center     Atomic      Atomic             Coordinates (Angstroms)
 Number     Number       Type             X           Y           Z
 ---------------------------------------------------------------------
      1          6           0       -2.476312   -0.596030    0.313618
      2          6           0       -1.570807    0.086207   -0.454059
      3          6           0       -0.696889    1.126122   -0.052562
      4          7           0        0.579487    1.104784    0.127107
      5          6           0        1.134731   -0.177651    0.003315
      6          7           0        2.484232   -0.162929    0.086884
      7          8           0        0.486030   -1.199360   -0.162752
      8          1           0       -2.461309   -0.615602    1.406130
      9          1           0       -2.809345    0.440491   -0.437115
     10          1           0       -3.194919   -1.258000   -0.164198
     11          1           0       -1.168691    2.110842   -0.011113
     12          1           0        2.991374   -1.019846   -0.022474
     13          1           0        2.964273    0.712122    0.170971
 ---------------------------------------------------------------------

 SCF Done:  E(RHF) =  -338.986736268     A.U. after    2 cycles

 The electronic state is 1-A.
 Alpha  occ. eigenvalues --  -20.49521 -15.51260 -15.48282 -11.36356 -11.31517
 Alpha  occ. eigenvalues --  -11.31486 -11.27313  -1.45508  -1.24566  -1.20391
 Alpha  occ. eigenvalues --   -1.12430  -0.94617  -0.84936  -0.78769  -0.73863
 Alpha  occ. eigenvalues --   -0.72091  -0.65728  -0.64024  -0.63020  -0.60590
 Alpha  occ. eigenvalues --   -0.53281  -0.49770  -0.48464  -0.42601  -0.41896
 Alpha  occ. eigenvalues --   -0.35090
 Alpha virt. eigenvalues --    0.02827   0.03784   0.04250   0.04579   0.06343
 Alpha virt. eigenvalues --    0.06879   0.08259   0.09088   0.09571   0.11633
 Alpha virt. eigenvalues --    0.12555   0.13484   0.13821   0.13982   0.14907

 Mulliken charges:
               1
     1  C    0.088111
     2  C   -0.155126
     3  C   -0.708359
     4  N    0.791233
     5  C    0.022960
     6  N    0.699304
     7  O   -1.197152
     8  H   -0.019512
     9  H    0.320043
    10  H    0.059894
    11  H   -0.109671
    12  H    0.122015
    13  H    0.086259
 Sum of Mulliken charges =  -0.00000

 Dipole moment (field-independent basis, Debye):
    X=             -2.4292    Y=              0.8156    Z=              1.3416  Tot=              2.8925

 Test job not archived.
 1\1\GINC-SE454\SP\RHF\Aug-CC-pVDZ\C4H6N2O1\OHZDE\09-Apr-2025\0\\#t hf
 aug-cc-pvdz iop(5/13=1,5/36=2,99/5=2) pseudo=read geom=check guess=(re
 ad,tcheck) scf=(maxcycle=1)\\title\\0,1\C,0,-2.21438125,0.56253358,0.0
 1460474\C,0,-1.25525878,-0.3791968,0.275259\C,0,-0.37450027,-1.0025360
 4,-0.6423836\N,0,0.89073793,-0.8275748,-0.81683705\C,0,1.41720682,0.21
 719304,-0.04253143\N,0,2.76103838,0.31404203,-0.15694857\O,0,0.7504738
 2,0.96125758,0.66040284\H,0,-2.25250614,1.1612357,-0.89879138\H,0,-2.4
 833799,-0.72912664,0.10482133\H,0,-2.92640083,0.8332561,0.79090739\H,0

 Normal termination of Gaussian 16 at Wed Apr  9 03:28:19 2025.
