 Gaussian 16, Revision C.01,

 ----------------------------------------------------------------------
 #t hf aug-cc-pvdz symm=none int=(grid=ultrafine) guess=(read,tcheck) s
 table=(opt,rrhf)
 ----------------------------------------------------------------------
 -----
 title
 -----
 Symbolic Z-matrix:
 Charge =  0 Multiplicity = 1

 SCF Done:  E(RHF) =  -270.843560083     A.U. after   12 cycles
 Normal termination of Gaussian 16 at Wed Apr  9 18:56:55 2025.
 Gaussian 16:  ES64L-G16RevC.01  3-Jul-2019

 ----------------------------------------------------------------------
 #t hf aug-cc-pvdz iop(5/13=1,5/36=2,99/5=2) pseudo=read geom=check gue
 ss=(read,tcheck) scf=(maxcycle=1)
 ----------------------------------------------------------------------
 -----
 title
 -----
 Structure from the checkpoint file:  "Grambow2020_wb97xd3_008381_forward_mol2.chk"
 Charge =  0 Multiplicity = 1

                         Standard orientation:
 ---------------------------------------------------------------------
 Center     Atomic      Atomic             Coordinates (Angstroms)
 Number     Number       Type             X           Y           Z
 ---------------------------------------------------------------------
      1          6           0       -2.135056    0.175463   -0.000332
      2          6           0       -0.634512    0.053237    0.000269
      3          6           0        0.148572   -0.787404   -1.056784
      4          6           0        1.280405   -0.648636   -0.000002
      5          6           0        0.149227   -0.786123    1.057800
      6          6           0        1.468164    0.868318   -0.001013
      7          6           0        0.221437    1.326254   -0.000463
      8          1           0       -2.485428    0.708331    0.886930
      9          1           0       -2.482974    0.722267   -0.880028
     10          1           0       -2.608514   -0.808490   -0.008478
     11          1           0        0.314383   -0.337019   -2.036248
     12          1           0       -0.231385   -1.808134   -1.151442
     13          1           0        2.160425   -1.287816   -0.000532
     14          1           0        0.314199   -0.334614    2.036808
     15          1           0       -0.229793   -1.807049    1.154246
     16          1           0        2.406617    1.403247   -0.000432
     17          1           0       -0.146949    2.342621    0.002325
 ---------------------------------------------------------------------

 SCF Done:  E(RHF) =  -271.136527642     A.U. after    2 cycles

 The electronic state is 1-A.
 Alpha  occ. eigenvalues --  -11.24218 -11.23787 -11.22769 -11.22741 -11.22600
 Alpha  occ. eigenvalues --  -11.22368 -11.22217  -1.20401  -1.00337  -0.98260
 Alpha  occ. eigenvalues --   -0.89706  -0.86546  -0.74967  -0.71921  -0.67088
 Alpha  occ. eigenvalues --   -0.64676  -0.58455  -0.57381  -0.56299  -0.55383
 Alpha  occ. eigenvalues --   -0.48959  -0.47791  -0.47166  -0.45424  -0.43089
 Alpha  occ. eigenvalues --   -0.33484
 Alpha virt. eigenvalues --    0.03333   0.03700   0.03838   0.04113   0.05456
 Alpha virt. eigenvalues --    0.05750   0.06315   0.06714   0.07153   0.09015
 Alpha virt. eigenvalues --    0.12156   0.12183   0.12892   0.13436   0.13569

 Mulliken charges:
               1
     1  C   -0.401792
     2  C   -0.377573
     3  C    0.001461
     4  C    0.085130
     5  C    0.001500
     6  C    0.298673
     7  C    0.498903
     8  H    0.240517
     9  H    0.239016
    10  H    0.187975
    11  H   -0.041513
    12  H   -0.052646
    13  H   -0.201282
    14  H   -0.041056
    15  H   -0.052090
    16  H   -0.167194
    17  H   -0.218028
 Sum of Mulliken charges =  -0.00000

 Dipole moment (field-independent basis, Debye):
    X=             -0.1785    Y=             -0.2534    Z=              0.0040  Tot=              0.3100

 Test job not archived.
 1\1\GINC-SE117\SP\RHF\Aug-CC-pVDZ\C7H10\OHZDE\09-Apr-2025\0\\#t hf aug
 -cc-pvdz iop(5/13=1,5/36=2,99/5=2) pseudo=read geom=check guess=(read,
 tcheck) scf=(maxcycle=1)\\title\\0,1\C,0,2.0015635,-0.04188028,0.03503
 847\C,0,0.4986546,0.04384625,0.01298663\C,0,-0.41163275,-0.76545613,0.
 98954467\C,0,-1.49375692,-0.38566909,-0.06015027\C,0,-0.37208605,-0.58
 963698,-1.11734658\C,0,-1.47284551,1.13738891,0.0673754\C,0,-0.1755256
 9,1.41802192,0.11470207\H,0,2.43806928,0.50912114,-0.80150408\H,0,2.40
 409822,0.37743008,0.96026808\H,0,2.3361541,-1.07887248,-0.03629728\H,0

 Normal termination of Gaussian 16 at Wed Apr  9 18:57:02 2025.
