 Gaussian 16, Revision C.01,

 ----------------------------------------------------------------------
 #t hf aug-cc-pvdz symm=none int=(grid=ultrafine) guess=(read,tcheck) s
 table=(opt,rrhf)
 ----------------------------------------------------------------------
 -----
 title
 -----
 Symbolic Z-matrix:
 Charge =  0 Multiplicity = 1

 SCF Done:  E(RHF) =  -343.619048608     A.U. after   15 cycles
 Normal termination of Gaussian 16 at Wed Apr  9 18:09:49 2025.
 Gaussian 16:  ES64L-G16RevC.01  3-Jul-2019

 ----------------------------------------------------------------------
 #t hf aug-cc-pvdz iop(5/13=1,5/36=2,99/5=2) pseudo=read geom=check gue
 ss=(read,tcheck) scf=(maxcycle=1)
 ----------------------------------------------------------------------
 -----
 title
 -----
 Structure from the checkpoint file:  "Grambow2020_wb97xd3_007142_reverse_mol1.chk"
 Charge =  0 Multiplicity = 1

                         Standard orientation:
 ---------------------------------------------------------------------
 Center     Atomic      Atomic             Coordinates (Angstroms)
 Number     Number       Type             X           Y           Z
 ---------------------------------------------------------------------
      1          8           0       -0.399981    1.229855   -0.777579
      2          6           0       -0.603981    0.033684   -0.058950
      3          6           0        0.466105   -0.994543   -0.376437
      4          6           0        1.841184   -0.533044    0.015426
      5          8           0        2.108341    0.585088    0.372738
      6          6           0       -2.051166   -0.431174   -0.222777
      7          6           0       -1.105909    0.071676    1.320496
      8          1           0        0.424791    1.600376   -0.442123
      9          1           0        0.265795   -1.934878    0.143945
     10          1           0        0.496509   -1.218672   -1.450214
     11          1           0        2.639697   -1.297812   -0.053256
     12          1           0       -2.156197   -1.473821   -0.504056
     13          1           0       -2.609658    0.275979   -0.825921
     14          1           0       -1.517494    1.084269    1.456626
     15          1           0       -2.487718   -0.434578    0.847179
 ---------------------------------------------------------------------

 SCF Done:  E(RHF) =  -343.969327801     A.U. after    2 cycles

 The electronic state is 1-A.
 Alpha  occ. eigenvalues --  -20.56267 -20.55014 -11.35778 -11.31228 -11.27683
 Alpha  occ. eigenvalues --  -11.26108 -11.25772  -1.49957  -1.46050  -1.14381
 Alpha  occ. eigenvalues --   -1.04052  -0.88385  -0.84659  -0.78221  -0.70882
 Alpha  occ. eigenvalues --   -0.69796  -0.64703  -0.63626  -0.60549  -0.59856
 Alpha  occ. eigenvalues --   -0.57153  -0.55790  -0.52102  -0.49893  -0.45249
 Alpha  occ. eigenvalues --   -0.43065  -0.35824
 Alpha virt. eigenvalues --    0.03042   0.03455   0.04424   0.04658   0.06095
 Alpha virt. eigenvalues --    0.06622   0.07037   0.07809   0.09558   0.10686
 Alpha virt. eigenvalues --    0.11722   0.12569   0.13385   0.14159   0.14302

 Mulliken charges:
               1
     1  O   -1.608689
     2  C    1.402324
     3  C   -0.566193
     4  C    1.109433
     5  O   -1.163978
     6  C   -0.399016
     7  C   -0.471469
     8  H    0.338868
     9  H    0.216536
    10  H    0.258004
    11  H    0.107193
    12  H    0.125141
    13  H    0.176632
    14  H    0.160253
    15  H    0.314962
 Sum of Mulliken charges =  -0.00000

 Dipole moment (field-independent basis, Debye):
    X=             -0.8561    Y=             -2.4423    Z=             -1.9103  Tot=              3.2166

 Test job not archived.
 1\1\GINC-SE045\SP\RHF\Aug-CC-pVDZ\C5H8O2\OHZDE\09-Apr-2025\0\\#t hf au
 g-cc-pvdz iop(5/13=1,5/36=2,99/5=2) pseudo=read geom=check guess=(read
 ,tcheck) scf=(maxcycle=1)\\title\\0,1\O,0,-0.0512493,-0.61471146,-1.44
 109824\C,0,-0.30159751,-0.02552744,-0.18449331\C,0,0.81132011,-0.32723
 083,0.80218023\C,0,2.13500073,0.23304707,0.36475663\O,0,2.34781341,0.7
 1004691,-0.7198847\C,0,-1.7185568,-0.36687576,0.27701045\C,0,-0.932307
 15,1.2976042,-0.09632363\H,0,0.73157902,-0.17094242,-1.78796379\H,0,0.
 5789719,0.08794199,1.78645486\H,0,0.94699892,-1.40855781,0.93055261\H,

 Normal termination of Gaussian 16 at Wed Apr  9 18:09:58 2025.
