 Gaussian 16, Revision C.01,

 ----------------------------------------------------------------------
 #t hf aug-cc-pvdz symm=none int=(grid=ultrafine) guess=(read,tcheck) s
 table=(opt,rrhf)
 ----------------------------------------------------------------------
 -----
 title
 -----
 Symbolic Z-matrix:
 Charge =  0 Multiplicity = 1

 SCF Done:  E(RHF) =  -231.834555504     A.U. after   14 cycles
 Normal termination of Gaussian 16 at Wed Apr  9 15:54:53 2025.
 Gaussian 16:  ES64L-G16RevC.01  3-Jul-2019

 ----------------------------------------------------------------------
 #t hf aug-cc-pvdz iop(5/13=1,5/36=2,99/5=2) pseudo=read geom=check gue
 ss=(read,tcheck) scf=(maxcycle=1)
 ----------------------------------------------------------------------
 -----
 title
 -----
 Structure from the checkpoint file:  "Grambow2020_b97d3_006876_reverse_mol2.chk"
 Charge =  0 Multiplicity = 1

                         Standard orientation:
 ---------------------------------------------------------------------
 Center     Atomic      Atomic             Coordinates (Angstroms)
 Number     Number       Type             X           Y           Z
 ---------------------------------------------------------------------
      1          6           0       -0.792882   -1.158299   -0.037301
      2          6           0       -1.472317    0.178981    0.205893
      3          6           0       -0.652025    1.214996   -0.056541
      4          6           0        1.457742   -0.025276    0.637656
      5          6           0        0.648480   -0.772935   -0.390337
      6          6           0        0.716227    0.750698   -0.438881
      7          1           0       -1.275292   -1.705398   -0.864890
      8          1           0       -0.842166   -1.816273    0.845716
      9          1           0       -2.495963    0.259829    0.570324
     10          1           0       -0.916028    2.268112    0.035732
     11          1           0        2.543332   -0.090360    0.554780
     12          1           0        1.076165    0.042027    1.657376
     13          1           0        1.186351   -1.369511   -1.125740
     14          1           0        1.292250    1.282586   -1.196240
 ---------------------------------------------------------------------

 SCF Done:  E(RHF) =  -232.083994957     A.U. after    2 cycles

 The electronic state is 1-A.
 Alpha  occ. eigenvalues --  -11.23721 -11.23646 -11.23609 -11.23520 -11.23355
 Alpha  occ. eigenvalues --  -11.23241  -1.17800  -1.03067  -0.95513  -0.82887
 Alpha  occ. eigenvalues --   -0.76802  -0.73328  -0.70374  -0.62747  -0.58161
 Alpha  occ. eigenvalues --   -0.56891  -0.53138  -0.51890  -0.48521  -0.45168
 Alpha  occ. eigenvalues --   -0.40819  -0.33516
 Alpha virt. eigenvalues --    0.03645   0.03883   0.04031   0.04290   0.05838
 Alpha virt. eigenvalues --    0.06107   0.06630   0.07187   0.10378   0.12047
 Alpha virt. eigenvalues --    0.12745   0.14382   0.14514   0.14787   0.15212

 Mulliken charges:
               1
     1  C   -0.778516
     2  C    0.267547
     3  C    0.163326
     4  C    0.178380
     5  C    0.491857
     6  C    0.075059
     7  H    0.174189
     8  H    0.181870
     9  H   -0.097333
    10  H   -0.110081
    11  H   -0.138523
    12  H   -0.088325
    13  H   -0.159078
    14  H   -0.160373
 Sum of Mulliken charges =  -0.00000

 Dipole moment (field-independent basis, Debye):
    X=              0.1812    Y=             -0.2050    Z=             -0.0950  Tot=              0.2896

 Test job not archived.
 1\1\GINC-SE219\SP\RHF\Aug-CC-pVDZ\C6H8\OHZDE\09-Apr-2025\0\\#t hf aug-
 cc-pvdz iop(5/13=1,5/36=2,99/5=2) pseudo=read geom=check guess=(read,t
 check) scf=(maxcycle=1)\\title\\0,1\C,0,-1.20243733,-0.14222684,0.6355
 2682\C,0,-0.51014491,1.19979521,0.80523397\C,0,0.47550484,1.37485905,-
 0.09638961\C,0,1.07113906,-1.09535127,-0.2171285\C,0,-0.39098806,-0.83
 096705,-0.46803634\C,0,0.6556457,0.1660765,-0.95677456\H,0,-2.25602232
 ,-0.01172121,0.33574821\H,0,-1.21138207,-0.72649118,1.57020965\H,0,-0.
 78520316,1.90774336,1.58648361\H,0,1.10665904,2.2593331,-0.17772281\H,

 Normal termination of Gaussian 16 at Wed Apr  9 15:54:57 2025.
