 Gaussian 16, Revision C.01,

 ----------------------------------------------------------------------
 #t hf aug-cc-pvdz symm=none int=(grid=ultrafine) guess=(read,tcheck) s
 table=(opt,rrhf)
 ----------------------------------------------------------------------
 -----
 title
 -----
 Symbolic Z-matrix:
 Charge =  0 Multiplicity = 1

 SCF Done:  E(RHF) =  -321.460330239     A.U. after   15 cycles
 Normal termination of Gaussian 16 at Wed Apr  9 18:53:28 2025.
 Gaussian 16:  ES64L-G16RevC.01  3-Jul-2019

 ----------------------------------------------------------------------
 #t hf aug-cc-pvdz iop(5/13=1,5/36=2,99/5=2) pseudo=read geom=check gue
 ss=(read,tcheck) scf=(maxcycle=1)
 ----------------------------------------------------------------------
 -----
 title
 -----
 Structure from the checkpoint file:  "Grambow2020_wb97xd3_008192_reverse_mol2.chk"
 Charge =  0 Multiplicity = 1

                         Standard orientation:
 ---------------------------------------------------------------------
 Center     Atomic      Atomic             Coordinates (Angstroms)
 Number     Number       Type             X           Y           Z
 ---------------------------------------------------------------------
      1          8           0        2.277988   -0.492553    0.054719
      2          6           0        0.987571   -0.912311   -0.304394
      3          6           0       -0.080670   -0.102042    0.462071
      4          6           0       -0.630906    2.302500   -0.377156
      5          6           0        0.051107    1.369173    0.195280
      6          6           0       -1.413476   -0.606610    0.124108
      7          7           0       -2.434726   -1.044428   -0.157226
      8          1           0        2.615083    0.111922   -0.607617
      9          1           0        0.806591   -0.819862   -1.378477
     10          1           0        0.882543   -1.963576   -0.029377
     11          1           0        0.077272   -0.271027    1.530742
     12          1           0        0.955938    1.889708    0.548104
 ---------------------------------------------------------------------

 SCF Done:  E(RHF) =  -321.779331821     A.U. after    2 cycles

 The electronic state is 1-A.
 Alpha  occ. eigenvalues --  -20.58859 -15.53136 -11.33429 -11.33355 -11.32213
 Alpha  occ. eigenvalues --  -11.29723 -11.27381  -1.49604  -1.25732  -1.15124
 Alpha  occ. eigenvalues --   -1.05211  -0.92420  -0.79485  -0.75623  -0.69263
 Alpha  occ. eigenvalues --   -0.66517  -0.65027  -0.63347  -0.60638  -0.53853
 Alpha  occ. eigenvalues --   -0.53078  -0.51991  -0.48991  -0.47678  -0.42953
 Alpha virt. eigenvalues --    0.02537   0.03137   0.03582   0.04402   0.05488
 Alpha virt. eigenvalues --    0.06170   0.08107   0.09017   0.10453   0.11470
 Alpha virt. eigenvalues --    0.11906   0.12582   0.13619   0.14169   0.14676

 Mulliken charges:
               1
     1  O   -1.100122
     2  C    0.933170
     3  C   -0.409798
     4  C   -0.585862
     5  C    0.945631
     6  C   -1.626833
     7  N    1.025182
     8  H    0.276248
     9  H    0.224290
    10  H    0.084645
    11  H    0.286978
    12  H   -0.053531
 Sum of Mulliken charges =   0.00000

 Dipole moment (field-independent basis, Debye):
    X=              4.7587    Y=              0.0123    Z=              0.6460  Tot=              4.8024

 Test job not archived.
 1\1\GINC-SE028\SP\RHF\Aug-CC-pVDZ\C5H5N1O1\OHZDE\09-Apr-2025\0\\#t hf
 aug-cc-pvdz iop(5/13=1,5/36=2,99/5=2) pseudo=read geom=check guess=(re
 ad,tcheck) scf=(maxcycle=1)\\title\\0,1\O,0,-1.94884493,0.31315074,0.2
 8374509\C,0,-0.80346129,-0.38642294,0.69487626\C,0,0.26814135,-0.37630
 827,-0.41719676\C,0,1.69716981,1.78087839,-0.7226635\C,0,0.65473033,1.
 0244145,-0.79341822\C,0,1.42222842,-1.17161484,0.00794909\N,0,2.295716
 96,-1.81626334,0.37568889\H,0,-1.93207579,1.1990774,0.6478404\H,0,-0.3
 7390873,0.025906,1.61162263\H,0,-1.08797528,-1.42277985,0.88681745\H,0

 Normal termination of Gaussian 16 at Wed Apr  9 18:53:33 2025.
