 Gaussian 16, Revision C.01,

 ----------------------------------------------------------------------
 #t hf aug-cc-pvdz symm=none int=(grid=ultrafine) guess=(read,tcheck) s
 table=(opt,rrhf)
 ----------------------------------------------------------------------
 -----
 title
 -----
 Symbolic Z-matrix:
 Charge =  0 Multiplicity = 1

 SCF Done:  E(RHF) =  -306.591330385     A.U. after   15 cycles
 Normal termination of Gaussian 16 at Wed Apr  9 03:59:47 2025.
 Gaussian 16:  ES64L-G16RevC.01  3-Jul-2019

 ----------------------------------------------------------------------
 #t hf aug-cc-pvdz iop(5/13=1,5/36=2,99/5=2) pseudo=read geom=check gue
 ss=(read,tcheck) scf=(maxcycle=1)
 ----------------------------------------------------------------------
 -----
 title
 -----
 Structure from the checkpoint file:  "Grambow2020_wb97xd3_008779_forward_mol1.chk"
 Charge =  0 Multiplicity = 1

                         Standard orientation:
 ---------------------------------------------------------------------
 Center     Atomic      Atomic             Coordinates (Angstroms)
 Number     Number       Type             X           Y           Z
 ---------------------------------------------------------------------
      1          8           0       -2.402994    0.001397    0.163393
      2          6           0       -1.140441   -0.081487    0.257738
      3          6           0       -0.322347   -1.132853   -0.294258
      4          6           0        1.143364   -1.175821   -0.168197
      5          6           0        1.736262    0.103305    0.417503
      6          6           0        1.010714    1.278783   -0.169809
      7          6           0       -0.297310    1.183875   -0.304186
      8          1           0       -0.701039   -0.055529    1.319090
      9          1           0       -0.812342   -1.917980   -0.871519
     10          1           0        1.417739   -2.061613    0.419981
     11          1           0        1.551357   -1.369342   -1.168642
     12          1           0        1.596623    0.106955    1.507214
     13          1           0        2.810064    0.141494    0.236732
     14          1           0        1.550940    2.172248   -0.459374
     15          1           0       -0.970839    1.917777   -0.723377
 ---------------------------------------------------------------------

 SCF Done:  E(RHF) =  -306.910522810     A.U. after    2 cycles

 The electronic state is 1-A.
 Alpha  occ. eigenvalues --  -20.40841 -11.36627 -11.29637 -11.29518 -11.27173
 Alpha  occ. eigenvalues --  -11.26105 -11.25080  -1.34962  -1.17634  -1.05608
 Alpha  occ. eigenvalues --   -1.01880  -0.89220  -0.83152  -0.73740  -0.69735
 Alpha  occ. eigenvalues --   -0.68466  -0.64707  -0.63236  -0.58269  -0.56155
 Alpha  occ. eigenvalues --   -0.55327  -0.51992  -0.50598  -0.38969  -0.33357
 Alpha  occ. eigenvalues --   -0.31989
 Alpha virt. eigenvalues --    0.00801   0.01872   0.02797   0.02939   0.04274
 Alpha virt. eigenvalues --    0.05662   0.05884   0.06857   0.07433   0.10422
 Alpha virt. eigenvalues --    0.11489   0.12290   0.12835   0.13372   0.13869

 Mulliken charges:
               1
     1  O   -1.618174
     2  C    0.857729
     3  C    0.245309
     4  C   -0.496716
     5  C   -0.476918
     6  C    0.523187
     7  C    0.040414
     8  H    0.495511
     9  H   -0.162739
    10  H    0.302475
    11  H    0.253049
    12  H    0.276564
    13  H    0.102860
    14  H   -0.130046
    15  H   -0.212505
 Sum of Mulliken charges =   0.00000

 Dipole moment (field-independent basis, Debye):
    X=              7.5631    Y=             -2.4511    Z=             -0.8710  Tot=              7.9979

 Test job not archived.
 1\1\GINC-SE457\SP\RHF\Aug-CC-pVDZ\C6H8O1\OHZDE\09-Apr-2025\0\\#t hf au
 g-cc-pvdz iop(5/13=1,5/36=2,99/5=2) pseudo=read geom=check guess=(read
 ,tcheck) scf=(maxcycle=1)\\title\\0,1\O,0,0.57433822,-2.76011908,-0.05
 666293\C,0,0.25047926,-1.53982005,-0.18234869\C,0,-0.87637972,-0.89870
 715,0.44892816\C,0,-1.20185189,0.52675411,0.2810732\C,0,-0.1167065,1.3
 1102028,-0.4524941\C,0,1.22354072,0.84080197,0.03303362\C,0,1.38576674
 ,-0.45431485,0.21836326\H,0,0.09284385,-1.15714409,-1.25422761\H,0,-1.
 49824017,-1.49292208,1.11971072\H,0,-2.17532708,0.60622135,-0.22081759

 Normal termination of Gaussian 16 at Wed Apr  9 03:59:51 2025.
