 Gaussian 16, Revision C.01,

 ----------------------------------------------------------------------
 #t hf aug-cc-pvdz symm=none int=(grid=ultrafine) guess=(read,tcheck) s
 table=(opt,rrhf)
 ----------------------------------------------------------------------
 -----
 title
 -----
 Symbolic Z-matrix:
 Charge =  0 Multiplicity = 1

 SCF Done:  E(RHF) =  -344.734264932     A.U. after   17 cycles

 1\1\GINC-SE028\Stability\RHF\Aug-CC-pVDZ\C5H10O2\OHZDE\09-Apr-2025\0\\
 #t hf aug-cc-pvdz symm=none int=(grid=ultrafine) guess=(read,tcheck) s
 table=(opt,rrhf)\\title\\0,1\C,0,-2.37108712,-0.5132304,-0.23795889\C,
 0,-1.15224942,0.34168817,-0.55556356\C,0,0.14482361,-0.2889931,-0.0628
 1093\O,0,0.30130362,-1.51598241,-0.72325632\C,0,1.29513213,0.67776302,
 -0.35291008\C,0,2.9148757,0.82698176,0.41044532\O,0,2.54382788,-0.3958
 1953,0.23926044\H,0,-3.28208923,-0.04079633,-0.60796046\H,0,-2.2840058
 ,-1.49605298,-0.70019279\H,0,-2.48099703,-0.65554742,0.83975299\H,0,-1

 Normal termination of Gaussian 16 at Wed Apr  9 18:37:47 2025.
 Gaussian 16:  ES64L-G16RevC.01  3-Jul-2019

 ----------------------------------------------------------------------
 #t hf aug-cc-pvdz iop(5/13=1,5/36=2,99/5=2) pseudo=read geom=check gue
 ss=(read,tcheck) scf=(maxcycle=1)
 ----------------------------------------------------------------------
 -----
 title
 -----
 Structure from the checkpoint file:  "Grambow2020_wb97xd3_007828_reverse_mol1.chk"
 Charge =  0 Multiplicity = 1

                         Standard orientation:
 ---------------------------------------------------------------------
 Center     Atomic      Atomic             Coordinates (Angstroms)
 Number     Number       Type             X           Y           Z
 ---------------------------------------------------------------------
      1          6           0        2.802999   -0.136656    0.332886
      2          6           0        1.522984   -0.703213   -0.265360
      3          6           0        0.284729    0.070701    0.171384
      4          8           0        0.421476    1.389187   -0.285859
      5          6           0       -0.950025   -0.620972   -0.410815
      6          6           0       -2.665988   -0.587551    0.121067
      7          8           0       -2.085266    0.560555    0.203764
      8          1           0        3.671478   -0.705384   -0.002249
      9          1           0        2.940263    0.902806    0.036475
     10          1           0        2.777287   -0.175871    1.424489
     11          1           0        1.577120   -0.678476   -1.358224
     12          1           0        1.405495   -1.750406    0.029349
     13          1           0        0.211418    0.039951    1.268300
     14          1           0       -0.398996    1.852508   -0.098738
     15          1           0       -0.965400   -1.644283   -0.005824
     16          1           0       -1.024236   -0.577575   -1.489204
     17          1           0       -2.852307   -0.995059    1.157412
 ---------------------------------------------------------------------

 SCF Done:  E(RHF) =  -345.090176653     A.U. after    2 cycles

 The electronic state is 1-A.
 Alpha  occ. eigenvalues --  -20.60490 -20.55328 -11.34726 -11.30957 -11.30235
 Alpha  occ. eigenvalues --  -11.24484 -11.22908  -1.51095  -1.46343  -1.09310
 Alpha  occ. eigenvalues --   -1.01028  -0.89764  -0.84491  -0.81068  -0.73863
 Alpha  occ. eigenvalues --   -0.67132  -0.65138  -0.62671  -0.61664  -0.59888
 Alpha  occ. eigenvalues --   -0.57907  -0.55507  -0.54015  -0.52212  -0.50390
 Alpha  occ. eigenvalues --   -0.48276  -0.45481  -0.32480
 Alpha virt. eigenvalues --    0.03188   0.03491   0.03872   0.04602   0.05867
 Alpha virt. eigenvalues --    0.06383   0.06523   0.07026   0.08993   0.09427
 Alpha virt. eigenvalues --    0.09719   0.11190   0.11815   0.12492   0.13817

 Mulliken charges:
               1
     1  C   -0.363906
     2  C   -0.242243
     3  C    0.990684
     4  O   -1.349655
     5  C   -0.283578
     6  C    0.333643
     7  O   -0.847595
     8  H    0.133674
     9  H    0.203648
    10  H    0.161115
    11  H    0.132354
    12  H    0.111149
    13  H    0.169905
    14  H    0.326230
    15  H    0.387513
    16  H    0.089290
    17  H    0.047770
 Sum of Mulliken charges =  -0.00000

 Dipole moment (field-independent basis, Debye):
    X=              1.5870    Y=             -1.4138    Z=              0.8712  Tot=              2.2970

 Test job not archived.
 1\1\GINC-SE028\SP\RHF\Aug-CC-pVDZ\C5H10O2\OHZDE\09-Apr-2025\0\\#t hf a
 ug-cc-pvdz iop(5/13=1,5/36=2,99/5=2) pseudo=read geom=check guess=(rea
 d,tcheck) scf=(maxcycle=1)\\title\\0,1\C,0,-2.37108712,-0.5132304,-0.2
 3795889\C,0,-1.15224942,0.34168817,-0.55556356\C,0,0.14482361,-0.28899
 31,-0.06281093\O,0,0.30130362,-1.51598241,-0.72325632\C,0,1.29513213,0
 .67776302,-0.35291008\C,0,2.9148757,0.82698176,0.41044532\O,0,2.543827
 88,-0.39581953,0.23926044\H,0,-3.28208923,-0.04079633,-0.60796046\H,0,
 -2.2840058,-1.49605298,-0.70019279\H,0,-2.48099703,-0.65554742,0.83975

 Normal termination of Gaussian 16 at Wed Apr  9 18:37:53 2025.
