 Gaussian 16, Revision C.01,

 ----------------------------------------------------------------------
 #t hf aug-cc-pvdz symm=none int=(grid=ultrafine) guess=(read,tcheck) s
 table=(opt,rrhf)
 ----------------------------------------------------------------------
 -----
 title
 -----
 Symbolic Z-matrix:
 Charge =  0 Multiplicity = 1

 SCF Done:  E(RHF) =  -381.871409378     A.U. after   13 cycles

 1\1\GINC-SE054\Stability\RHF\Aug-CC-pVDZ\C4H10O3\OHZDE\09-Apr-2025\0\\
 #t hf aug-cc-pvdz symm=none int=(grid=ultrafine) guess=(read,tcheck) s
 table=(opt,rrhf)\\title\\0,1\C,0,2.63739231,-0.04107977,0.0612306\O,0,
 1.34543489,0.05548373,0.60751828\C,0,0.36569437,-0.4152498,-0.25487499
 \C,0,-1.00922075,-0.2298706,0.34348249\O,0,-1.20073957,0.26071387,1.42
 460203\C,0,-2.18520733,-0.69276262,-0.49709265\O,0,-3.3903417,-0.47990
 88,0.164246\H,0,3.33153343,0.34339509,0.80595944\H,0,2.72796287,0.5547
 974,-0.85610099\H,0,2.89838969,-1.08213354,-0.1680587\H,0,0.41298863,2

 Normal termination of Gaussian 16 at Wed Apr  9 19:14:07 2025.
 Gaussian 16:  ES64L-G16RevC.01  3-Jul-2019

 ----------------------------------------------------------------------
 #t hf aug-cc-pvdz iop(5/13=1,5/36=2,99/5=2) pseudo=read geom=check gue
 ss=(read,tcheck) scf=(maxcycle=1)
 ----------------------------------------------------------------------
 -----
 title
 -----
 Structure from the checkpoint file:  "Grambow2020_wb97xd3_008928_reverse_mol2.chk"
 Charge =  0 Multiplicity = 1

                         Standard orientation:
 ---------------------------------------------------------------------
 Center     Atomic      Atomic             Coordinates (Angstroms)
 Number     Number       Type             X           Y           Z
 ---------------------------------------------------------------------
      1          6           0       -3.037686   -0.259835   -0.085641
      2          8           0       -1.761948    0.300429   -0.274070
      3          6           0       -0.739900   -0.585085    0.036556
      4          6           0        0.608901    0.078800   -0.114377
      5          8           0        0.749832    1.221797   -0.460597
      6          6           0        1.825273   -0.771577    0.203550
      7          8           0        3.002522   -0.054484    0.016765
      8          1           0       -3.766872    0.500799   -0.357664
      9          1           0       -3.194870   -0.550494    0.961059
     10          1           0       -3.185651   -1.141753   -0.721890
     11          1           0       -1.152715    1.505141    2.678437
     12          1           0       -0.820315   -0.953226    1.072749
     13          1           0       -0.759969   -1.474729   -0.613948
     14          1           0       -1.260186    1.551222    1.941078
     15          1           0        1.804903   -1.663033   -0.437705
     16          1           0        1.740137   -1.122327    1.241164
     17          1           0        2.732755    0.832657   -0.260601
 ---------------------------------------------------------------------

 SCF Done:  E(RHF) =  -382.266503753     A.U. after    2 cycles

 The electronic state is 1-A.
 Alpha  occ. eigenvalues --  -20.56629 -20.55691 -20.55023 -11.35292 -11.31671
 Alpha  occ. eigenvalues --  -11.30614 -11.29716  -1.51043  -1.48846  -1.45387
 Alpha  occ. eigenvalues --   -1.05718  -0.97688  -0.90870  -0.78501  -0.73638
 Alpha  occ. eigenvalues --   -0.70792  -0.69176  -0.66436  -0.66092  -0.62150
 Alpha  occ. eigenvalues --   -0.59330  -0.58807  -0.58505  -0.53889  -0.52007
 Alpha  occ. eigenvalues --   -0.50679  -0.45422  -0.43828  -0.43256
 Alpha virt. eigenvalues --    0.02897   0.03687   0.03849   0.05157   0.06238
 Alpha virt. eigenvalues --    0.06423   0.06945   0.07553   0.09337   0.09605
 Alpha virt. eigenvalues --    0.10978   0.11484   0.12846   0.13185   0.15008

 Mulliken charges:
               1
     1  C    0.057575
     2  O   -1.315414
     3  C    0.691906
     4  C    0.746089
     5  O   -1.385383
     6  C    0.824012
     7  O   -1.219053
     8  H   -0.009306
     9  H    0.197864
    10  H    0.208887
    11  H    0.062342
    12  H    0.282293
    13  H    0.173237
    14  H   -0.041348
    15  H    0.223165
    16  H    0.205234
    17  H    0.297901
 Sum of Mulliken charges =  -0.00000

 Dipole moment (field-independent basis, Debye):
    X=             -2.7738    Y=             -3.2154    Z=              0.8625  Tot=              4.3332

 Test job not archived.
 1\1\GINC-SE054\SP\RHF\Aug-CC-pVDZ\C4H10O3\OHZDE\09-Apr-2025\0\\#t hf a
 ug-cc-pvdz iop(5/13=1,5/36=2,99/5=2) pseudo=read geom=check guess=(rea
 d,tcheck) scf=(maxcycle=1)\\title\\0,1\C,0,2.63739231,-0.04107977,0.06
 12306\O,0,1.34543489,0.05548373,0.60751828\C,0,0.36569437,-0.4152498,-
 0.25487499\C,0,-1.00922075,-0.2298706,0.34348249\O,0,-1.20073957,0.260
 71387,1.42460203\C,0,-2.18520733,-0.69276262,-0.49709265\O,0,-3.390341
 7,-0.4799088,0.164246\H,0,3.33153343,0.34339509,0.80595944\H,0,2.72796
 287,0.5547974,-0.85610099\H,0,2.89838969,-1.08213354,-0.1680587\H,0,0.

 Normal termination of Gaussian 16 at Wed Apr  9 19:14:13 2025.
