 Gaussian 16, Revision C.01,

 ----------------------------------------------------------------------
 #t hf aug-cc-pvdz symm=none int=(grid=ultrafine) guess=(read,tcheck) s
 table=(opt,rrhf)
 ----------------------------------------------------------------------
 -----
 title
 -----
 Symbolic Z-matrix:
 Charge =  0 Multiplicity = 1

 SCF Done:  E(RHF) =  -323.750907593     A.U. after   15 cycles
 Normal termination of Gaussian 16 at Wed Apr  9 17:54:09 2025.
 Gaussian 16:  ES64L-G16RevC.01  3-Jul-2019

 ----------------------------------------------------------------------
 #t hf aug-cc-pvdz iop(5/13=1,5/36=2,99/5=2) pseudo=read geom=check gue
 ss=(read,tcheck) scf=(maxcycle=1)
 ----------------------------------------------------------------------
 -----
 title
 -----
 Structure from the checkpoint file:  "Grambow2020_wb97xd3_006867_reverse_mol2.chk"
 Charge =  0 Multiplicity = 1

                         Standard orientation:
 ---------------------------------------------------------------------
 Center     Atomic      Atomic             Coordinates (Angstroms)
 Number     Number       Type             X           Y           Z
 ---------------------------------------------------------------------
      1          6           0       -2.130590    1.030439   -0.063168
      2          7           0       -1.293813    0.059739   -0.188997
      3          6           0       -1.216899   -1.403498   -0.083501
      4          6           0       -0.100629   -0.487470   -0.314597
      5          6           0        1.262517   -0.113476   -0.105284
      6          8           0        2.148449   -0.930974    0.062010
      7          6           0        1.523702    1.378697   -0.107431
      8          1           0       -0.738735    0.346225    2.678456
      9          1           0       -3.176597    0.799867    0.064351
     10          1           0       -1.767566    2.046416   -0.120358
     11          1           0       -1.433282   -1.792059    0.911744
     12          1           0       -1.656803   -1.959178   -0.908676
     13          1           0       -0.142074   -0.082681    2.544719
     14          1           0        2.597089    1.553115   -0.083150
     15          1           0        1.091894    1.853470   -0.990947
     16          1           0        1.066567    1.836281    0.774653
 ---------------------------------------------------------------------

 SCF Done:  E(RHF) =  -324.090259999     A.U. after    2 cycles

 The electronic state is 1-A.
 Alpha  occ. eigenvalues --  -20.50134 -15.63111 -11.32995 -11.31345 -11.30395
 Alpha  occ. eigenvalues --  -11.25852 -11.23732  -1.44029  -1.37987  -1.12424
 Alpha  occ. eigenvalues --   -1.02441  -0.91330  -0.86214  -0.77720  -0.71527
 Alpha  occ. eigenvalues --   -0.71098  -0.66992  -0.61873  -0.60585  -0.59135
 Alpha  occ. eigenvalues --   -0.57242  -0.55787  -0.53815  -0.52103  -0.49070
 Alpha  occ. eigenvalues --   -0.39896  -0.29323
 Alpha virt. eigenvalues --    0.02795   0.03626   0.04096   0.04788   0.05297
 Alpha virt. eigenvalues --    0.05408   0.06321   0.07333   0.07896   0.08915
 Alpha virt. eigenvalues --    0.10569   0.11160   0.11827   0.13128   0.13882

 Mulliken charges:
               1
     1  C   -0.131291
     2  N    1.246304
     3  C    0.029688
     4  C   -0.796313
     5  C    1.321532
     6  O   -1.476657
     7  C   -0.641203
     8  H   -0.012580
     9  H   -0.030960
    10  H   -0.041839
    11  H   -0.104936
    12  H   -0.007938
    13  H    0.040254
    14  H    0.085533
    15  H    0.259767
    16  H    0.260637
 Sum of Mulliken charges =   0.00000

 Dipole moment (field-independent basis, Debye):
    X=             -4.7601    Y=              2.2842    Z=              0.1172  Tot=              5.2811

 Test job not archived.
 1\1\GINC-SE029\SP\RHF\Aug-CC-pVDZ\C5H9N1O1\OHZDE\09-Apr-2025\0\\#t hf
 aug-cc-pvdz iop(5/13=1,5/36=2,99/5=2) pseudo=read geom=check guess=(re
 ad,tcheck) scf=(maxcycle=1)\\title\\0,1\C,0,1.41090067,0.88817133,-1.2
 3345748\N,0,1.08001818,0.18263517,-0.20826281\C,0,1.49293715,-1.014431
 06,0.53647689\C,0,0.29240143,-0.2134156,0.77240239\C,0,-1.08994182,-0.
 12137209,1.12240744\O,0,-1.6245419,-0.89785126,1.89211401\C,0,-1.84194
 946,1.01664693,0.46346859\H,0,-0.54784257,-1.44790186,-2.02592367\H,0,
 2.34630611,0.67752248,-1.72762196\H,0,0.75983867,1.68999082,-1.5504253

 Normal termination of Gaussian 16 at Wed Apr  9 17:54:14 2025.
