 Gaussian 16, Revision C.01,

 ----------------------------------------------------------------------
 #t hf aug-cc-pvdz symm=none int=(grid=ultrafine) guess=(read,tcheck) s
 table=(opt,rrhf)
 ----------------------------------------------------------------------
 -----
 title
 -----
 Symbolic Z-matrix:
 Charge =  0 Multiplicity = 1

 SCF Done:  E(RHF) =  -323.787869380     A.U. after   15 cycles
 Normal termination of Gaussian 16 at Wed Apr  9 18:29:33 2025.
 Gaussian 16:  ES64L-G16RevC.01  3-Jul-2019

 ----------------------------------------------------------------------
 #t hf aug-cc-pvdz iop(5/13=1,5/36=2,99/5=2) pseudo=read geom=check gue
 ss=(read,tcheck) scf=(maxcycle=1)
 ----------------------------------------------------------------------
 -----
 title
 -----
 Structure from the checkpoint file:  "Grambow2020_wb97xd3_007620_reverse_mol2.chk"
 Charge =  0 Multiplicity = 1

                         Standard orientation:
 ---------------------------------------------------------------------
 Center     Atomic      Atomic             Coordinates (Angstroms)
 Number     Number       Type             X           Y           Z
 ---------------------------------------------------------------------
      1          6           0       -1.252513    1.604958   -0.191803
      2          6           0       -1.414311    0.265937    0.470320
      3          7           0       -1.710811   -0.885492   -0.378280
      4          6           0       -0.451912   -0.855264    0.356481
      5          6           0        0.779211   -0.798723   -0.496908
      6          6           0        2.396996    0.830715   -0.098644
      7          8           0        1.878476   -0.285263    0.288285
      8          1           0       -0.703200    1.529742   -1.128662
      9          1           0       -2.232271    2.034249   -0.410196
     10          1           0       -0.713505    2.293946    0.461043
     11          1           0       -1.938110    0.300453    1.422587
     12          1           0       -2.374544   -1.513939    0.054142
     13          1           0       -0.357655   -1.497361    1.227992
     14          1           0        0.653847   -0.157376   -1.367340
     15          1           0        1.074242   -1.799928   -0.815054
     16          1           0        3.194249    1.005014    0.660490
 ---------------------------------------------------------------------

 SCF Done:  E(RHF) =  -324.127064306     A.U. after    2 cycles

 The electronic state is 1-A.
 Alpha  occ. eigenvalues --  -20.61311 -15.50638 -11.30044 -11.29914 -11.27387
 Alpha  occ. eigenvalues --  -11.27267 -11.22711  -1.54131  -1.28129  -1.02849
 Alpha  occ. eigenvalues --   -1.00063  -0.88569  -0.83662  -0.78637  -0.74438
 Alpha  occ. eigenvalues --   -0.69192  -0.66160  -0.61998  -0.59443  -0.57540
 Alpha  occ. eigenvalues --   -0.57183  -0.53739  -0.50305  -0.50018  -0.48388
 Alpha  occ. eigenvalues --   -0.42507  -0.35924
 Alpha virt. eigenvalues --    0.03126   0.04022   0.04141   0.04664   0.05465
 Alpha virt. eigenvalues --    0.05828   0.06473   0.06977   0.09529   0.09995
 Alpha virt. eigenvalues --    0.11545   0.12024   0.13448   0.13766   0.14223

 Mulliken charges:
               1
     1  C   -0.401119
     2  C   -0.466461
     3  N    0.410181
     4  C   -0.124534
     5  C    0.540290
     6  C    0.086145
     7  O   -0.962795
     8  H    0.181295
     9  H    0.183780
    10  H    0.272790
    11  H   -0.181491
    12  H    0.190484
    13  H   -0.182861
    14  H    0.290703
    15  H    0.116856
    16  H    0.046737
 Sum of Mulliken charges =  -0.00000

 Dipole moment (field-independent basis, Debye):
    X=             -1.0332    Y=             -1.3493    Z=              2.2006  Tot=              2.7804

 Test job not archived.
 1\1\GINC-SE108\SP\RHF\Aug-CC-pVDZ\C5H9N1O1\OHZDE\09-Apr-2025\0\\#t hf
 aug-cc-pvdz iop(5/13=1,5/36=2,99/5=2) pseudo=read geom=check guess=(re
 ad,tcheck) scf=(maxcycle=1)\\title\\0,1\C,0,-1.3319069,-0.11848629,1.2
 461511\C,0,-1.288866,0.01446393,-0.24985512\N,0,-1.00307675,1.33226002
 ,-0.81160409\C,0,-0.05856267,0.24598992,-1.04295802\C,0,1.29365493,0.4
 3911882,-0.42542811\C,0,2.21295036,-1.23544707,0.90935202\O,0,1.942004
 11,-0.84534566,-0.28997788\H,0,-0.54612499,0.46151558,1.72703831\H,0,-
 2.29200227,0.23724065,1.6250801\H,0,-1.21088727,-1.16190013,1.5429424\

 Normal termination of Gaussian 16 at Wed Apr  9 18:29:39 2025.
