 Gaussian 16, Revision C.01,

 ----------------------------------------------------------------------
 #t hf aug-cc-pvdz symm=none int=(grid=ultrafine) guess=(read,tcheck) s
 table=(opt,rrhf)
 ----------------------------------------------------------------------
 -----
 title
 -----
 Symbolic Z-matrix:
 Charge =  0 Multiplicity = 1

 SCF Done:  E(RHF) =  -320.210043674     A.U. after   18 cycles
 Normal termination of Gaussian 16 at Wed Apr  9 19:19:44 2025.
 Gaussian 16:  ES64L-G16RevC.01  3-Jul-2019

 ----------------------------------------------------------------------
 #t hf aug-cc-pvdz iop(5/13=1,5/36=2,99/5=2) pseudo=read geom=check gue
 ss=(read,tcheck) scf=(maxcycle=1)
 ----------------------------------------------------------------------
 -----
 title
 -----
 Structure from the checkpoint file:  "Grambow2020_wb97xd3_009366_reverse_mol2.chk"
 Charge =  0 Multiplicity = 1

                         Standard orientation:
 ---------------------------------------------------------------------
 Center     Atomic      Atomic             Coordinates (Angstroms)
 Number     Number       Type             X           Y           Z
 ---------------------------------------------------------------------
      1          6           0       -3.104631    0.585488   -0.451390
      2          6           0       -2.149339    0.076240    0.060361
      3          6           0        0.119075   -0.724116    0.115995
      4          6           0       -1.030255   -0.533514    0.700216
      5          8           0        2.078605    1.092995    0.377423
      6          7           0        2.304719    0.204504   -0.385968
      7          6           0        1.289603   -0.845933   -0.441897
      8          1           0       -3.948489    1.040544   -0.914145
      9          1           0       -1.148027   -0.863177    1.729008
     10          1           0        1.587927   -1.701850   -1.032177
 ---------------------------------------------------------------------

 SCF Done:  E(RHF) =  -320.522563467     A.U. after    2 cycles

 The electronic state is 1-A.
 Alpha  occ. eigenvalues --  -20.61988 -15.65259 -11.31226 -11.30748 -11.29743
 Alpha  occ. eigenvalues --  -11.26947 -11.26129  -1.61017  -1.15415  -1.09964
 Alpha  occ. eigenvalues --   -1.03023  -0.94518  -0.80520  -0.75916  -0.73639
 Alpha  occ. eigenvalues --   -0.72262  -0.69121  -0.64158  -0.62712  -0.50404
 Alpha  occ. eigenvalues --   -0.43235  -0.42869  -0.42229  -0.38097
 Alpha virt. eigenvalues --    0.02911   0.03348   0.03483   0.04087   0.06549
 Alpha virt. eigenvalues --    0.08404   0.08809   0.09310   0.10662   0.11339
 Alpha virt. eigenvalues --    0.11881   0.12542   0.13642   0.14312   0.14817

 Mulliken charges:
               1
     1  C    0.285932
     2  C    0.140390
     3  C    0.254126
     4  C    0.277793
     5  O   -1.004739
     6  N    1.102305
     7  C   -0.411148
     8  H   -0.380339
     9  H   -0.179404
    10  H   -0.084915
 Sum of Mulliken charges =  -0.00000

 Dipole moment (field-independent basis, Debye):
    X=             -2.2753    Y=             -1.5528    Z=              0.1872  Tot=              2.7611

 Test job not archived.
 1\1\GINC-SE173\SP\RHF\Aug-CC-pVDZ\C5H3N1O1\OHZDE\09-Apr-2025\0\\#t hf
 aug-cc-pvdz iop(5/13=1,5/36=2,99/5=2) pseudo=read geom=check guess=(re
 ad,tcheck) scf=(maxcycle=1)\\title\\0,1\C,0,2.56377013,0.98708531,0.69
 574405\C,0,1.53530378,0.8616246,0.09547692\C,0,-0.48535887,-0.27939332
 ,-0.54042387\C,0,0.31573106,0.74435504,-0.63421801\O,0,-2.54665568,-0.
 22125409,1.17936303\N,0,-2.36899454,-1.26548228,0.63042413\C,0,-1.3225
 8418,-1.26567831,-0.39037535\H,0,3.47602375,1.09062735,1.23461977\H,0,
 0.04629841,1.55116524,-1.31054906\H,0,-1.28245286,-2.18090155,-0.96550

 Normal termination of Gaussian 16 at Wed Apr  9 19:19:47 2025.
