 Gaussian 16, Revision C.01,

 ----------------------------------------------------------------------
 #t hf aug-cc-pvdz symm=none int=(grid=ultrafine) guess=(read,tcheck) s
 table=(opt,rrhf)
 ----------------------------------------------------------------------
 -----
 title
 -----
 Symbolic Z-matrix:
 Charge =  0 Multiplicity = 1

 SCF Done:  E(RHF) =  -357.326970785     A.U. after   16 cycles
 Normal termination of Gaussian 16 at Wed Apr  9 19:08:36 2025.
 Gaussian 16:  ES64L-G16RevC.01  3-Jul-2019

 ----------------------------------------------------------------------
 #t hf aug-cc-pvdz iop(5/13=1,5/36=2,99/5=2) pseudo=read geom=check gue
 ss=(read,tcheck) scf=(maxcycle=1)
 ----------------------------------------------------------------------
 -----
 title
 -----
 Structure from the checkpoint file:  "Grambow2020_wb97xd3_008637_forward_mol1.chk"
 Charge =  0 Multiplicity = 1

                         Standard orientation:
 ---------------------------------------------------------------------
 Center     Atomic      Atomic             Coordinates (Angstroms)
 Number     Number       Type             X           Y           Z
 ---------------------------------------------------------------------
      1          7           0       -2.133274    0.111762    0.534352
      2          6           0       -1.155101   -0.362377   -0.219687
      3          6           0       -0.626869    0.987469   -0.385720
      4          6           0        0.712032    1.209038   -0.036918
      5          6           0        1.552327    0.160892    0.104579
      6          8           0        2.373777   -0.612809    0.236582
      7          8           0       -0.572235   -1.421422   -0.391744
      8          1           0       -2.285236   -0.456674    1.368616
      9          1           0       -1.250185    1.793968   -0.736474
     10          1           0        1.161673    2.184090    0.095171
 ---------------------------------------------------------------------

 SCF Done:  E(RHF) =  -357.671361479     A.U. after    2 cycles

 The electronic state is 1-A.
 Alpha  occ. eigenvalues --  -20.68354 -20.50757 -15.50151 -11.46397 -11.35550
 Alpha  occ. eigenvalues --  -11.35218 -11.30105  -1.63201  -1.45354  -1.22879
 Alpha  occ. eigenvalues --   -1.14577  -0.97587  -0.84271  -0.79776  -0.75300
 Alpha  occ. eigenvalues --   -0.70585  -0.69726  -0.66808  -0.64048  -0.62832
 Alpha  occ. eigenvalues --   -0.57527  -0.50273  -0.44977  -0.42216  -0.37586
 Alpha virt. eigenvalues --    0.02025   0.02792   0.03928   0.05272   0.06871
 Alpha virt. eigenvalues --    0.08966   0.09704   0.09974   0.11126   0.11252
 Alpha virt. eigenvalues --    0.12219   0.12472   0.13725   0.14457   0.14775

 Mulliken charges:
               1
     1  N    0.399804
     2  C    0.061028
     3  C    0.129122
     4  C    0.929600
     5  C    0.366345
     6  O   -0.761546
     7  O   -1.160542
     8  H    0.144265
     9  H   -0.045605
    10  H   -0.062472
 Sum of Mulliken charges =  -0.00000

 Dipole moment (field-independent basis, Debye):
    X=              3.0839    Y=              4.3171    Z=              0.2500  Tot=              5.3113

 Test job not archived.
 1\1\GINC-SE135\SP\RHF\Aug-CC-pVDZ\C4H3N1O2\OHZDE\09-Apr-2025\0\\#t hf
 aug-cc-pvdz iop(5/13=1,5/36=2,99/5=2) pseudo=read geom=check guess=(re
 ad,tcheck) scf=(maxcycle=1)\\title\\0,1\N,0,1.90077785,-0.47263726,0.3
 2365115\C,0,1.09911989,0.2437523,-0.44728134\C,0,0.07613676,-0.7918056
 6,-0.34826083\C,0,-1.19349789,-0.41007327,0.10530459\C,0,-1.54218632,0
 .89496813,0.10818442\O,0,-1.98045398,1.9424099,0.14825296\O,0,0.953242
 89,1.41270036,-0.76851639\H,0,2.35726099,0.09690174,1.03741387\H,0,0.2
 9460951,-1.82001854,-0.58708855\H,0,-1.96500871,-1.0961997,0.42834013\

 Normal termination of Gaussian 16 at Wed Apr  9 19:08:39 2025.
