 Gaussian 16, Revision C.01,

 ----------------------------------------------------------------------
 #t hf aug-cc-pvdz symm=none int=(grid=ultrafine) guess=(read,tcheck) s
 table=(opt,rrhf)
 ----------------------------------------------------------------------
 -----
 title
 -----
 Symbolic Z-matrix:
 Charge =  0 Multiplicity = 1

 SCF Done:  E(RHF) =  -338.622582055     A.U. after   15 cycles
 Normal termination of Gaussian 16 at Wed Apr  9 03:40:24 2025.
 Gaussian 16:  ES64L-G16RevC.01  3-Jul-2019

 ----------------------------------------------------------------------
 #t hf aug-cc-pvdz iop(5/13=1,5/36=2,99/5=2) pseudo=read geom=check gue
 ss=(read,tcheck) scf=(maxcycle=1)
 ----------------------------------------------------------------------
 -----
 title
 -----
 Structure from the checkpoint file:  "Grambow2020_wb97xd3_007480_reverse_mol2.chk"
 Charge =  0 Multiplicity = 1

                         Standard orientation:
 ---------------------------------------------------------------------
 Center     Atomic      Atomic             Coordinates (Angstroms)
 Number     Number       Type             X           Y           Z
 ---------------------------------------------------------------------
      1          6           0        2.510901    0.330629   -0.164705
      2          8           0        1.459911   -0.644199    0.000048
      3          6           0        0.272535   -0.278806    0.082933
      4          6           0       -0.262049    1.100096    0.033096
      5          7           0       -1.705723    0.940436   -0.049493
      6          6           0       -1.931019   -0.310105   -0.043146
      7          7           0       -0.801605   -1.116207    0.048026
      8          1           0        2.357232    1.128464    0.567239
      9          1           0        0.192033    1.595700   -0.845658
     10          1           0        3.426404   -0.221198    0.031626
     11          1           0        0.030452    1.712003    0.893229
     12          1           0       -2.913061   -0.763164   -0.093136
     13          1           0       -0.763254   -2.118692    0.007520
 ---------------------------------------------------------------------

 SCF Done:  E(RHF) =  -338.964722913     A.U. after    2 cycles

 The electronic state is 1-A.
 Alpha  occ. eigenvalues --  -20.63621 -15.59904 -15.52804 -11.41004 -11.36271
 Alpha  occ. eigenvalues --  -11.30373 -11.19879  -1.58164  -1.38045  -1.22898
 Alpha  occ. eigenvalues --   -1.06515  -0.95533  -0.89897  -0.87538  -0.78538
 Alpha  occ. eigenvalues --   -0.72667  -0.72151  -0.68044  -0.63612  -0.61223
 Alpha  occ. eigenvalues --   -0.59292  -0.58271  -0.51465  -0.48290  -0.45346
 Alpha  occ. eigenvalues --   -0.25268
 Alpha virt. eigenvalues --    0.01549   0.03823   0.04679   0.05951   0.06080
 Alpha virt. eigenvalues --    0.06770   0.07079   0.08621   0.09582   0.10060
 Alpha virt. eigenvalues --    0.11529   0.12257   0.12478   0.13583   0.14612

 Mulliken charges:
               1
     1  C   -0.099151
     2  O   -1.312129
     3  C    0.595314
     4  C   -0.751810
     5  N    0.718538
     6  C   -0.366612
     7  N    0.763941
     8  H   -0.009267
     9  H    0.341562
    10  H   -0.088837
    11  H    0.203789
    12  H   -0.010268
    13  H    0.014929
 Sum of Mulliken charges =  -0.00000

 Dipole moment (field-independent basis, Debye):
    X=             -4.7714    Y=             -3.7421    Z=              1.7288  Tot=              6.3054

 Test job not archived.
 1\1\GINC-SE458\SP\RHF\Aug-CC-pVDZ\C4H6N2O1\OHZDE\09-Apr-2025\0\\#t hf
 aug-cc-pvdz iop(5/13=1,5/36=2,99/5=2) pseudo=read geom=check guess=(re
 ad,tcheck) scf=(maxcycle=1)\\title\\0,1\C,0,-2.32528616,-0.32893979,-0
 .25576972\O,0,-1.08243672,-1.02478311,-0.02524455\C,0,-0.00880138,-0.3
 9545628,0.01347493\C,0,0.2005781,1.06012626,-0.15106603\N,0,1.59378259
 ,1.28169655,0.20445194\C,0,2.07304965,0.14512103,0.50965819\N,0,1.1845
 7524,-0.9199227,0.40973666\H,0,-2.19007878,0.34241479,-1.10835258\H,0,
 -0.52458972,1.5719141,0.50940881\H,0,-3.04069227,-1.11671598,-0.476695

 Normal termination of Gaussian 16 at Wed Apr  9 03:40:28 2025.
