 Gaussian 16, Revision C.01,

 ----------------------------------------------------------------------
 #t hf aug-cc-pvdz symm=none int=(grid=ultrafine) guess=(read,tcheck) s
 table=(opt,rrhf)
 ----------------------------------------------------------------------
 -----
 title
 -----
 Symbolic Z-matrix:
 Charge =  0 Multiplicity = 1

 SCF Done:  E(RHF) =  -344.936888235     A.U. after   13 cycles

 1\1\GINC-SE030\Stability\RHF\Aug-CC-pVDZ\C5H10O2\OHZDE\09-Apr-2025\0\\
 #t hf aug-cc-pvdz symm=none int=(grid=ultrafine) guess=(read,tcheck) s
 table=(opt,rrhf)\\title\\0,1\C,0,1.90179999,0.62400831,-0.72053618\C,0
 ,1.57187824,-0.21690696,0.46997336\C,0,1.22651232,0.24465418,1.6628744
 3\O,0,-2.06128955,-1.58875457,0.3519613\C,0,-1.59593214,-0.77045398,-0
 .60891908\C,0,-1.94454314,0.66068085,-0.34217966\O,0,-0.96966159,-1.18
 030144,-1.54915153\H,0,1.23826539,0.37733253,-1.55295087\H,0,2.9237954
 3,0.43343274,-1.05805211\H,0,1.80702814,1.68801524,-0.4970915\H,0,1.61

 Normal termination of Gaussian 16 at Wed Apr  9 18:06:51 2025.
 Gaussian 16:  ES64L-G16RevC.01  3-Jul-2019

 ----------------------------------------------------------------------
 #t hf aug-cc-pvdz iop(5/13=1,5/36=2,99/5=2) pseudo=read geom=check gue
 ss=(read,tcheck) scf=(maxcycle=1)
 ----------------------------------------------------------------------
 -----
 title
 -----
 Structure from the checkpoint file:  "Grambow2020_wb97xd3_007103_reverse_mol2.chk"
 Charge =  0 Multiplicity = 1

                         Standard orientation:
 ---------------------------------------------------------------------
 Center     Atomic      Atomic             Coordinates (Angstroms)
 Number     Number       Type             X           Y           Z
 ---------------------------------------------------------------------
      1          6           0       -2.176927   -1.097283    0.091007
      2          6           0       -1.854194    0.235371   -0.503278
      3          6           0       -1.924223    1.395707    0.132370
      4          8           0        1.967574    0.929523   -0.592964
      5          6           0        1.478911   -0.199198   -0.048298
      6          6           0        1.300382   -0.074002    1.432675
      7          8           0        1.220153   -1.168163   -0.710399
      8          1           0       -1.312794   -1.762242    0.019281
      9          1           0       -2.995505   -1.575800   -0.452742
     10          1           0       -2.467309   -1.007853    1.139196
     11          1           0       -1.530367    0.225713   -1.541467
     12          1           0       -2.244007    1.455130    1.168473
     13          1           0       -1.670459    2.327461   -0.358282
     14          1           0        2.030330    0.774894   -1.543894
     15          1           0        0.495385    0.637672    1.622843
     16          1           0        1.040571   -1.041625    1.852281
     17          1           0        2.208651    0.312205    1.894357
 ---------------------------------------------------------------------

 SCF Done:  E(RHF) =  -345.295790715     A.U. after    2 cycles

 The electronic state is 1-A.
 Alpha  occ. eigenvalues --  -20.59956 -20.53579 -11.39413 -11.25062 -11.24106
 Alpha  occ. eigenvalues --  -11.22614 -11.22582  -1.55230  -1.45306  -1.06854
 Alpha  occ. eigenvalues --   -1.03173  -0.93440  -0.82639  -0.76068  -0.71049
 Alpha  occ. eigenvalues --   -0.68548  -0.65461  -0.64798  -0.59463  -0.58234
 Alpha  occ. eigenvalues --   -0.57622  -0.56864  -0.56046  -0.52898  -0.49713
 Alpha  occ. eigenvalues --   -0.47516  -0.44524  -0.36920
 Alpha virt. eigenvalues --    0.03509   0.03813   0.04261   0.04528   0.05867
 Alpha virt. eigenvalues --    0.06416   0.06712   0.07506   0.07605   0.09146
 Alpha virt. eigenvalues --    0.11061   0.12425   0.13192   0.14006   0.14361

 Mulliken charges:
               1
     1  C   -0.646675
     2  C    0.627465
     3  C   -0.060013
     4  O   -1.273609
     5  C    2.078699
     6  C   -0.511094
     7  O   -1.256083
     8  H    0.225166
     9  H    0.174577
    10  H    0.102882
    11  H   -0.205980
    12  H   -0.126160
    13  H   -0.121758
    14  H    0.361101
    15  H    0.274192
    16  H    0.171194
    17  H    0.186097
 Sum of Mulliken charges =  -0.00000

 Dipole moment (field-independent basis, Debye):
    X=              0.3277    Y=              1.0271    Z=              0.8295  Tot=              1.3604

 Test job not archived.
 1\1\GINC-SE030\SP\RHF\Aug-CC-pVDZ\C5H10O2\OHZDE\09-Apr-2025\0\\#t hf a
 ug-cc-pvdz iop(5/13=1,5/36=2,99/5=2) pseudo=read geom=check guess=(rea
 d,tcheck) scf=(maxcycle=1)\\title\\0,1\C,0,1.90179999,0.62400831,-0.72
 053618\C,0,1.57187824,-0.21690696,0.46997336\C,0,1.22651232,0.24465418
 ,1.66287443\O,0,-2.06128955,-1.58875457,0.3519613\C,0,-1.59593214,-0.7
 7045398,-0.60891908\C,0,-1.94454314,0.66068085,-0.34217966\O,0,-0.9696
 6159,-1.18030144,-1.54915153\H,0,1.23826539,0.37733253,-1.55295087\H,0
 ,2.92379543,0.43343274,-1.05805211\H,0,1.80702814,1.68801524,-0.497091

 Normal termination of Gaussian 16 at Wed Apr  9 18:06:58 2025.
