 Gaussian 16, Revision C.01,

 ----------------------------------------------------------------------
 #t hf aug-cc-pvdz symm=none int=(grid=ultrafine) guess=(read,tcheck) s
 table=(opt,rrhf)
 ----------------------------------------------------------------------
 -----
 title
 -----
 Symbolic Z-matrix:
 Charge =  0 Multiplicity = 1

 SCF Done:  E(RHF) =  -322.484652976     A.U. after   16 cycles
 Normal termination of Gaussian 16 at Wed Apr  9 17:17:33 2025.
 Gaussian 16:  ES64L-G16RevC.01  3-Jul-2019

 ----------------------------------------------------------------------
 #t hf aug-cc-pvdz iop(5/13=1,5/36=2,99/5=2) pseudo=read geom=check gue
 ss=(read,tcheck) scf=(maxcycle=1)
 ----------------------------------------------------------------------
 -----
 title
 -----
 Structure from the checkpoint file:  "Grambow2020_wb97xd3_006557_reverse_mol1.chk"
 Charge =  0 Multiplicity = 1

                         Standard orientation:
 ---------------------------------------------------------------------
 Center     Atomic      Atomic             Coordinates (Angstroms)
 Number     Number       Type             X           Y           Z
 ---------------------------------------------------------------------
      1          8           0       -2.187720    0.348997    0.184767
      2          6           0       -1.120878   -0.514988   -0.100018
      3          6           0       -0.083535    0.093750   -1.082155
      4          6           0        0.522271    0.947250    0.094297
      5          6           0        1.906776    0.359087    0.021012
      6          7           0        1.148560   -0.941184   -0.024766
      7          6           0        0.036765   -0.320391    0.830387
      8          1           0       -2.739062    0.419876   -0.597789
      9          1           0       -1.451752   -1.539952   -0.299059
     10          1           0        0.755196   -0.867714   -1.195681
     11          1           0        0.222149    1.977574    0.270297
     12          1           0        2.494521    0.549742   -0.879945
     13          1           0        2.533163    0.416606    0.913663
     14          1           0        0.079233   -0.548069    1.902606
 ---------------------------------------------------------------------

 SCF Done:  E(RHF) =  -322.814284754     A.U. after    2 cycles

 The electronic state is 1-A.
 Alpha  occ. eigenvalues --  -20.56458 -15.55302 -11.29729 -11.29121 -11.27906
 Alpha  occ. eigenvalues --  -11.27488 -11.26066  -1.47240  -1.32307  -1.05582
 Alpha  occ. eigenvalues --   -0.97370  -0.90441  -0.85818  -0.72584  -0.70627
 Alpha  occ. eigenvalues --   -0.69624  -0.66436  -0.62670  -0.59530  -0.56392
 Alpha  occ. eigenvalues --   -0.54259  -0.51962  -0.47837  -0.44615  -0.43365
 Alpha  occ. eigenvalues --   -0.33556
 Alpha virt. eigenvalues --    0.03596   0.03732   0.04251   0.04761   0.05595
 Alpha virt. eigenvalues --    0.06024   0.06865   0.08152   0.09867   0.10792
 Alpha virt. eigenvalues --    0.12239   0.13144   0.13392   0.14528   0.14730

 Mulliken charges:
               1
     1  O   -1.364794
     2  C    1.662567
     3  C   -0.807616
     4  C    0.567545
     5  C   -0.083609
     6  N    0.150319
     7  C   -0.643109
     8  H    0.303532
     9  H    0.080538
    10  H    0.522433
    11  H   -0.167519
    12  H    0.019679
    13  H   -0.054523
    14  H   -0.185443
 Sum of Mulliken charges =  -0.00000

 Dipole moment (field-independent basis, Debye):
    X=             -0.1720    Y=              0.9546    Z=              0.4346  Tot=              1.0629

 Test job not archived.
 1\1\GINC-SE113\SP\RHF\Aug-CC-pVDZ\C5H7N1O1\OHZDE\09-Apr-2025\0\\#t hf
 aug-cc-pvdz iop(5/13=1,5/36=2,99/5=2) pseudo=read geom=check guess=(re
 ad,tcheck) scf=(maxcycle=1)\\title\\0,1\O,0,2.3010772,0.14159239,0.514
 24698\C,0,1.27664213,0.31884682,-0.42641196\C,0,0.32944483,-0.90632572
 ,-0.54044282\C,0,-0.39534985,-0.46329768,0.78541508\C,0,-1.75938983,-0
 .29030656,0.17089974\N,0,-0.98433395,0.45963446,-0.88008535\C,0,0.0338
 8862,0.89195184,0.18249791\H,0,2.92304978,-0.50284619,0.16892851\H,0,1
 .63741939,0.75696652,-1.36318233\H,0,-0.48291961,-0.5169624,-1.4510644

 Normal termination of Gaussian 16 at Wed Apr  9 17:17:38 2025.
