 Gaussian 16, Revision C.01,

 ----------------------------------------------------------------------
 #t hf aug-cc-pvdz symm=none int=(grid=ultrafine) guess=(read,tcheck) s
 table=(opt,rrhf)
 ----------------------------------------------------------------------
 -----
 title
 -----
 Symbolic Z-matrix:
 Charge =  0 Multiplicity = 1

 SCF Done:  E(RHF) =  -343.504871488     A.U. after   15 cycles
 Normal termination of Gaussian 16 at Wed Apr  9 03:28:21 2025.
 Gaussian 16:  ES64L-G16RevC.01  3-Jul-2019

 ----------------------------------------------------------------------
 #t hf aug-cc-pvdz iop(5/13=1,5/36=2,99/5=2) pseudo=read geom=check gue
 ss=(read,tcheck) scf=(maxcycle=1)
 ----------------------------------------------------------------------
 -----
 title
 -----
 Structure from the checkpoint file:  "Grambow2020_wb97xd3_006709_forward_mol1.chk"
 Charge =  0 Multiplicity = 1

                         Standard orientation:
 ---------------------------------------------------------------------
 Center     Atomic      Atomic             Coordinates (Angstroms)
 Number     Number       Type             X           Y           Z
 ---------------------------------------------------------------------
      1          8           0        2.504184    0.223620   -0.251817
      2          6           0        1.823554   -0.892107    0.044515
      3          6           0        0.036216    0.089989    0.874544
      4          8           0       -0.130645    1.048846   -0.176230
      5          6           0       -1.502925    0.664410   -0.296148
      6          6           0       -1.632212   -0.741681   -0.740350
      7          6           0       -1.361802   -0.443359    0.713544
      8          1           0        2.086697    0.714534   -0.972998
      9          1           0        1.198931   -1.232509   -0.792121
     10          1           0        1.068307   -0.771140    1.003267
     11          1           0        0.245292    0.597547    1.821153
     12          1           0       -2.235049    1.451314   -0.413139
     13          1           0       -0.869420   -1.181266   -1.371475
     14          1           0       -2.645187   -1.067765   -0.941068
     15          1           0       -2.014859   -0.753943    1.514137
 ---------------------------------------------------------------------

 SCF Done:  E(RHF) =  -343.858662643     A.U. after    2 cycles

 The electronic state is 1-A.
 Alpha  occ. eigenvalues --  -20.57082 -20.57002 -11.32691 -11.31600 -11.29226
 Alpha  occ. eigenvalues --  -11.26472 -11.26039  -1.50770  -1.48349  -1.15892
 Alpha  occ. eigenvalues --   -0.98459  -0.89178  -0.84384  -0.77224  -0.74809
 Alpha  occ. eigenvalues --   -0.72092  -0.68002  -0.65928  -0.59274  -0.58235
 Alpha  occ. eigenvalues --   -0.56202  -0.54967  -0.52693  -0.48069  -0.44482
 Alpha  occ. eigenvalues --   -0.40712  -0.30964
 Alpha virt. eigenvalues --    0.02776   0.03455   0.03695   0.04692   0.05951
 Alpha virt. eigenvalues --    0.06493   0.07208   0.07817   0.09949   0.11831
 Alpha virt. eigenvalues --    0.12300   0.12754   0.13027   0.13664   0.14436

 Mulliken charges:
               1
     1  O   -0.994600
     2  C    0.238636
     3  C    0.060897
     4  O   -1.422187
     5  C    1.306864
     6  C    0.218368
     7  C    0.033283
     8  H    0.394104
     9  H    0.084402
    10  H    0.743221
    11  H   -0.079810
    12  H   -0.146223
    13  H   -0.141212
    14  H   -0.094597
    15  H   -0.201145
 Sum of Mulliken charges =  -0.00000

 Dipole moment (field-independent basis, Debye):
    X=             -4.1736    Y=              0.3749    Z=             -0.6349  Tot=              4.2382

 Test job not archived.
 1\1\GINC-SE460\SP\RHF\Aug-CC-pVDZ\C5H8O2\OHZDE\09-Apr-2025\0\\#t hf au
 g-cc-pvdz iop(5/13=1,5/36=2,99/5=2) pseudo=read geom=check guess=(read
 ,tcheck) scf=(maxcycle=1)\\title\\0,1\O,0,2.46140653,0.99571632,0.7874
 3718\C,0,2.1197559,0.37333724,-0.34915232\C,0,0.39151546,-0.73072943,0
 .45225806\O,0,-0.20588731,0.37265598,1.14292805\C,0,-1.45491051,0.0796
 4133,0.51094196\C,0,-1.37321034,0.26257866,-0.95568099\C,0,-0.85899668
 ,-1.01314331,-0.33596705\H,0,1.79921361,1.65082302,1.04768517\H,0,1.41
 406229,0.96260657,-0.94977205\H,0,1.58715016,-0.71766359,-0.17512671\H

 Normal termination of Gaussian 16 at Wed Apr  9 03:28:26 2025.
