 Gaussian 16, Revision C.01,

 ----------------------------------------------------------------------
 #t hf aug-cc-pvdz symm=none int=(grid=ultrafine) guess=(read,tcheck) s
 table=(opt,rrhf)
 ----------------------------------------------------------------------
 -----
 title
 -----
 Symbolic Z-matrix:
 Charge =  0 Multiplicity = 1

 SCF Done:  E(RHF) =  -323.756406988     A.U. after   15 cycles
 Normal termination of Gaussian 16 at Wed Apr  9 19:14:16 2025.
 Gaussian 16:  ES64L-G16RevC.01  3-Jul-2019

 ----------------------------------------------------------------------
 #t hf aug-cc-pvdz iop(5/13=1,5/36=2,99/5=2) pseudo=read geom=check gue
 ss=(read,tcheck) scf=(maxcycle=1)
 ----------------------------------------------------------------------
 -----
 title
 -----
 Structure from the checkpoint file:  "Grambow2020_wb97xd3_008931_forward_mol1.chk"
 Charge =  0 Multiplicity = 1

                         Standard orientation:
 ---------------------------------------------------------------------
 Center     Atomic      Atomic             Coordinates (Angstroms)
 Number     Number       Type             X           Y           Z
 ---------------------------------------------------------------------
      1          6           0        2.255846   -0.194584    0.551725
      2          6           0        1.108876   -0.274871   -0.435314
      3          6           0        0.017069   -1.345605   -0.227645
      4          7           0       -1.022115   -0.280713   -0.246805
      5          6           0       -2.418557   -0.196409    0.462953
      6          6           0       -0.011768    0.746304   -0.250964
      7          8           0       -0.101421    1.913321   -0.076355
      8          1           0        1.891819   -0.209585    1.580567
      9          1           0        2.815821    0.729395    0.406610
     10          1           0        2.939551   -1.033867    0.417586
     11          1           0        1.473605   -0.249690   -1.465028
     12          1           0       -0.113307   -2.091372   -1.008111
     13          1           0        0.038194   -1.819676    0.754863
     14          1           0       -1.829830   -0.113166   -0.947093
     15          1           0       -2.698743   -1.245283    0.565257
     16          1           0       -2.259738    0.282657    1.429301
 ---------------------------------------------------------------------

 SCF Done:  E(RHF) =  -324.094388603     A.U. after    2 cycles

 The electronic state is 1-A.
 Alpha  occ. eigenvalues --  -20.56904 -15.58053 -11.39096 -11.30884 -11.28673
 Alpha  occ. eigenvalues --  -11.26117 -11.20561  -1.51771  -1.32002  -1.11155
 Alpha  occ. eigenvalues --   -0.99520  -0.93872  -0.86143  -0.79284  -0.72765
 Alpha  occ. eigenvalues --   -0.71092  -0.67795  -0.65555  -0.61624  -0.59198
 Alpha  occ. eigenvalues --   -0.56803  -0.55607  -0.53858  -0.52230  -0.49233
 Alpha  occ. eigenvalues --   -0.45030  -0.29514
 Alpha virt. eigenvalues --    0.02161   0.03231   0.03543   0.04342   0.05443
 Alpha virt. eigenvalues --    0.05967   0.06745   0.06927   0.08415   0.10005
 Alpha virt. eigenvalues --    0.10885   0.11632   0.12416   0.12742   0.13364

 Mulliken charges:
               1
     1  C   -0.200453
     2  C   -0.614236
     3  C    0.068425
     4  N    0.141390
     5  C   -0.450346
     6  C    0.847672
     7  O   -1.201110
     8  H    0.196887
     9  H    0.200897
    10  H    0.195565
    11  H    0.125860
    12  H    0.007199
    13  H    0.059309
    14  H    0.650835
    15  H   -0.034075
    16  H    0.006179
 Sum of Mulliken charges =  -0.00000

 Dipole moment (field-independent basis, Debye):
    X=              4.8409    Y=             -3.8454    Z=             -1.2168  Tot=              6.3010

 Test job not archived.
 1\1\GINC-SE125\SP\RHF\Aug-CC-pVDZ\C5H9N1O1\OHZDE\09-Apr-2025\0\\#t hf
 aug-cc-pvdz iop(5/13=1,5/36=2,99/5=2) pseudo=read geom=check guess=(re
 ad,tcheck) scf=(maxcycle=1)\\title\\0,1\C,0,2.12818901,-0.44763949,0.1
 8976309\C,0,0.99080134,0.51155019,-0.09753355\C,0,-0.13661285,0.069609
 59,-1.05422905\N,0,-1.14135703,0.36780436,0.00210214\C,0,-2.54259289,-
 0.27327608,0.29615645\C,0,-0.09910214,0.60330304,0.96844878\O,0,-0.153
 8791,0.72052111,2.14476182\H,0,1.75193941,-1.44192991,0.43690291\H,0,2
 .71871128,-0.09206944,1.03428749\H,0,2.78656149,-0.53538948,-0.6755034

 Normal termination of Gaussian 16 at Wed Apr  9 19:14:23 2025.
