 Gaussian 16, Revision C.01,

 ----------------------------------------------------------------------
 #t hf aug-cc-pvdz symm=none int=(grid=ultrafine) guess=(read,tcheck) s
 table=(opt,rrhf)
 ----------------------------------------------------------------------
 -----
 title
 -----
 Symbolic Z-matrix:
 Charge =  0 Multiplicity = 1

 SCF Done:  E(RHF) =  -306.692008503     A.U. after   14 cycles
 Normal termination of Gaussian 16 at Wed Apr  9 19:00:53 2025.
 Gaussian 16:  ES64L-G16RevC.01  3-Jul-2019

 ----------------------------------------------------------------------
 #t hf aug-cc-pvdz iop(5/13=1,5/36=2,99/5=2) pseudo=read geom=check gue
 ss=(read,tcheck) scf=(maxcycle=1)
 ----------------------------------------------------------------------
 -----
 title
 -----
 Structure from the checkpoint file:  "Grambow2020_wb97xd3_008443_reverse_mol2.chk"
 Charge =  0 Multiplicity = 1

                         Standard orientation:
 ---------------------------------------------------------------------
 Center     Atomic      Atomic             Coordinates (Angstroms)
 Number     Number       Type             X           Y           Z
 ---------------------------------------------------------------------
      1          6           0       -1.746727   -0.841860   -0.487029
      2          6           0       -1.223587    0.397421    0.183995
      3          6           0       -0.004396    0.414185    1.045953
      4          8           0        0.901707   -0.663929    0.948114
      5          6           0        1.442409   -0.618999   -0.301335
      6          6           0        1.018432    0.394643   -1.049446
      7          6           0        0.011500    1.159686   -0.272821
      8          1           0       -2.297115   -1.460439    0.224494
      9          1           0       -2.423307   -0.579990   -1.302924
     10          1           0       -1.995318    1.056721    0.567607
     11          1           0       -0.003374    0.868555    2.027312
     12          1           0       -0.942801   -1.448647   -0.902317
     13          1           0        2.141001   -1.412464   -0.522915
     14          1           0        1.350435    0.618202   -2.050540
     15          1           0       -0.028975    2.239041   -0.341538
 ---------------------------------------------------------------------

 SCF Done:  E(RHF) =  -307.012553518     A.U. after    2 cycles

 The electronic state is 1-A.
 Alpha  occ. eigenvalues --  -20.57019 -11.29206 -11.28977 -11.24327 -11.24025
 Alpha  occ. eigenvalues --  -11.22643 -11.22235  -1.50625  -1.15789  -1.04066
 Alpha  occ. eigenvalues --   -0.97175  -0.84282  -0.81174  -0.74146  -0.73259
 Alpha  occ. eigenvalues --   -0.66697  -0.60882  -0.58706  -0.57419  -0.56800
 Alpha  occ. eigenvalues --   -0.54687  -0.54126  -0.49775  -0.45167  -0.40613
 Alpha  occ. eigenvalues --   -0.32296
 Alpha virt. eigenvalues --    0.03424   0.03692   0.04056   0.04270   0.05674
 Alpha virt. eigenvalues --    0.05965   0.06570   0.07811   0.10205   0.11899
 Alpha virt. eigenvalues --    0.12527   0.13041   0.13595   0.14218   0.14765

 Mulliken charges:
               1
     1  C   -0.639114
     2  C   -0.022752
     3  C    1.283330
     4  O   -1.531347
     5  C    0.681199
     6  C    0.312486
     7  C    0.127650
     8  H    0.188331
     9  H    0.176770
    10  H   -0.152697
    11  H   -0.175255
    12  H    0.212740
    13  H   -0.129032
    14  H   -0.125819
    15  H   -0.206491
 Sum of Mulliken charges =  -0.00000

 Dipole moment (field-independent basis, Debye):
    X=             -0.5248    Y=              0.7689    Z=             -0.5856  Tot=              1.0998

 Test job not archived.
 1\1\GINC-SE104\SP\RHF\Aug-CC-pVDZ\C6H8O1\OHZDE\09-Apr-2025\0\\#t hf au
 g-cc-pvdz iop(5/13=1,5/36=2,99/5=2) pseudo=read geom=check guess=(read
 ,tcheck) scf=(maxcycle=1)\\title\\0,1\C,0,0.90799748,1.28159506,0.8015
 3711\C,0,1.1046092,0.03682359,-0.01800812\C,0,0.33138974,-1.22201015,0
 .19913253\O,0,-0.86913401,-1.15325539,0.93868754\C,0,-1.74597418,-0.40
 93763,0.20841637\C,0,-1.27368809,0.00803784,-0.96188555\C,0,0.13406418
 ,-0.44485286,-1.08627736\H,0,1.41400256,1.19101324,1.76464919\H,0,1.31
 802181,2.15084843,0.28355989\H,0,2.13791932,-0.1669274,-0.27908285\H,0

 Normal termination of Gaussian 16 at Wed Apr  9 19:00:58 2025.
