 Gaussian 16, Revision C.01,

 ----------------------------------------------------------------------
 #t hf aug-cc-pvdz symm=none int=(grid=ultrafine) guess=(read,tcheck) s
 table=(opt,rrhf)
 ----------------------------------------------------------------------
 -----
 title
 -----
 Symbolic Z-matrix:
 Charge =  0 Multiplicity = 1

 SCF Done:  E(RHF) =  -373.404056388     A.U. after   15 cycles
 Normal termination of Gaussian 16 at Wed Apr  9 04:05:24 2025.
 Gaussian 16:  ES64L-G16RevC.01  3-Jul-2019

 ----------------------------------------------------------------------
 #t hf aug-cc-pvdz iop(5/13=1,5/36=2,99/5=2) pseudo=read geom=check gue
 ss=(read,tcheck) scf=(maxcycle=1)
 ----------------------------------------------------------------------
 -----
 title
 -----
 Structure from the checkpoint file:  "Grambow2020_wb97xd3_009224_reverse_mol2.chk"
 Charge =  0 Multiplicity = 1

                         Standard orientation:
 ---------------------------------------------------------------------
 Center     Atomic      Atomic             Coordinates (Angstroms)
 Number     Number       Type             X           Y           Z
 ---------------------------------------------------------------------
      1          7           0        1.509787   -0.504398    0.728048
      2          6           0        2.378336   -0.009265    0.056696
      3          8           0        3.280494    0.487490   -0.482404
      4          6           0       -2.162186   -0.630835   -0.216683
      5          8           0       -1.260287   -1.405863   -0.151677
      6          6           0       -1.911501    1.893117    0.167011
      7          7           0       -1.999409    0.736853   -0.003003
      8          1           0        0.635072   -0.890714    0.403564
      9          1           0       -3.197272   -0.907585   -0.448377
 ---------------------------------------------------------------------

 SCF Done:  E(RHF) =  -373.758728252     A.U. after    2 cycles

 The electronic state is 1-A.
 Alpha  occ. eigenvalues --  -20.61967 -20.59477 -15.58541 -15.51536 -11.45652
 Alpha  occ. eigenvalues --  -11.40709 -11.35513  -1.56711  -1.54509  -1.33426
 Alpha  occ. eigenvalues --   -1.25991  -1.05634  -0.84884  -0.82403  -0.74569
 Alpha  occ. eigenvalues --   -0.72645  -0.67122  -0.65431  -0.64787  -0.58741
 Alpha  occ. eigenvalues --   -0.55562  -0.55432  -0.51968  -0.49109  -0.46256
 Alpha virt. eigenvalues --    0.02222   0.02809   0.05268   0.06856   0.07095
 Alpha virt. eigenvalues --    0.08158   0.09553   0.10013   0.10544   0.10971
 Alpha virt. eigenvalues --    0.11764   0.13132   0.13679   0.13945   0.15685

 Mulliken charges:
               1
     1  N    0.695095
     2  C   -0.033167
     3  O   -0.689635
     4  C    0.661469
     5  O   -0.947763
     6  C   -0.512429
     7  N    0.615910
     8  H    0.092721
     9  H    0.117801
 Sum of Mulliken charges =  -0.00000

 Dipole moment (field-independent basis, Debye):
    X=             -4.6408    Y=             -1.1238    Z=             -1.1842  Tot=              4.9196

 Test job not archived.
 1\1\GINC-SE252\SP\RHF\Aug-CC-pVDZ\C3H2N2O2\OHZDE\09-Apr-2025\0\\#t hf
 aug-cc-pvdz iop(5/13=1,5/36=2,99/5=2) pseudo=read geom=check guess=(re
 ad,tcheck) scf=(maxcycle=1)\\title\\0,1\N,0,-1.44041301,-1.32369732,-0
 .08732247\C,0,-1.65410662,-1.81832571,0.98967659\O,0,-1.98307455,-2.30
 127728,1.99457442\C,0,1.44369191,1.01232298,-0.87271609\O,0,1.15605187
 ,-0.1170314,-1.11795036\C,0,0.0788707,2.53296136,0.67819378\N,0,0.6841
 4621,1.81829898,-0.02641869\H,0,-0.54906785,-1.0195235,-0.45151976\H,0
 ,2.32184134,1.5270549,-1.27963043\\Version=ES64L-G16RevC.01\State=1-A\

 Normal termination of Gaussian 16 at Wed Apr  9 04:05:27 2025.
