 Gaussian 16, Revision C.01,

 ----------------------------------------------------------------------
 #t hf aug-cc-pvdz symm=none int=(grid=ultrafine) guess=(read,tcheck) s
 table=(opt,rrhf)
 ----------------------------------------------------------------------
 -----
 title
 -----
 Symbolic Z-matrix:
 Charge =  0 Multiplicity = 1

 SCF Done:  E(RHF) =  -283.577095051     A.U. after   15 cycles
 Normal termination of Gaussian 16 at Wed Apr  9 03:09:44 2025.
 Gaussian 16:  ES64L-G16RevC.01  3-Jul-2019

 ----------------------------------------------------------------------
 #t hf aug-cc-pvdz iop(5/13=1,5/36=2,99/5=2) pseudo=read geom=check gue
 ss=(read,tcheck) scf=(maxcycle=1)
 ----------------------------------------------------------------------
 -----
 title
 -----
 Structure from the checkpoint file:  "Grambow2020_b97d3_006655_forward_mol1.chk"
 Charge =  0 Multiplicity = 1

                         Standard orientation:
 ---------------------------------------------------------------------
 Center     Atomic      Atomic             Coordinates (Angstroms)
 Number     Number       Type             X           Y           Z
 ---------------------------------------------------------------------
      1          7           0        2.236202   -0.135836    0.371182
      2          6           0        1.797640    0.806504   -0.243752
      3          6           0        0.595076   -0.566940   -0.411944
      4          6           0       -0.573558   -0.182100    0.449243
      5          6           0       -1.540749    0.822450   -0.010389
      6          8           0       -1.838452   -0.585626   -0.104101
      7          1           0        0.889841   -1.611064   -0.274163
      8          1           0        0.429536   -0.384390   -1.477049
      9          1           0       -0.446215   -0.358628    1.520753
     10          1           0       -2.125148    1.378047    0.727657
     11          1           0       -1.364262    1.332413   -0.961603
 ---------------------------------------------------------------------

 SCF Done:  E(RHF) =  -283.859275797     A.U. after    2 cycles

 The electronic state is 1-A.
 Alpha  occ. eigenvalues --  -20.58386 -15.55920 -11.34386 -11.32643 -11.31575
 Alpha  occ. eigenvalues --  -11.29167  -1.50951  -1.28177  -1.04036  -0.94198
 Alpha  occ. eigenvalues --   -0.84758  -0.74336  -0.70579  -0.68904  -0.60887
 Alpha  occ. eigenvalues --   -0.60400  -0.57773  -0.54710  -0.51978  -0.48673
 Alpha  occ. eigenvalues --   -0.47141  -0.46185
 Alpha virt. eigenvalues --    0.03673   0.03984   0.04032   0.05938   0.06557
 Alpha virt. eigenvalues --    0.07529   0.09347   0.09852   0.10993   0.12251
 Alpha virt. eigenvalues --    0.13164   0.13595   0.14481   0.14984   0.15200

 Mulliken charges:
               1
     1  N    0.360520
     2  C   -0.523280
     3  C   -0.712977
     4  C    1.224546
     5  C    0.376205
     6  O   -1.208163
     7  H    0.254699
     8  H    0.204742
     9  H   -0.020090
    10  H    0.038793
    11  H    0.005006
 Sum of Mulliken charges =  -0.00000

 Dipole moment (field-independent basis, Debye):
    X=             -1.6233    Y=              0.2366    Z=             -0.4711  Tot=              1.7068

 Test job not archived.
 1\1\GINC-SE092\SP\RHF\Aug-CC-pVDZ\C4H5N1O1\OHZDE\09-Apr-2025\0\\#t hf
 aug-cc-pvdz iop(5/13=1,5/36=2,99/5=2) pseudo=read geom=check guess=(re
 ad,tcheck) scf=(maxcycle=1)\\title\\0,1\N,0,2.39535459,-0.22496446,0.4
 9635528\C,0,2.03370806,0.46483057,-0.42661697\C,0,0.7148998,-0.7694876
 7,-0.11356295\C,0,-0.40686261,-0.00194575,0.5251693\C,0,-1.28809462,0.
 84648695,-0.28688555\O,0,-1.70771811,-0.46963113,0.12764641\H,0,0.9194
 6491,-1.71411589,0.39819458\H,0,0.55463456,-0.97101531,-1.17604927\H,0
 ,-0.28405901,0.21072124,1.59062966\H,0,-1.81434253,1.67862737,0.188010

 Normal termination of Gaussian 16 at Wed Apr  9 03:09:48 2025.
