 Gaussian 16, Revision C.01,

 ----------------------------------------------------------------------
 #t hf aug-cc-pvdz symm=none int=(grid=ultrafine) guess=(read,tcheck) s
 table=(opt,rrhf)
 ----------------------------------------------------------------------
 -----
 title
 -----
 Symbolic Z-matrix:
 Charge =  0 Multiplicity = 1

 SCF Done:  E(RHF) =  -286.762934552     A.U. after   17 cycles
 Normal termination of Gaussian 16 at Wed Apr  9 19:07:05 2025.
 Gaussian 16:  ES64L-G16RevC.01  3-Jul-2019

 ----------------------------------------------------------------------
 #t hf aug-cc-pvdz iop(5/13=1,5/36=2,99/5=2) pseudo=read geom=check gue
 ss=(read,tcheck) scf=(maxcycle=1)
 ----------------------------------------------------------------------
 -----
 title
 -----
 Structure from the checkpoint file:  "Grambow2020_wb97xd3_008593_forward_mol1.chk"
 Charge =  0 Multiplicity = 1

                         Standard orientation:
 ---------------------------------------------------------------------
 Center     Atomic      Atomic             Coordinates (Angstroms)
 Number     Number       Type             X           Y           Z
 ---------------------------------------------------------------------
      1          6           0        2.238879   -1.076058    0.087271
      2          6           0        1.225543    0.041509   -0.045745
      3          6           0       -0.120649   -0.447036   -0.318625
      4          6           0       -1.351137    0.100042    0.046058
      5          6           0       -2.590194   -0.728091    0.181245
      6          6           0       -1.288621    1.439130   -0.172722
      7          7           0        1.521620    1.277743    0.082278
      8          1           0        3.226687   -0.682458    0.323574
      9          1           0        1.944199   -1.782957    0.865006
     10          1           0        2.306337   -1.632519   -0.850497
     11          1           0       -0.161943   -1.387293   -0.866559
     12          1           0       -3.478675   -0.140671   -0.045372
     13          1           0       -2.666317   -1.094824    1.207511
     14          1           0       -2.551349   -1.600319   -0.474793
     15          1           0       -0.441054    2.015013    0.217122
     16          1           0        2.487843    1.384854    0.383171
 ---------------------------------------------------------------------

 SCF Done:  E(RHF) =  -287.064178634     A.U. after    2 cycles

 The electronic state is 1-A.
 Alpha  occ. eigenvalues --  -15.48653 -11.30215 -11.27395 -11.25956 -11.25670
 Alpha  occ. eigenvalues --  -11.25032 -11.24324  -1.22507  -1.12282  -1.01657
 Alpha  occ. eigenvalues --   -0.96718  -0.91311  -0.80175  -0.71469  -0.68176
 Alpha  occ. eigenvalues --   -0.63094  -0.62719  -0.60157  -0.59483  -0.57837
 Alpha  occ. eigenvalues --   -0.55327  -0.53803  -0.47777  -0.45105  -0.40610
 Alpha  occ. eigenvalues --   -0.31234
 Alpha virt. eigenvalues --    0.02991   0.03246   0.03636   0.04086   0.05087
 Alpha virt. eigenvalues --    0.05494   0.06101   0.07075   0.08257   0.08804
 Alpha virt. eigenvalues --    0.10189   0.11042   0.12244   0.12857   0.13575

 Mulliken charges:
               1
     1  C   -0.483818
     2  C   -1.532304
     3  C    0.274027
     4  C    0.692136
     5  C   -0.583002
     6  C   -0.488515
     7  N    0.856354
     8  H    0.035044
     9  H    0.290698
    10  H    0.281025
    11  H   -0.254828
    12  H    0.209696
    13  H    0.292087
    14  H    0.172116
    15  H    0.145581
    16  H    0.093704
 Sum of Mulliken charges =  -0.00000

 Dipole moment (field-independent basis, Debye):
    X=              1.1721    Y=             -3.7247    Z=              1.2237  Tot=              4.0920

 Test job not archived.
 1\1\GINC-SE112\SP\RHF\Aug-CC-pVDZ\C6H9N1\OHZDE\09-Apr-2025\0\\#t hf au
 g-cc-pvdz iop(5/13=1,5/36=2,99/5=2) pseudo=read geom=check guess=(read
 ,tcheck) scf=(maxcycle=1)\\title\\0,1\C,0,2.30408634,-0.525034,0.04782
 294\C,0,1.160882,0.46613005,0.11244778\C,0,-0.09118905,-0.08292229,-0.
 39374434\C,0,-1.40190143,0.2064238,-0.0133497\C,0,-2.52607034,-0.76294
 494,-0.20285401\C,0,-1.5049351,1.55417668,0.1203558\N,0,1.2829867,1.65
 081764,0.57497676\H,0,3.21614353,-0.09795581,0.46289134\H,0,2.06208434
 ,-1.43978712,0.59194948\H,0,2.49752395,-0.80477313,-0.99041391\H,0,0.0

 Normal termination of Gaussian 16 at Wed Apr  9 19:07:10 2025.
