 Gaussian 16, Revision C.01,

 ----------------------------------------------------------------------
 #t hf aug-cc-pvdz symm=none int=(grid=ultrafine) guess=(read,tcheck) s
 table=(opt,rrhf)
 ----------------------------------------------------------------------
 -----
 title
 -----
 Symbolic Z-matrix:
 Charge =  0 Multiplicity = 1

 SCF Done:  E(RHF) =  -321.248020546     A.U. after   18 cycles
 Normal termination of Gaussian 16 at Wed Apr  9 19:19:50 2025.
 Gaussian 16:  ES64L-G16RevC.01  3-Jul-2019

 ----------------------------------------------------------------------
 #t hf aug-cc-pvdz iop(5/13=1,5/36=2,99/5=2) pseudo=read geom=check gue
 ss=(read,tcheck) scf=(maxcycle=1)
 ----------------------------------------------------------------------
 -----
 title
 -----
 Structure from the checkpoint file:  "Grambow2020_wb97xd3_009375_forward_mol1.chk"
 Charge =  0 Multiplicity = 1

                         Standard orientation:
 ---------------------------------------------------------------------
 Center     Atomic      Atomic             Coordinates (Angstroms)
 Number     Number       Type             X           Y           Z
 ---------------------------------------------------------------------
      1          8           0       -1.510769   -0.779464   -0.000646
      2          6           0        0.386670   -1.242975   -0.000928
      3          6           0        0.906319   -0.267022   -1.043666
      4          6           0        0.885159    0.894418    0.000872
      5          6           0        0.904963   -0.268503    1.043976
      6          6           0       -0.576674    1.360132    0.000325
      7          7           0       -1.324589    0.449290   -0.000084
      8          1           0        1.948486   -0.544691   -1.232165
      9          1           0        0.390358   -0.171914   -1.997424
     10          1           0        1.646624    1.672191    0.000752
     11          1           0        0.387216   -0.175584    1.996913
     12          1           0        1.946964   -0.545623    1.234204
 ---------------------------------------------------------------------

 SCF Done:  E(RHF) =  -321.565637328     A.U. after    2 cycles

 The electronic state is 1-A.
 Alpha  occ. eigenvalues --  -20.62758 -15.67069 -11.31666 -11.31534 -11.27975
 Alpha  occ. eigenvalues --  -11.26505 -11.26475  -1.58996  -1.28357  -1.17273
 Alpha  occ. eigenvalues --   -0.93887  -0.92420  -0.82159  -0.76272  -0.72093
 Alpha  occ. eigenvalues --   -0.71287  -0.64567  -0.63673  -0.58113  -0.57103
 Alpha  occ. eigenvalues --   -0.55699  -0.48323  -0.43267  -0.42600  -0.34475
 Alpha virt. eigenvalues --   -0.00511   0.02650   0.04018   0.04312   0.04676
 Alpha virt. eigenvalues --    0.06690   0.07744   0.09442   0.09801   0.10286
 Alpha virt. eigenvalues --    0.12071   0.12839   0.13116   0.13354   0.14050

 Mulliken charges:
               1
     1  O   -1.161546
     2  C   -0.053701
     3  C   -0.008524
     4  C    0.357071
     5  C   -0.007230
     6  C   -0.885653
     7  N    1.583789
     8  H    0.137827
     9  H    0.011866
    10  H   -0.122780
    11  H    0.011931
    12  H    0.136951
 Sum of Mulliken charges =   0.00000

 Dipole moment (field-independent basis, Debye):
    X=              3.3323    Y=              2.6524    Z=              0.0028  Tot=              4.2590

 Test job not archived.
 1\1\GINC-SE115\SP\RHF\Aug-CC-pVDZ\C5H5N1O1\OHZDE\09-Apr-2025\0\\#t hf
 aug-cc-pvdz iop(5/13=1,5/36=2,99/5=2) pseudo=read geom=check guess=(re
 ad,tcheck) scf=(maxcycle=1)\\title\\0,1\O,0,-0.3021655,0.24799154,2.07
 818589\C,0,-1.20266998,-0.10494777,0.38123469\C,0,-0.52082275,0.921206
 69,-0.50865946\C,0,0.73540569,0.00236925,-0.64311315\C,0,-0.25552308,-
 1.12949832,-0.22147174\C,0,1.53361763,0.28473748,0.6363285\N,0,0.83598
 268,0.32664741,1.585306\H,0,-1.06167834,0.91031308,-1.46055297\H,0,-0.
 42744248,1.95141507,-0.16974079\H,0,1.30165139,-0.05313885,-1.57103804

 Normal termination of Gaussian 16 at Wed Apr  9 19:19:54 2025.
