 Gaussian 16, Revision C.01,

 ----------------------------------------------------------------------
 #t hf aug-cc-pvdz symm=none int=(grid=ultrafine) guess=(read,tcheck) s
 table=(opt,rrhf)
 ----------------------------------------------------------------------
 -----
 title
 -----
 Symbolic Z-matrix:
 Charge =  0 Multiplicity = 1

 SCF Done:  E(RHF) =  -306.431614730     A.U. after   15 cycles
 Normal termination of Gaussian 16 at Wed Apr  9 19:00:54 2025.
 Gaussian 16:  ES64L-G16RevC.01  3-Jul-2019

 ----------------------------------------------------------------------
 #t hf aug-cc-pvdz iop(5/13=1,5/36=2,99/5=2) pseudo=read geom=check gue
 ss=(read,tcheck) scf=(maxcycle=1)
 ----------------------------------------------------------------------
 -----
 title
 -----
 Structure from the checkpoint file:  "Grambow2020_wb97xd3_008452_reverse_mol1.chk"
 Charge =  0 Multiplicity = 1

                         Standard orientation:
 ---------------------------------------------------------------------
 Center     Atomic      Atomic             Coordinates (Angstroms)
 Number     Number       Type             X           Y           Z
 ---------------------------------------------------------------------
      1          6           0       -1.182665    0.850866   -0.724520
      2          6           0       -1.269995   -0.614328   -0.316523
      3          6           0        0.076193   -1.168404    0.046870
      4          8           0        1.239000   -0.642492   -0.559850
      5          6           0        1.594867    0.545513    0.080474
      6          6           0       -0.334194    1.147810    0.460940
      7          6           0       -0.597360   -0.244925    1.002951
      8          1           0        0.291996    1.064090   -0.558848
      9          1           0       -1.118465    1.278618   -1.719604
     10          1           0       -2.136031   -1.252264   -0.450903
     11          1           0        0.179256   -2.209660    0.331072
     12          1           0        2.250815    1.131586   -0.564689
     13          1           0        1.983997    0.427522    1.094790
     14          1           0       -0.237520    2.073795    1.017346
     15          1           0       -0.847128   -0.472941    2.028492
 ---------------------------------------------------------------------

 SCF Done:  E(RHF) =  -306.751659422     A.U. after    2 cycles

 The electronic state is 1-A.
 Alpha  occ. eigenvalues --  -20.56336 -11.31422 -11.30885 -11.29594 -11.25082
 Alpha  occ. eigenvalues --  -11.24716 -11.20858  -1.49232  -1.21886  -1.04525
 Alpha  occ. eigenvalues --   -0.91806  -0.87593  -0.81186  -0.74173  -0.72444
 Alpha  occ. eigenvalues --   -0.69206  -0.65081  -0.63331  -0.60836  -0.55306
 Alpha  occ. eigenvalues --   -0.52432  -0.50279  -0.46799  -0.42738  -0.40005
 Alpha  occ. eigenvalues --   -0.24506
 Alpha virt. eigenvalues --    0.02928   0.03303   0.04074   0.04296   0.05742
 Alpha virt. eigenvalues --    0.05885   0.06281   0.09336   0.09837   0.10622
 Alpha virt. eigenvalues --    0.12234   0.12836   0.13243   0.13573   0.14257

 Mulliken charges:
               1
     1  C   -0.411666
     2  C    0.260992
     3  C    1.303349
     4  O   -1.493826
     5  C    0.173615
     6  C   -0.590977
     7  C    0.514766
     8  H    1.026728
     9  H   -0.094085
    10  H   -0.178903
    11  H   -0.119486
    12  H   -0.048913
    13  H    0.042295
    14  H   -0.153746
    15  H   -0.230144
 Sum of Mulliken charges =  -0.00000

 Dipole moment (field-independent basis, Debye):
    X=              1.2737    Y=              0.2852    Z=              1.9150  Tot=              2.3175

 Test job not archived.
 1\1\GINC-SE112\SP\RHF\Aug-CC-pVDZ\C6H8O1\OHZDE\09-Apr-2025\0\\#t hf au
 g-cc-pvdz iop(5/13=1,5/36=2,99/5=2) pseudo=read geom=check guess=(read
 ,tcheck) scf=(maxcycle=1)\\title\\0,1\C,0,1.02478403,1.20969385,-0.129
 0759\C,0,1.46781861,-0.24137949,-0.26687561\C,0,0.44180771,-1.18756155
 ,0.28386901\O,0,-0.39972673,-0.77325675,1.34074332\C,0,-1.44128154,-0.
 00123201,0.82387572\C,0,-0.32019091,0.8675421,-0.66514317\C,0,0.171621
 4,-0.52291553,-1.02220255\H,0,-0.30643163,0.99839387,0.52724038\H,0,1.
 27596791,1.92854709,0.6438675\H,0,2.46481376,-0.56977051,-0.53742841\H

 Normal termination of Gaussian 16 at Wed Apr  9 19:01:00 2025.
