 Gaussian 16, Revision C.01,

 ----------------------------------------------------------------------
 #t hf aug-cc-pvdz symm=none int=(grid=ultrafine) guess=(read,tcheck) s
 table=(opt,rrhf)
 ----------------------------------------------------------------------
 -----
 title
 -----
 Symbolic Z-matrix:
 Charge =  0 Multiplicity = 1

 SCF Done:  E(RHF) =  -306.549327002     A.U. after   15 cycles
 Normal termination of Gaussian 16 at Wed Apr  9 03:51:41 2025.
 Gaussian 16:  ES64L-G16RevC.01  3-Jul-2019

 ----------------------------------------------------------------------
 #t hf aug-cc-pvdz iop(5/13=1,5/36=2,99/5=2) pseudo=read geom=check gue
 ss=(read,tcheck) scf=(maxcycle=1)
 ----------------------------------------------------------------------
 -----
 title
 -----
 Structure from the checkpoint file:  "Grambow2020_wb97xd3_008166_forward_mol1.chk"
 Charge =  0 Multiplicity = 1

                         Standard orientation:
 ---------------------------------------------------------------------
 Center     Atomic      Atomic             Coordinates (Angstroms)
 Number     Number       Type             X           Y           Z
 ---------------------------------------------------------------------
      1          8           0        2.164012   -0.277331   -0.014585
      2          6           0        0.821157   -0.026965   -0.170451
      3          6           0        0.158135    1.345960   -0.245633
      4          6           0       -1.053771    0.717648    0.461104
      5          6           0       -1.702462   -0.297954   -0.491001
      6          6           0       -0.596411   -1.344634   -0.235320
      7          6           0       -0.138774   -0.466316    0.912578
      8          1           0        2.600322   -0.263144   -0.869239
      9          1           0        0.022871    1.823309   -1.218866
     10          1           0        0.688591    2.015386    0.432433
     11          1           0       -1.666862    1.345803    1.103871
     12          1           0       -2.584081   -0.747366   -0.024904
     13          1           0       -1.956519   -0.005704   -1.512857
     14          1           0        0.436348   -0.739440   -1.067210
     15          1           0        0.219990   -0.776634    1.885789
 ---------------------------------------------------------------------

 SCF Done:  E(RHF) =  -306.868194320     A.U. after    2 cycles

 The electronic state is 1-A.
 Alpha  occ. eigenvalues --  -20.57905 -11.32673 -11.25727 -11.24877 -11.24861
 Alpha  occ. eigenvalues --  -11.24273 -11.23760  -1.49084  -1.23026  -1.00487
 Alpha  occ. eigenvalues --   -0.96590  -0.87058  -0.78742  -0.75458  -0.69986
 Alpha  occ. eigenvalues --   -0.66973  -0.64473  -0.61838  -0.56839  -0.55494
 Alpha  occ. eigenvalues --   -0.52429  -0.49846  -0.46975  -0.43385  -0.42133
 Alpha  occ. eigenvalues --   -0.33936
 Alpha virt. eigenvalues --    0.02975   0.03253   0.03881   0.04528   0.05649
 Alpha virt. eigenvalues --    0.06319   0.06610   0.07847   0.09865   0.11721
 Alpha virt. eigenvalues --    0.12101   0.12744   0.13739   0.14485   0.14766

 Mulliken charges:
               1
     1  O   -1.423437
     2  C    0.848541
     3  C    0.063059
     4  C    0.240017
     5  C   -0.084749
     6  C   -0.531329
     7  C    0.202259
     8  H    0.225853
     9  H    0.015715
    10  H    0.136272
    11  H   -0.157119
    12  H    0.143885
    13  H   -0.030737
    14  H    0.500013
    15  H   -0.148243
 Sum of Mulliken charges =  -0.00000

 Dipole moment (field-independent basis, Debye):
    X=              0.0117    Y=              2.9090    Z=             -0.6996  Tot=              2.9920

 Test job not archived.
 1\1\GINC-SE049\SP\RHF\Aug-CC-pVDZ\C6H8O1\OHZDE\09-Apr-2025\0\\#t hf au
 g-cc-pvdz iop(5/13=1,5/36=2,99/5=2) pseudo=read geom=check guess=(read
 ,tcheck) scf=(maxcycle=1)\\title\\0,1\O,0,2.08628165,0.93580296,-0.669
 95315\C,0,0.91452368,0.42172768,-0.16701632\C,0,0.69735192,-0.99636117
 ,0.35455417\C,0,-0.73878572,-0.89544339,-0.18423506\C,0,-1.4979197,0.1
 5389646,0.64120552\C,0,-0.79582274,1.32555609,-0.07888634\C,0,-0.28723
 843,0.30474797,-1.07780403\H,0,2.63498181,1.26053353,0.04731923\H,0,0.
 85862758,-1.20839178,1.41397588\H,0,1.28707435,-1.67701473,-0.26044727

 Normal termination of Gaussian 16 at Wed Apr  9 03:51:47 2025.
