 Gaussian 16, Revision C.01,

 ----------------------------------------------------------------------
 #t hf aug-cc-pvdz symm=none int=(grid=ultrafine) guess=(read,tcheck) s
 table=(opt,rrhf)
 ----------------------------------------------------------------------
 -----
 title
 -----
 Symbolic Z-matrix:
 Charge =  0 Multiplicity = 1

 SCF Done:  E(RHF) =  -343.736449803     A.U. after   13 cycles
 Normal termination of Gaussian 16 at Wed Apr  9 18:14:14 2025.
 Gaussian 16:  ES64L-G16RevC.01  3-Jul-2019

 ----------------------------------------------------------------------
 #t hf aug-cc-pvdz iop(5/13=1,5/36=2,99/5=2) pseudo=read geom=check gue
 ss=(read,tcheck) scf=(maxcycle=1)
 ----------------------------------------------------------------------
 -----
 title
 -----
 Structure from the checkpoint file:  "Grambow2020_wb97xd3_007210_forward_mol2.chk"
 Charge =  0 Multiplicity = 1

                         Standard orientation:
 ---------------------------------------------------------------------
 Center     Atomic      Atomic             Coordinates (Angstroms)
 Number     Number       Type             X           Y           Z
 ---------------------------------------------------------------------
      1          8           0       -2.562263    0.125991   -0.095385
      2          6           0       -1.396047   -0.600518    0.244178
      3          6           0       -0.221304    0.068120   -0.422844
      4          6           0        0.286222    1.438171    0.095872
      5          6           0        1.742975    0.907172    0.116821
      6          6           0        1.167032   -0.486052   -0.103991
      7          8           0        1.593049   -1.592782    0.035056
      8          1           0       -3.315280   -0.274443    0.341175
      9          1           0       -1.457798   -1.641466   -0.094512
     10          1           0       -1.243185   -0.612333    1.332087
     11          1           0       -0.374870    0.083301   -1.506463
     12          1           0        0.092873    2.291607   -0.549121
     13          1           0       -0.092441    1.658957    1.093924
     14          1           0        2.332167    1.036606    1.024352
     15          1           0        2.338980    1.230738   -0.739016
 ---------------------------------------------------------------------

 SCF Done:  E(RHF) =  -344.090697163     A.U. after    2 cycles

 The electronic state is 1-A.
 Alpha  occ. eigenvalues --  -20.55749 -20.54365 -11.33857 -11.29558 -11.24794
 Alpha  occ. eigenvalues --  -11.24780 -11.24606  -1.48083  -1.46031  -1.15447
 Alpha  occ. eigenvalues --   -0.99815  -0.88111  -0.86164  -0.74551  -0.70259
 Alpha  occ. eigenvalues --   -0.67930  -0.66367  -0.63684  -0.61858  -0.57766
 Alpha  occ. eigenvalues --   -0.54832  -0.53011  -0.50931  -0.48771  -0.47996
 Alpha  occ. eigenvalues --   -0.44762  -0.39809
 Alpha virt. eigenvalues --    0.03321   0.03684   0.03912   0.04631   0.05947
 Alpha virt. eigenvalues --    0.06270   0.06562   0.07547   0.10051   0.12317
 Alpha virt. eigenvalues --    0.12733   0.13560   0.13702   0.14604   0.14643

 Mulliken charges:
               1
     1  O   -1.176026
     2  C    0.906631
     3  C   -0.768751
     4  C    0.093623
     5  C   -0.195814
     6  C    1.313549
     7  O   -1.333037
     8  H    0.298483
     9  H    0.156797
    10  H    0.149278
    11  H    0.166287
    12  H    0.052498
    13  H    0.076613
    14  H    0.070737
    15  H    0.189132
 Sum of Mulliken charges =  -0.00000

 Dipole moment (field-independent basis, Debye):
    X=             -1.3026    Y=              1.6813    Z=              0.6023  Tot=              2.2105

 Test job not archived.
 1\1\GINC-SE174\SP\RHF\Aug-CC-pVDZ\C5H8O2\OHZDE\09-Apr-2025\0\\#t hf au
 g-cc-pvdz iop(5/13=1,5/36=2,99/5=2) pseudo=read geom=check guess=(read
 ,tcheck) scf=(maxcycle=1)\\title\\0,1\O,0,2.41414114,0.4323088,0.34229
 429\C,0,1.48916582,-0.52650905,-0.13548106\C,0,0.12188757,-0.1467521,0
 .37280035\C,0,-0.6074404,1.08776876,-0.21688381\C,0,-1.89638468,0.2492
 0212,-0.41677931\C,0,-1.05863247,-0.98688976,-0.11381145\O,0,-1.208540
 15,-2.15730979,-0.29634902\H,0,3.28546408,0.21652998,0.00732905\H,0,1.
 73695906,-1.53477554,0.21678747\H,0,1.47949391,-0.55002658,-1.23384677

 Normal termination of Gaussian 16 at Wed Apr  9 18:14:19 2025.
