 Gaussian 16, Revision C.01,

 ----------------------------------------------------------------------
 #t hf aug-cc-pvdz symm=none int=(grid=ultrafine) guess=(read,tcheck) s
 table=(opt,rrhf)
 ----------------------------------------------------------------------
 -----
 title
 -----
 Symbolic Z-matrix:
 Charge =  0 Multiplicity = 1

 SCF Done:  E(RHF) =  -359.652947124     A.U. after   16 cycles
 Normal termination of Gaussian 16 at Wed Apr  9 04:05:44 2025.
 Gaussian 16:  ES64L-G16RevC.01  3-Jul-2019

 ----------------------------------------------------------------------
 #t hf aug-cc-pvdz iop(5/13=1,5/36=2,99/5=2) pseudo=read geom=check gue
 ss=(read,tcheck) scf=(maxcycle=1)
 ----------------------------------------------------------------------
 -----
 title
 -----
 Structure from the checkpoint file:  "Grambow2020_wb97xd3_009255_forward_mol1.chk"
 Charge =  0 Multiplicity = 1

                         Standard orientation:
 ---------------------------------------------------------------------
 Center     Atomic      Atomic             Coordinates (Angstroms)
 Number     Number       Type             X           Y           Z
 ---------------------------------------------------------------------
      1          6           0       -0.841228    1.621677    0.403251
      2          6           0       -0.269863    0.243142    0.226444
      3          6           0       -1.204586   -0.793457   -0.219314
      4          8           0       -2.402715   -0.643413   -0.283721
      5          6           0        1.112571    0.105276   -0.177536
      6          8           0        1.936216    0.830683   -0.639708
      7          7           0        1.483506   -1.242844    0.462995
      8          1           0       -1.116260    2.066244   -0.556481
      9          1           0       -1.748045    1.563900    1.003747
     10          1           0       -0.127167    2.282425    0.894678
     11          1           0        0.382036   -0.858739    1.021468
     12          1           0       -0.765081   -1.778157   -0.491012
     13          1           0        2.294025   -1.125479    1.060469
     14          1           0        1.646575   -2.008285   -0.183472
 ---------------------------------------------------------------------

 SCF Done:  E(RHF) =  -360.018436616     A.U. after    2 cycles

 The electronic state is 1-A.
 Alpha  occ. eigenvalues --  -20.56723 -20.52119 -15.59083 -11.40274 -11.33928
 Alpha  occ. eigenvalues --  -11.24187 -11.22696  -1.51732  -1.45884  -1.27543
 Alpha  occ. eigenvalues --   -1.09042  -0.94872  -0.86923  -0.78764  -0.76273
 Alpha  occ. eigenvalues --   -0.73620  -0.71453  -0.63674  -0.62755  -0.60390
 Alpha  occ. eigenvalues --   -0.55814  -0.54637  -0.54020  -0.52013  -0.47313
 Alpha  occ. eigenvalues --   -0.41010  -0.34901
 Alpha virt. eigenvalues --    0.01248   0.03894   0.04742   0.05212   0.06139
 Alpha virt. eigenvalues --    0.06579   0.07567   0.08191   0.09745   0.10582
 Alpha virt. eigenvalues --    0.11886   0.12121   0.13415   0.14242   0.15178

 Mulliken charges:
               1
     1  C   -0.701535
     2  C   -0.321818
     3  C    1.239392
     4  O   -1.277779
     5  C    0.582490
     6  O   -1.277317
     7  N   -0.024186
     8  H    0.248180
     9  H    0.196399
    10  H    0.160624
    11  H    0.741133
    12  H    0.012037
    13  H    0.222870
    14  H    0.199510
 Sum of Mulliken charges =   0.00000

 Dipole moment (field-independent basis, Debye):
    X=              4.0430    Y=             -2.8142    Z=              1.7019  Tot=              5.2117

 Test job not archived.
 1\1\GINC-SE459\SP\RHF\Aug-CC-pVDZ\C4H7N1O2\OHZDE\09-Apr-2025\0\\#t hf
 aug-cc-pvdz iop(5/13=1,5/36=2,99/5=2) pseudo=read geom=check guess=(re
 ad,tcheck) scf=(maxcycle=1)\\title\\0,1\C,0,-1.13267512,-1.04013023,0.
 98667004\C,0,-0.33180593,-0.11301285,0.11653194\C,0,-1.00140455,1.1203
 308,-0.30471\O,0,-2.17835905,1.34304033,-0.13931738\C,0,1.10430582,-0.
 06172496,0.2847043\O,0,1.87300998,-0.42670928,1.11782541\N,0,1.5627231
 5,0.32379154,-1.13181602\H,0,-1.30149362,-0.61162487,1.97775529\H,0,-2
 .11028424,-1.20599552,0.53609173\H,0,-0.62712301,-1.99792101,1.1092467

 Normal termination of Gaussian 16 at Wed Apr  9 04:05:48 2025.
