 Gaussian 16, Revision C.01,

 ----------------------------------------------------------------------
 #t hf aug-cc-pvdz symm=none int=(grid=ultrafine) guess=(read,tcheck) s
 table=(opt,rrhf)
 ----------------------------------------------------------------------
 -----
 title
 -----
 Symbolic Z-matrix:
 Charge =  0 Multiplicity = 1

 SCF Done:  E(RHF) =  -360.886427467     A.U. after   14 cycles
 Normal termination of Gaussian 16 at Wed Apr  9 03:59:46 2025.
 Gaussian 16:  ES64L-G16RevC.01  3-Jul-2019

 ----------------------------------------------------------------------
 #t hf aug-cc-pvdz iop(5/13=1,5/36=2,99/5=2) pseudo=read geom=check gue
 ss=(read,tcheck) scf=(maxcycle=1)
 ----------------------------------------------------------------------
 -----
 title
 -----
 Structure from the checkpoint file:  "Grambow2020_wb97xd3_008734_reverse_mol2.chk"
 Charge =  0 Multiplicity = 1

                         Standard orientation:
 ---------------------------------------------------------------------
 Center     Atomic      Atomic             Coordinates (Angstroms)
 Number     Number       Type             X           Y           Z
 ---------------------------------------------------------------------
      1          6           0        2.720466   -0.482511   -0.019838
      2          6           0        1.356963    0.093706    0.331389
      3          8           0        1.175696    1.381059   -0.230871
      4          6           0        0.247153   -0.783633   -0.204836
      5          6           0       -1.979603   -0.165804   -0.543720
      6          8           0       -1.002975   -0.378301    0.335112
      7          7           0       -3.052576    0.217422    0.133825
      8          1           0        2.825517   -0.582412   -1.102083
      9          1           0        2.867340   -1.462014    0.439996
     10          1           0        3.515815    0.175327    0.336559
     11          1           0        1.248077    0.144910    1.423630
     12          1           0        1.784999    1.990519    0.188023
     13          1           0        0.199024   -0.717356   -1.293578
     14          1           0        0.422663   -1.821231    0.091842
     15          1           0       -3.057210    0.328758    1.140804
     16          1           0       -3.889831    0.428938   -0.373861
 ---------------------------------------------------------------------

 SCF Done:  E(RHF) =  -361.257888517     A.U. after    2 cycles

 The electronic state is 1-A.
 Alpha  occ. eigenvalues --  -20.56815 -20.54549 -15.51840 -11.29217 -11.28890
 Alpha  occ. eigenvalues --  -11.28178 -11.23252  -1.50857  -1.45058  -1.21998
 Alpha  occ. eigenvalues --   -1.05544  -0.95309  -0.84891  -0.80882  -0.75084
 Alpha  occ. eigenvalues --   -0.72504  -0.68849  -0.63771  -0.63297  -0.60427
 Alpha  occ. eigenvalues --   -0.55761  -0.55336  -0.52962  -0.52912  -0.48583
 Alpha  occ. eigenvalues --   -0.44137  -0.43900  -0.36207
 Alpha virt. eigenvalues --    0.03354   0.03621   0.04255   0.04623   0.05897
 Alpha virt. eigenvalues --    0.06483   0.07275   0.07747   0.09018   0.11264
 Alpha virt. eigenvalues --    0.12214   0.13535   0.13684   0.14450   0.14803

 Mulliken charges:
               1
     1  C   -0.290310
     2  C    0.570405
     3  O   -1.297933
     4  C    0.800217
     5  C   -0.538823
     6  O   -1.295128
     7  N    0.740804
     8  H    0.217898
     9  H    0.188281
    10  H    0.099646
    11  H    0.137534
    12  H    0.278952
    13  H    0.254896
    14  H    0.070337
    15  H   -0.005700
    16  H    0.068924
 Sum of Mulliken charges =  -0.00000

 Dipole moment (field-independent basis, Debye):
    X=              1.0355    Y=             -0.0051    Z=              2.4751  Tot=              2.6830

 Test job not archived.
 1\1\GINC-SE021\SP\RHF\Aug-CC-pVDZ\C4H9N1O2\OHZDE\09-Apr-2025\0\\#t hf
 aug-cc-pvdz iop(5/13=1,5/36=2,99/5=2) pseudo=read geom=check guess=(re
 ad,tcheck) scf=(maxcycle=1)\\title\\0,1\C,0,-2.31175786,-0.41190498,-0
 .86379854\C,0,-0.89288526,0.13620424,-0.89383093\O,0,-0.84940284,1.490
 29152,-0.48051649\C,0,0.00485714,-0.64153061,0.04325285\C,0,2.06067436
 ,0.05559978,0.90500899\O,0,1.36406333,-0.2900342,-0.17507189\N,0,3.287
 76584,0.36361144,0.50931281\H,0,-2.7167833,-0.36777618,0.14925434\H,0,
 -2.34449651,-1.44663462,-1.21123201\H,0,-2.96231673,0.1780203,-1.51272

 Normal termination of Gaussian 16 at Wed Apr  9 03:59:52 2025.
