 Gaussian 16, Revision C.01,

 ----------------------------------------------------------------------
 #t hf aug-cc-pvdz symm=none int=(grid=ultrafine) guess=(read,tcheck) s
 table=(opt,rrhf)
 ----------------------------------------------------------------------
 -----
 title
 -----
 Symbolic Z-matrix:
 Charge =  0 Multiplicity = 1

 SCF Done:  E(RHF) =  -335.530237631     A.U. after   15 cycles
 Normal termination of Gaussian 16 at Wed Apr  9 15:44:35 2025.
 Gaussian 16:  ES64L-G16RevC.01  3-Jul-2019

 ----------------------------------------------------------------------
 #t hf aug-cc-pvdz iop(5/13=1,5/36=2,99/5=2) pseudo=read geom=check gue
 ss=(read,tcheck) scf=(maxcycle=1)
 ----------------------------------------------------------------------
 -----
 title
 -----
 Structure from the checkpoint file:  "Grambow2020_b97d3_006736_forward_mol2.chk"
 Charge =  0 Multiplicity = 1

                         Standard orientation:
 ---------------------------------------------------------------------
 Center     Atomic      Atomic             Coordinates (Angstroms)
 Number     Number       Type             X           Y           Z
 ---------------------------------------------------------------------
      1          8           0        2.010498    0.015533    0.001085
      2          6           0        0.802661    0.007386   -0.000381
      3          7           0       -0.106172    1.071897   -0.002122
      4          6           0       -1.371998    0.554110    0.000815
      5          7           0       -1.390720   -0.746086    0.000838
      6          8           0       -0.010006   -1.121518   -0.000921
      7          1           0        0.168118    2.046095    0.003746
      8          1           0       -2.277783    1.152127    0.001332
 ---------------------------------------------------------------------

 SCF Done:  E(RHF) =  -335.855634016     A.U. after    2 cycles

 The electronic state is 1-A.
 Alpha  occ. eigenvalues --  -20.64074 -20.55017 -15.59929 -15.59531 -11.44738
 Alpha  occ. eigenvalues --  -11.37181  -1.58371  -1.48445  -1.31908  -1.19333
 Alpha  occ. eigenvalues --   -0.92903  -0.92025  -0.81523  -0.72253  -0.72148
 Alpha  occ. eigenvalues --   -0.67296  -0.60311  -0.58654  -0.56329  -0.55323
 Alpha  occ. eigenvalues --   -0.47411  -0.42123
 Alpha virt. eigenvalues --    0.01715   0.03917   0.07033   0.07726   0.09154
 Alpha virt. eigenvalues --    0.10089   0.10604   0.11603   0.12708   0.12842
 Alpha virt. eigenvalues --    0.15952   0.16719   0.17883   0.18494   0.18521

 Mulliken charges:
               1
     1  O   -1.065171
     2  C    1.433887
     3  N    0.514113
     4  C   -0.628877
     5  N    0.974555
     6  O   -1.298259
     7  H    0.062479
     8  H    0.007273
 Sum of Mulliken charges =  -0.00000

 Dipole moment (field-independent basis, Debye):
    X=             -2.8352    Y=              5.0113    Z=              0.0088  Tot=              5.7577

 Test job not archived.
 1\1\GINC-SE129\SP\RHF\Aug-CC-pVDZ\C2H2N2O2\OHZDE\09-Apr-2025\0\\#t hf
 aug-cc-pvdz iop(5/13=1,5/36=2,99/5=2) pseudo=read geom=check guess=(re
 ad,tcheck) scf=(maxcycle=1)\\title\\0,1\O,0,2.30555069,0.14487741,0.20
 340701\C,0,1.12805823,-0.11881406,0.25741401\N,0,0.01070748,0.6974067,
 0.04652604\C,0,-1.11330795,-0.06056076,0.22681268\N,0,-0.85062758,-1.2
 9688418,0.53236695\O,0,0.57856462,-1.36094234,0.55745991\H,0,0.0679497
 3,1.68023087,-0.18823442\H,0,-2.12689523,0.31468636,0.12730599\\Versio
 n=ES64L-G16RevC.01\State=1-A\HF=-335.855634\RMSD=1.472e-02\Dipole=-1.5

 Normal termination of Gaussian 16 at Wed Apr  9 15:44:38 2025.
