 Gaussian 16, Revision C.01,

 ----------------------------------------------------------------------
 #t hf aug-cc-pvdz symm=none int=(grid=ultrafine) guess=(read,tcheck) s
 table=(opt,rrhf)
 ----------------------------------------------------------------------
 -----
 title
 -----
 Symbolic Z-matrix:
 Charge =  0 Multiplicity = 1

 SCF Done:  E(RHF) =  -381.871249919     A.U. after   13 cycles

 1\1\GINC-SE117\Stability\RHF\Aug-CC-pVDZ\C4H10O3\OHZDE\09-Apr-2025\0\\
 #t hf aug-cc-pvdz symm=none int=(grid=ultrafine) guess=(read,tcheck) s
 table=(opt,rrhf)\\title\\0,1\C,0,2.55972,0.15899085,-0.36672547\O,0,1.
 40262212,-0.16289975,0.36475752\C,0,0.22964885,0.36644282,-0.2021687\C
 ,0,-0.91082588,-0.00719868,0.72797872\O,0,-0.71262137,0.49803486,2.024
 53606\C,0,-2.22511431,0.54154213,0.21734622\O,0,-2.63255525,0.3501537,
 -0.894659\H,0,3.40858426,-0.283366,0.15193939\H,0,2.70233406,1.2449069
 8,-0.42918422\H,0,2.51054513,-0.24825423,-1.3836348\H,0,0.30423586,1.4

 Normal termination of Gaussian 16 at Wed Apr  9 19:13:07 2025.
 Gaussian 16:  ES64L-G16RevC.01  3-Jul-2019

 ----------------------------------------------------------------------
 #t hf aug-cc-pvdz iop(5/13=1,5/36=2,99/5=2) pseudo=read geom=check gue
 ss=(read,tcheck) scf=(maxcycle=1)
 ----------------------------------------------------------------------
 -----
 title
 -----
 Structure from the checkpoint file:  "Grambow2020_wb97xd3_008923_reverse_mol2.chk"
 Charge =  0 Multiplicity = 1

                         Standard orientation:
 ---------------------------------------------------------------------
 Center     Atomic      Atomic             Coordinates (Angstroms)
 Number     Number       Type             X           Y           Z
 ---------------------------------------------------------------------
      1          6           0       -2.820510    0.522464   -0.246020
      2          8           0       -1.682777   -0.093200    0.305414
      3          6           0       -0.485308    0.316548   -0.307487
      4          6           0        0.632245   -0.476927    0.345918
      5          8           0        0.444657   -1.861808    0.195839
      6          6           0        1.971264   -0.126126   -0.264967
      7          8           0        2.379090    0.998112   -0.359631
      8          1           0       -3.690292    0.137209    0.283432
      9          1           0       -2.919054    0.293486   -1.314342
     10          1           0       -2.780013    1.611208   -0.122047
     11          1           0       -0.515412    0.102317   -1.385815
     12          1           0       -0.308568    1.389735   -0.169234
     13          1           0        0.675160   -0.196934    1.409186
     14          1           0       -0.469121   -2.050279    0.428040
     15          1           0        2.556334   -0.995840   -0.623116
     16          1           0        1.103192    3.184156    1.858723
     17          1           0        1.433875    2.764362    1.337534
 ---------------------------------------------------------------------

 SCF Done:  E(RHF) =  -382.265809576     A.U. after    2 cycles

 The electronic state is 1-A.
 Alpha  occ. eigenvalues --  -20.56591 -20.56356 -20.55814 -11.34824 -11.30723
 Alpha  occ. eigenvalues --  -11.30129 -11.29591  -1.49906  -1.49015  -1.46680
 Alpha  occ. eigenvalues --   -1.05660  -0.96122  -0.88913  -0.80437  -0.72444
 Alpha  occ. eigenvalues --   -0.70464  -0.70145  -0.66616  -0.64374  -0.63092
 Alpha  occ. eigenvalues --   -0.60346  -0.58270  -0.57029  -0.53406  -0.53117
 Alpha  occ. eigenvalues --   -0.50743  -0.45440  -0.44073  -0.42386
 Alpha virt. eigenvalues --    0.03269   0.04068   0.04268   0.04985   0.06011
 Alpha virt. eigenvalues --    0.06585   0.07227   0.07865   0.08832   0.09782
 Alpha virt. eigenvalues --    0.10724   0.11542   0.12685   0.14094   0.14374

 Mulliken charges:
               1
     1  C    0.093304
     2  O   -1.292481
     3  C    0.516690
     4  C    0.754657
     5  O   -1.402788
     6  C    1.126283
     7  O   -1.201926
     8  H   -0.024202
     9  H    0.173659
    10  H    0.180413
    11  H    0.163985
    12  H    0.148701
    13  H    0.248841
    14  H    0.334811
    15  H    0.186629
    16  H    0.057421
    17  H   -0.063998
 Sum of Mulliken charges =  -0.00000

 Dipole moment (field-independent basis, Debye):
    X=             -2.7815    Y=             -0.4569    Z=             -0.2525  Tot=              2.8301

 Test job not archived.
 1\1\GINC-SE117\SP\RHF\Aug-CC-pVDZ\C4H10O3\OHZDE\09-Apr-2025\0\\#t hf a
 ug-cc-pvdz iop(5/13=1,5/36=2,99/5=2) pseudo=read geom=check guess=(rea
 d,tcheck) scf=(maxcycle=1)\\title\\0,1\C,0,2.55972,0.15899085,-0.36672
 547\O,0,1.40262212,-0.16289975,0.36475752\C,0,0.22964885,0.36644282,-0
 .2021687\C,0,-0.91082588,-0.00719868,0.72797872\O,0,-0.71262137,0.4980
 3486,2.02453606\C,0,-2.22511431,0.54154213,0.21734622\O,0,-2.63255525,
 0.3501537,-0.894659\H,0,3.40858426,-0.283366,0.15193939\H,0,2.70233406
 ,1.24490698,-0.42918422\H,0,2.51054513,-0.24825423,-1.3836348\H,0,0.30

 Normal termination of Gaussian 16 at Wed Apr  9 19:13:13 2025.
