 Gaussian 16, Revision C.01,

 ----------------------------------------------------------------------
 #t hf aug-cc-pvdz symm=none int=(grid=ultrafine) guess=(read,tcheck) s
 table=(opt,rrhf)
 ----------------------------------------------------------------------
 -----
 title
 -----
 Symbolic Z-matrix:
 Charge =  0 Multiplicity = 1

 SCF Done:  E(RHF) =  -308.985578219     A.U. after   15 cycles

 1\1\GINC-SE174\Stability\RHF\Aug-CC-pVDZ\C6H12O1\OHZDE\09-Apr-2025\0\\
 #t hf aug-cc-pvdz symm=none int=(grid=ultrafine) guess=(read,tcheck) s
 table=(opt,rrhf)\\title\\0,1\C,0,-1.0997598,-1.90316366,-0.35344594\C,
 0,-0.19280849,-0.67483423,-0.33018683\C,0,-0.64659511,0.29470151,0.771
 57033\C,0,-0.34812266,1.75803252,0.53024906\O,0,1.08057132,2.01196696,
 0.50921006\C,0,1.69401523,2.53335883,-0.49255435\C,0,1.26543903,-1.104
 28298,-0.16977975\H,0,-2.1396191,-1.63218017,-0.54991411\H,0,-0.786080
 88,-2.6103351,-1.12372427\H,0,-1.06614122,-2.42509582,0.60746632\H,0,-

 Normal termination of Gaussian 16 at Wed Apr  9 17:35:57 2025.
 Gaussian 16:  ES64L-G16RevC.01  3-Jul-2019

 ----------------------------------------------------------------------
 #t hf aug-cc-pvdz iop(5/13=1,5/36=2,99/5=2) pseudo=read geom=check gue
 ss=(read,tcheck) scf=(maxcycle=1)
 ----------------------------------------------------------------------
 -----
 title
 -----
 Structure from the checkpoint file:  "Grambow2020_wb97xd3_006732_reverse_mol2.chk"
 Charge =  0 Multiplicity = 1

                         Standard orientation:
 ---------------------------------------------------------------------
 Center     Atomic      Atomic             Coordinates (Angstroms)
 Number     Number       Type             X           Y           Z
 ---------------------------------------------------------------------
      1          6           0       -2.570129   -0.316832    0.343572
      2          6           0       -1.102911    0.102473    0.285692
      3          6           0       -0.272433   -0.980972   -0.418754
      4          6           0        1.178109   -1.080002   -0.000687
      5          8           0        1.917721    0.114946   -0.362853
      6          6           0        2.541409    0.848727    0.488191
      7          6           0       -0.975625    1.469268   -0.386850
      8          1           0       -2.700231   -1.252013    0.892980
      9          1           0       -3.179356    0.446448    0.831487
     10          1           0       -2.969032   -0.463120   -0.664581
     11          1           0       -0.737150    0.191015    1.316870
     12          1           0       -0.331303   -0.850292   -1.503861
     13          1           0       -0.705707   -1.964128   -0.206579
     14          1           0        1.674400   -1.902601   -0.517573
     15          1           0        1.283169   -1.213543    1.081400
     16          1           0        2.399210    0.372785    1.499582
     17          1           0       -1.357209    1.421919   -1.410978
     18          1           0       -1.563143    2.216671    0.150206
     19          1           0        0.054058    1.821321   -0.433110
 ---------------------------------------------------------------------

 SCF Done:  E(RHF) =  -309.314377022     A.U. after    2 cycles

 The electronic state is 1-A.
 Alpha  occ. eigenvalues --  -20.61123 -11.30961 -11.30217 -11.24421 -11.24266
 Alpha  occ. eigenvalues --  -11.22852 -11.22039  -1.53949  -1.11221  -1.02972
 Alpha  occ. eigenvalues --   -0.93551  -0.90492  -0.83393  -0.78937  -0.69424
 Alpha  occ. eigenvalues --   -0.67144  -0.63925  -0.62222  -0.59858  -0.57364
 Alpha  occ. eigenvalues --   -0.54871  -0.54334  -0.52683  -0.51821  -0.48360
 Alpha  occ. eigenvalues --   -0.47674  -0.46666  -0.35507
 Alpha virt. eigenvalues --    0.02997   0.03251   0.03629   0.04504   0.05770
 Alpha virt. eigenvalues --    0.05981   0.06184   0.06894   0.07335   0.08711
 Alpha virt. eigenvalues --    0.09444   0.09564   0.10458   0.12962   0.13335

 Mulliken charges:
               1
     1  C   -0.106243
     2  C   -1.168548
     3  C    0.009304
     4  C    0.417583
     5  O   -0.923992
     6  C    0.016723
     7  C   -0.092343
     8  H    0.131716
     9  H    0.140816
    10  H    0.253509
    11  H    0.146863
    12  H    0.158809
    13  H    0.161943
    14  H    0.046296
    15  H    0.202115
    16  H    0.132353
    17  H    0.215676
    18  H    0.148227
    19  H    0.109191
 Sum of Mulliken charges =  -0.00000

 Dipole moment (field-independent basis, Debye):
    X=             -2.2715    Y=             -3.0331    Z=              0.7454  Tot=              3.8620

 Test job not archived.
 1\1\GINC-SE174\SP\RHF\Aug-CC-pVDZ\C6H12O1\OHZDE\09-Apr-2025\0\\#t hf a
 ug-cc-pvdz iop(5/13=1,5/36=2,99/5=2) pseudo=read geom=check guess=(rea
 d,tcheck) scf=(maxcycle=1)\\title\\0,1\C,0,-1.0997598,-1.90316366,-0.3
 5344594\C,0,-0.19280849,-0.67483423,-0.33018683\C,0,-0.64659511,0.2947
 0151,0.77157033\C,0,-0.34812266,1.75803252,0.53024906\O,0,1.08057132,2
 .01196696,0.50921006\C,0,1.69401523,2.53335883,-0.49255435\C,0,1.26543
 903,-1.10428298,-0.16977975\H,0,-2.1396191,-1.63218017,-0.54991411\H,0
 ,-0.78608088,-2.6103351,-1.12372427\H,0,-1.06614122,-2.42509582,0.6074

 Normal termination of Gaussian 16 at Wed Apr  9 17:36:04 2025.
