 Gaussian 16, Revision C.01,

 ----------------------------------------------------------------------
 #t hf aug-cc-pvdz symm=none int=(grid=ultrafine) guess=(read,tcheck) s
 table=(opt,rrhf)
 ----------------------------------------------------------------------
 -----
 title
 -----
 Symbolic Z-matrix:
 Charge =  0 Multiplicity = 1

 SCF Done:  E(RHF) =  -337.422857024     A.U. after   17 cycles
 Normal termination of Gaussian 16 at Wed Apr  9 03:58:24 2025.
 Gaussian 16:  ES64L-G16RevC.01  3-Jul-2019

 ----------------------------------------------------------------------
 #t hf aug-cc-pvdz iop(5/13=1,5/36=2,99/5=2) pseudo=read geom=check gue
 ss=(read,tcheck) scf=(maxcycle=1)
 ----------------------------------------------------------------------
 -----
 title
 -----
 Structure from the checkpoint file:  "Grambow2020_wb97xd3_008697_forward_mol1.chk"
 Charge =  0 Multiplicity = 1

                         Standard orientation:
 ---------------------------------------------------------------------
 Center     Atomic      Atomic             Coordinates (Angstroms)
 Number     Number       Type             X           Y           Z
 ---------------------------------------------------------------------
      1          8           0       -2.608347   -0.455324   -0.155130
      2          6           0       -2.168866    0.586901    0.074116
      3          6           0       -0.100946    0.478363    0.086132
      4          6           0        1.096761    1.138595   -0.040590
      5          7           0        2.145933    0.257580   -0.093561
      6          6           0        1.597628   -0.925914   -0.002222
      7          7           0        0.250590   -0.847552    0.114569
      8          1           0       -1.454701    1.389444    0.344723
      9          1           0        1.263427    2.203773   -0.097054
     10          1           0        2.126347   -1.867541   -0.019060
     11          1           0       -0.391424   -1.620946    0.160767
 ---------------------------------------------------------------------

 SCF Done:  E(RHF) =  -337.759669654     A.U. after    2 cycles

 The electronic state is 1-A.
 Alpha  occ. eigenvalues --  -20.65840 -15.55180 -15.47682 -11.43599 -11.29432
 Alpha  occ. eigenvalues --  -11.24373 -11.24229  -1.60188  -1.33498  -1.16915
 Alpha  occ. eigenvalues --   -1.01202  -0.91446  -0.85199  -0.81726  -0.77534
 Alpha  occ. eigenvalues --   -0.73183  -0.66522  -0.64121  -0.62920  -0.61981
 Alpha  occ. eigenvalues --   -0.58669  -0.48519  -0.43534  -0.37215  -0.32603
 Alpha virt. eigenvalues --    0.03137   0.03964   0.04905   0.05315   0.05712
 Alpha virt. eigenvalues --    0.07867   0.09539   0.10209   0.10405   0.11366
 Alpha virt. eigenvalues --    0.12480   0.13060   0.13463   0.15095   0.15289

 Mulliken charges:
               1
     1  O   -0.809795
     2  C    0.855778
     3  C   -0.849988
     4  C   -0.417817
     5  N    0.549725
     6  C   -0.571020
     7  N    0.784526
     8  H    0.678134
     9  H   -0.138202
    10  H   -0.057551
    11  H   -0.023789
 Sum of Mulliken charges =  -0.00000

 Dipole moment (field-independent basis, Debye):
    X=             -3.8115    Y=             -0.6152    Z=              0.6098  Tot=              3.9087

 Test job not archived.
 1\1\GINC-SE341\SP\RHF\Aug-CC-pVDZ\C4H4N2O1\OHZDE\09-Apr-2025\0\\#t hf
 aug-cc-pvdz iop(5/13=1,5/36=2,99/5=2) pseudo=read geom=check guess=(re
 ad,tcheck) scf=(maxcycle=1)\\title\\0,1\O,0,-2.19871514,-1.75263512,-0
 .16665134\C,0,-2.31379097,-0.61600763,-0.00304459\C,0,-0.44329363,0.27
 213452,0.02267463\C,0,0.30169148,1.41420572,-0.14205239\N,0,1.64425059
 ,1.13627943,-0.13516086\C,0,1.71989305,-0.15859313,0.02983155\N,0,0.49
 367901,-0.7235865,0.13695172\H,0,-2.07493027,0.44295021,0.21806042\H,0
 ,-0.0547973,2.4257098,-0.26593161\H,0,2.63207151,-0.73512128,0.0749466

 Normal termination of Gaussian 16 at Wed Apr  9 03:58:28 2025.
