 Gaussian 16, Revision C.01,

 ----------------------------------------------------------------------
 #t hf aug-cc-pvdz symm=none int=(grid=ultrafine) guess=(read,tcheck) s
 table=(opt,rrhf)
 ----------------------------------------------------------------------
 -----
 title
 -----
 Symbolic Z-matrix:
 Charge =  0 Multiplicity = 1

 SCF Done:  E(RHF) =  -302.813364136     A.U. after   15 cycles
 Normal termination of Gaussian 16 at Wed Apr  9 19:13:05 2025.
 Gaussian 16:  ES64L-G16RevC.01  3-Jul-2019

 ----------------------------------------------------------------------
 #t hf aug-cc-pvdz iop(5/13=1,5/36=2,99/5=2) pseudo=read geom=check gue
 ss=(read,tcheck) scf=(maxcycle=1)
 ----------------------------------------------------------------------
 -----
 title
 -----
 Structure from the checkpoint file:  "Grambow2020_wb97xd3_008912_reverse_mol2.chk"
 Charge =  0 Multiplicity = 1

                         Standard orientation:
 ---------------------------------------------------------------------
 Center     Atomic      Atomic             Coordinates (Angstroms)
 Number     Number       Type             X           Y           Z
 ---------------------------------------------------------------------
      1          6           0       -1.683375   -1.169983   -0.004526
      2          7           0       -0.371921   -0.571370    0.001445
      3          6           0        0.927754   -1.302195    0.005905
      4          6           0        1.986625   -0.494398    0.001827
      5          6           0        1.365279    0.892113   -0.004627
      6          6           0       -0.126725    0.700897    0.000220
      7          7           0       -1.065851    1.659165   -0.003213
      8          1           0       -2.275267   -0.811284   -0.851291
      9          1           0       -1.571214   -2.247570   -0.101592
     10          1           0       -2.218546   -0.962486    0.926222
     11          1           0        0.817786   -2.379728    0.010255
     12          1           0        1.660563    1.468131   -0.888072
     13          1           0        1.666651    1.484300    0.865638
     14          1           0       -2.047221    1.454619    0.043338
     15          1           0       -0.785693    2.620852    0.015080
 ---------------------------------------------------------------------

 SCF Done:  E(RHF) =  -303.130655027     A.U. after    2 cycles

 The electronic state is 1-A.
 Alpha  occ. eigenvalues --  -15.57221 -15.55918 -11.35966 -11.30014 -11.23505
 Alpha  occ. eigenvalues --  -11.20919 -11.14572  -1.34391  -1.24586  -1.08013
 Alpha  occ. eigenvalues --   -0.98303  -0.95606  -0.83021  -0.82312  -0.76024
 Alpha  occ. eigenvalues --   -0.71883  -0.69049  -0.63448  -0.61046  -0.58550
 Alpha  occ. eigenvalues --   -0.57491  -0.54823  -0.48762  -0.48656  -0.29799
 Alpha  occ. eigenvalues --   -0.28917
 Alpha virt. eigenvalues --    0.01200   0.03170   0.04020   0.04203   0.05380
 Alpha virt. eigenvalues --    0.05531   0.06342   0.07938   0.09663   0.10825
 Alpha virt. eigenvalues --    0.11279   0.12376   0.12465   0.14040   0.14625

 Mulliken charges:
               1
     1  C   -0.390435
     2  N    0.972032
     3  C    0.341959
     4  C   -0.439705
     5  C   -0.260527
     6  C   -1.830722
     7  N    0.773597
     8  H    0.191476
     9  H   -0.052274
    10  H    0.216031
    11  H   -0.208213
    12  H    0.229301
    13  H    0.223818
    14  H    0.026709
    15  H    0.206954
 Sum of Mulliken charges =  -0.00000

 Dipole moment (field-independent basis, Debye):
    X=             -8.2842    Y=              3.9415    Z=              0.0762  Tot=              9.1744

 Test job not archived.
 1\1\GINC-SE219\SP\RHF\Aug-CC-pVDZ\C5H8N2\OHZDE\09-Apr-2025\0\\#t hf au
 g-cc-pvdz iop(5/13=1,5/36=2,99/5=2) pseudo=read geom=check guess=(read
 ,tcheck) scf=(maxcycle=1)\\title\\0,1\C,0,-1.31753838,-1.21509625,0.52
 588283\N,0,-0.07406666,-0.56225489,0.20052009\C,0,1.28733056,-1.160782
 77,0.30841825\C,0,2.25897855,-0.33154163,-0.06843677\C,0,1.50659426,0.
 92836598,-0.46223426\C,0,0.04501399,0.65010047,-0.24084233\N,0,-0.9807
 0565,1.48702106,-0.4592666\H,0,-2.00383653,-1.20004757,-0.32545726\H,0
 ,-1.10840993,-2.25321839,0.77440529\H,0,-1.79860226,-0.74532964,1.3882

 Normal termination of Gaussian 16 at Wed Apr  9 19:13:10 2025.
