 Gaussian 16, Revision C.01,

 ----------------------------------------------------------------------
 #t hf aug-cc-pvdz symm=none int=(grid=ultrafine) guess=(read,tcheck) s
 table=(opt,rrhf)
 ----------------------------------------------------------------------
 -----
 title
 -----
 Symbolic Z-matrix:
 Charge =  0 Multiplicity = 1

 SCF Done:  E(RHF) =  -317.516419728     A.U. after   17 cycles
 Normal termination of Gaussian 16 at Wed Apr  9 18:46:23 2025.
 Gaussian 16:  ES64L-G16RevC.01  3-Jul-2019

 ----------------------------------------------------------------------
 #t hf aug-cc-pvdz iop(5/13=1,5/36=2,99/5=2) pseudo=read geom=check gue
 ss=(read,tcheck) scf=(maxcycle=1)
 ----------------------------------------------------------------------
 -----
 title
 -----
 Structure from the checkpoint file:  "Grambow2020_wb97xd3_008050_forward_mol1.chk"
 Charge =  0 Multiplicity = 1

                         Standard orientation:
 ---------------------------------------------------------------------
 Center     Atomic      Atomic             Coordinates (Angstroms)
 Number     Number       Type             X           Y           Z
 ---------------------------------------------------------------------
      1          7           0        1.698398   -0.324219   -0.514703
      2          6           0        0.453619   -0.497341   -0.690368
      3          6           0       -0.711240    0.613527   -0.711618
      4          6           0       -1.526154   -0.399952    0.054931
      5          7           0       -0.258081   -1.071186    0.477062
      6          6           0        0.691917    0.060205    0.789711
      7          7           0       -0.034380    1.287705    0.435465
      8          1           0       -1.043935    1.243651   -1.527172
      9          1           0       -2.117095   -0.007300    0.878969
     10          1           0       -2.094489   -1.097681   -0.555353
     11          1           0        1.315156    0.001381    1.668946
     12          1           0        0.649946    1.955223    0.093897
 ---------------------------------------------------------------------

 SCF Done:  E(RHF) =  -317.840501172     A.U. after    2 cycles

 The electronic state is 1-A.
 Alpha  occ. eigenvalues --  -15.54443 -15.53306 -15.48544 -11.37933 -11.36098
 Alpha  occ. eigenvalues --  -11.31172 -11.28603  -1.42106  -1.20897  -1.18693
 Alpha  occ. eigenvalues --   -1.02173  -0.89976  -0.85360  -0.78224  -0.74656
 Alpha  occ. eigenvalues --   -0.68737  -0.65168  -0.62663  -0.59931  -0.58181
 Alpha  occ. eigenvalues --   -0.53878  -0.52796  -0.48586  -0.44828  -0.38232
 Alpha virt. eigenvalues --    0.02979   0.04183   0.04405   0.04733   0.05217
 Alpha virt. eigenvalues --    0.06711   0.08212   0.09701   0.10152   0.10758
 Alpha virt. eigenvalues --    0.12725   0.13588   0.14155   0.14652   0.14833

 Mulliken charges:
               1
     1  N    0.902246
     2  C   -1.577965
     3  C    0.086091
     4  C    0.210380
     5  N    0.601683
     6  C   -0.903348
     7  N    0.644393
     8  H   -0.121037
     9  H    0.049970
    10  H   -0.050557
    11  H   -0.184576
    12  H    0.342719
 Sum of Mulliken charges =  -0.00000

 Dipole moment (field-independent basis, Debye):
    X=             -3.1506    Y=              1.9092    Z=             -0.5162  Tot=              3.7199

 Test job not archived.
 1\1\GINC-SE192\SP\RHF\Aug-CC-pVDZ\C4H5N3\OHZDE\09-Apr-2025\0\\#t hf au
 g-cc-pvdz iop(5/13=1,5/36=2,99/5=2) pseudo=read geom=check guess=(read
 ,tcheck) scf=(maxcycle=1)\\title\\0,1\N,0,1.02672945,0.29714257,1.7768
 5482\C,0,0.70118345,-0.49179695,0.8377601\C,0,0.65499205,-0.19018476,-
 0.74283238\C,0,-0.61404973,-1.00770766,-0.73972281\N,0,-0.75524795,-0.
 74685988,0.72614931\C,0,-0.36272731,0.70088206,0.9001077\N,0,0.0734713
 7,1.14861496,-0.42993784\H,0,1.45576853,-0.22176987,-1.47127666\H,0,-1
 .43095462,-0.61685905,-1.34166049\H,0,-0.47916869,-2.07689514,-0.88436

 Normal termination of Gaussian 16 at Wed Apr  9 18:46:27 2025.
