 Gaussian 16, Revision C.01,

 ----------------------------------------------------------------------
 #t hf aug-cc-pvdz symm=none int=(grid=ultrafine) guess=(read,tcheck) s
 table=(opt,rrhf)
 ----------------------------------------------------------------------
 -----
 title
 -----
 Symbolic Z-matrix:
 Charge =  0 Multiplicity = 1

 SCF Done:  E(RHF) =  -281.659561675     A.U. after   14 cycles
 Normal termination of Gaussian 16 at Wed Apr  9 03:07:35 2025.
 Gaussian 16:  ES64L-G16RevC.01  3-Jul-2019

 ----------------------------------------------------------------------
 #t hf aug-cc-pvdz iop(5/13=1,5/36=2,99/5=2) pseudo=read geom=check gue
 ss=(read,tcheck) scf=(maxcycle=1)
 ----------------------------------------------------------------------
 -----
 title
 -----
 Structure from the checkpoint file:  "Grambow2020_b97d3_006582_reverse_mol2.chk"
 Charge =  0 Multiplicity = 1

                         Standard orientation:
 ---------------------------------------------------------------------
 Center     Atomic      Atomic             Coordinates (Angstroms)
 Number     Number       Type             X           Y           Z
 ---------------------------------------------------------------------
      1          8           0        2.300636   -0.275432   -0.000662
      2          6           0        1.269878    0.367002    0.000043
      3          7           0       -0.006445   -0.218484    0.001230
      4          6           0       -1.125840    0.559296    0.000050
      5          8           0       -2.177170   -0.289672   -0.000602
      6          1           0        1.199013    1.470970    0.000258
      7          1           0       -0.029932   -1.249084    0.001186
      8          1           0       -2.975919    0.270551   -0.000501
 ---------------------------------------------------------------------

 SCF Done:  E(RHF) =  -281.932915970     A.U. after    2 cycles

 The electronic state is 1-A.
 Alpha  occ. eigenvalues --  -20.62261 -20.55398 -15.57099 -11.38968 -11.35311
 Alpha  occ. eigenvalues --   -1.53686  -1.48852  -1.27522  -0.95318  -0.87189
 Alpha  occ. eigenvalues --   -0.75296  -0.71788  -0.67427  -0.64612  -0.64267
 Alpha  occ. eigenvalues --   -0.57164  -0.47296  -0.46210  -0.41857
 Alpha virt. eigenvalues --    0.03150   0.04710   0.05360   0.07884   0.09351
 Alpha virt. eigenvalues --    0.09950   0.11299   0.11439   0.13202   0.14041
 Alpha virt. eigenvalues --    0.16335   0.16925   0.18058   0.19336   0.20841

 Mulliken charges:
               1
     1  O   -1.025886
     2  C    0.715275
     3  N    0.460033
     4  C    0.186216
     5  O   -1.060337
     6  H    0.184826
     7  H    0.066356
     8  H    0.473518
 Sum of Mulliken charges =  -0.00000

 Dipole moment (field-independent basis, Debye):
    X=             -3.1909    Y=              0.3200    Z=              0.0015  Tot=              3.2069

 Test job not archived.
 1\1\GINC-SE071\SP\RHF\Aug-CC-pVDZ\C2H3N1O2\OHZDE\09-Apr-2025\0\\#t hf
 aug-cc-pvdz iop(5/13=1,5/36=2,99/5=2) pseudo=read geom=check guess=(re
 ad,tcheck) scf=(maxcycle=1)\\title\\0,1\O,0,-2.47589818,0.39414869,0.2
 0227681\C,0,-1.45951709,-0.07267747,-0.27124924\N,0,-0.17676025,0.1968
 4893,0.23242339\C,0,0.92575926,-0.35776732,-0.34623026\O,0,1.98895175,
 0.09065004,0.35703717\H,0,-1.4082703,-0.75554185,-1.14006317\H,0,-0.13
 523519,0.82795743,1.04646551\H,0,2.775497,-0.30905446,-0.0594162\\Vers
 ion=ES64L-G16RevC.01\State=1-A\HF=-281.932916\RMSD=1.084e-02\Dipole=1.

 Normal termination of Gaussian 16 at Wed Apr  9 03:07:38 2025.
