 Gaussian 16, Revision C.01,

 ----------------------------------------------------------------------
 #t hf aug-cc-pvdz symm=none int=(grid=ultrafine) guess=(read,tcheck) s
 table=(opt,rrhf)
 ----------------------------------------------------------------------
 -----
 title
 -----
 Symbolic Z-matrix:
 Charge =  0 Multiplicity = 1

 SCF Done:  E(RHF) =  -344.738212727     A.U. after   15 cycles

 1\1\GINC-SE364\Stability\RHF\Aug-CC-pVDZ\C5H10O2\OHZDE\09-Apr-2025\0\\
 #t hf aug-cc-pvdz symm=none int=(grid=ultrafine) guess=(read,tcheck) s
 table=(opt,rrhf)\\title\\0,1\C,0,1.95481295,-0.03864582,-0.62510659\C,
 0,1.02545142,-0.20221013,0.53422859\O,0,-0.07287372,1.83007168,-0.1171
 8153\C,0,-1.16014693,1.20606649,-0.33762584\C,0,-1.62396186,0.26765169
 ,0.66133294\C,0,0.01907103,-1.11959322,0.57190381\O,0,-0.2914113,-1.94
 661321,-0.47877436\H,0,2.48185305,0.90956741,-0.56496267\H,0,1.4234116
 5,-0.03505844,-1.58079974\H,0,2.68903568,-0.85196151,-0.64926737\H,0,1

 Normal termination of Gaussian 16 at Wed Apr  9 03:39:42 2025.
 Gaussian 16:  ES64L-G16RevC.01  3-Jul-2019

 ----------------------------------------------------------------------
 #t hf aug-cc-pvdz iop(5/13=1,5/36=2,99/5=2) pseudo=read geom=check gue
 ss=(read,tcheck) scf=(maxcycle=1)
 ----------------------------------------------------------------------
 -----
 title
 -----
 Structure from the checkpoint file:  "Grambow2020_wb97xd3_007407_reverse_mol1.chk"
 Charge =  0 Multiplicity = 1

                         Standard orientation:
 ---------------------------------------------------------------------
 Center     Atomic      Atomic             Coordinates (Angstroms)
 Number     Number       Type             X           Y           Z
 ---------------------------------------------------------------------
      1          6           0        1.575163    1.340688   -0.190973
      2          6           0        0.841255    0.427057    0.737025
      3          8           0       -1.224334    1.372352   -0.037944
      4          6           0       -1.593901    0.250186   -0.511552
      5          6           0       -1.452350   -0.923520    0.322739
      6          6           0        0.690837   -0.909239    0.519079
      7          8           0        1.139681   -1.547535   -0.610259
      8          1           0        1.336455    2.378911    0.022589
      9          1           0        1.302215    1.171088   -1.236193
     10          1           0        2.657800    1.198724   -0.096670
     11          1           0        0.567223    0.801368    1.712660
     12          1           0       -1.512202    0.042602   -1.595469
     13          1           0       -2.724407   -0.109585   -0.247349
     14          1           0       -1.655522   -0.780896    1.378372
     15          1           0       -1.632883   -1.912313   -0.092811
     16          1           0        0.551483   -1.605667    1.337218
     17          1           0        1.421036   -0.893799   -1.254629
 ---------------------------------------------------------------------

 SCF Done:  E(RHF) =  -345.096655855     A.U. after    2 cycles

 The electronic state is 1-A.
 Alpha  occ. eigenvalues --  -20.57468 -20.45675 -11.32012 -11.29693 -11.29635
 Alpha  occ. eigenvalues --  -11.27320 -11.24056  -1.48762  -1.38047  -1.07953
 Alpha  occ. eigenvalues --   -1.05034  -0.94832  -0.81624  -0.80091  -0.70821
 Alpha  occ. eigenvalues --   -0.68225  -0.66546  -0.63327  -0.60482  -0.57774
 Alpha  occ. eigenvalues --   -0.56909  -0.55253  -0.54144  -0.54069  -0.52933
 Alpha  occ. eigenvalues --   -0.37655  -0.35272  -0.32890
 Alpha virt. eigenvalues --    0.03019   0.03593   0.03771   0.04637   0.05713
 Alpha virt. eigenvalues --    0.05831   0.06279   0.06539   0.07394   0.08344
 Alpha virt. eigenvalues --    0.09662   0.11916   0.12514   0.13526   0.13625

 Mulliken charges:
               1
     1  C   -0.536124
     2  C    0.510009
     3  O   -1.249559
     4  C    0.859815
     5  C   -0.206818
     6  C    1.040275
     7  O   -1.503166
     8  H    0.144590
     9  H    0.147144
    10  H    0.228295
    11  H   -0.211452
    12  H    0.153602
    13  H    0.260245
    14  H    0.025589
    15  H    0.019237
    16  H    0.006682
    17  H    0.311638
 Sum of Mulliken charges =  -0.00000

 Dipole moment (field-independent basis, Debye):
    X=              0.7355    Y=             -2.5321    Z=              0.4946  Tot=              2.6827

 Test job not archived.
 1\1\GINC-SE364\SP\RHF\Aug-CC-pVDZ\C5H10O2\OHZDE\09-Apr-2025\0\\#t hf a
 ug-cc-pvdz iop(5/13=1,5/36=2,99/5=2) pseudo=read geom=check guess=(rea
 d,tcheck) scf=(maxcycle=1)\\title\\0,1\C,0,1.95481295,-0.03864582,-0.6
 2510659\C,0,1.02545142,-0.20221013,0.53422859\O,0,-0.07287372,1.830071
 68,-0.11718153\C,0,-1.16014693,1.20606649,-0.33762584\C,0,-1.62396186,
 0.26765169,0.66133294\C,0,0.01907103,-1.11959322,0.57190381\O,0,-0.291
 4113,-1.94661321,-0.47877436\H,0,2.48185305,0.90956741,-0.56496267\H,0
 ,1.42341165,-0.03505844,-1.58079974\H,0,2.68903568,-0.85196151,-0.6492

 Normal termination of Gaussian 16 at Wed Apr  9 03:39:48 2025.
