 Gaussian 16, Revision C.01,

 ----------------------------------------------------------------------
 #t hf aug-cc-pvdz symm=none int=(grid=ultrafine) guess=(read,tcheck) s
 table=(opt,rrhf)
 ----------------------------------------------------------------------
 -----
 title
 -----
 Symbolic Z-matrix:
 Charge =  0 Multiplicity = 1

 SCF Done:  E(RHF) =  -323.819640202     A.U. after   13 cycles
 Normal termination of Gaussian 16 at Wed Apr  9 17:46:41 2025.
 Gaussian 16:  ES64L-G16RevC.01  3-Jul-2019

 ----------------------------------------------------------------------
 #t hf aug-cc-pvdz iop(5/13=1,5/36=2,99/5=2) pseudo=read geom=check gue
 ss=(read,tcheck) scf=(maxcycle=1)
 ----------------------------------------------------------------------
 -----
 title
 -----
 Structure from the checkpoint file:  "Grambow2020_wb97xd3_006817_reverse_mol2.chk"
 Charge =  0 Multiplicity = 1

                         Standard orientation:
 ---------------------------------------------------------------------
 Center     Atomic      Atomic             Coordinates (Angstroms)
 Number     Number       Type             X           Y           Z
 ---------------------------------------------------------------------
      1          6           0       -1.329212    1.589800   -0.330519
      2          6           0       -1.741636    0.424351    0.561974
      3          6           0       -1.607839   -0.944352   -0.098737
      4          6           0       -0.194613   -1.404634   -0.348988
      5          6           0        0.874295   -0.784875    0.058823
      6          7           0        1.869385   -0.247720    0.543090
      7          8           0        2.453733    0.715470   -0.290694
      8          1           0       -1.928506    1.612404   -1.244261
      9          1           0       -0.279523    1.530757   -0.622765
     10          1           0       -1.472790    2.541183    0.184370
     11          1           0       -2.784720    0.552502    0.863426
     12          1           0       -2.098945   -1.701719    0.521051
     13          1           0       -2.142198   -0.948174   -1.055095
     14          1           0       -0.049617   -2.325642   -0.905125
     15          1           0       -1.153660    0.437704    1.485023
     16          1           0        3.188435    1.029529    0.241986
 ---------------------------------------------------------------------

 SCF Done:  E(RHF) =  -324.158825538     A.U. after    2 cycles

 The electronic state is 1-A.
 Alpha  occ. eigenvalues --  -20.59573 -15.57203 -11.29638 -11.26210 -11.24938
 Alpha  occ. eigenvalues --  -11.23265 -11.21951  -1.50867  -1.20348  -1.09838
 Alpha  occ. eigenvalues --   -1.01607  -0.92435  -0.82060  -0.74888  -0.71443
 Alpha  occ. eigenvalues --   -0.68297  -0.65224  -0.62262  -0.60828  -0.56762
 Alpha  occ. eigenvalues --   -0.56335  -0.53020  -0.50003  -0.48990  -0.48522
 Alpha  occ. eigenvalues --   -0.42384  -0.37272
 Alpha virt. eigenvalues --    0.03526   0.03890   0.03940   0.04327   0.05621
 Alpha virt. eigenvalues --    0.06589   0.07215   0.07458   0.09036   0.10708
 Alpha virt. eigenvalues --    0.12095   0.12770   0.13369   0.14229   0.14888

 Mulliken charges:
               1
     1  C   -0.200970
     2  C   -0.364457
     3  C   -0.497339
     4  C    1.405459
     5  C   -2.079211
     6  N    1.471245
     7  O   -1.095719
     8  H    0.169801
     9  H    0.122977
    10  H    0.111612
    11  H    0.094769
    12  H    0.175767
    13  H    0.207120
    14  H   -0.112119
    15  H    0.252919
    16  H    0.338145
 Sum of Mulliken charges =  -0.00000

 Dipole moment (field-independent basis, Debye):
    X=             -1.3193    Y=             -0.2971    Z=             -0.2763  Tot=              1.3803

 Test job not archived.
 1\1\GINC-SE029\SP\RHF\Aug-CC-pVDZ\C5H9N1O1\OHZDE\09-Apr-2025\0\\#t hf
 aug-cc-pvdz iop(5/13=1,5/36=2,99/5=2) pseudo=read geom=check guess=(re
 ad,tcheck) scf=(maxcycle=1)\\title\\0,1\C,0,-1.24045266,-1.14794076,-0
 .19505362\C,0,-0.83032382,-0.0113094,-1.1249861\C,0,-0.6294101,1.32764
 869,-0.4216998\C,0,0.56823665,1.40420151,0.49015285\C,0,1.47164476,0.4
 7595602,0.61340251\N,0,2.37302646,-0.3608022,0.63794028\O,0,2.19264988
 ,-1.35738762,1.60679211\H,0,-2.17400697,-0.91143492,0.32179182\H,0,-0.
 48262264,-1.35061405,0.56347012\H,0,-1.39641192,-2.07039932,-0.7568377

 Normal termination of Gaussian 16 at Wed Apr  9 17:46:47 2025.
