 Gaussian 16, Revision C.01,

 ----------------------------------------------------------------------
 #t hf aug-cc-pvdz symm=none int=(grid=ultrafine) guess=(read,tcheck) s
 table=(opt,rrhf)
 ----------------------------------------------------------------------
 -----
 title
 -----
 Symbolic Z-matrix:
 Charge =  0 Multiplicity = 1

 SCF Done:  E(RHF) =  -323.726951261     A.U. after   15 cycles
 Normal termination of Gaussian 16 at Wed Apr  9 18:24:51 2025.
 Gaussian 16:  ES64L-G16RevC.01  3-Jul-2019

 ----------------------------------------------------------------------
 #t hf aug-cc-pvdz iop(5/13=1,5/36=2,99/5=2) pseudo=read geom=check gue
 ss=(read,tcheck) scf=(maxcycle=1)
 ----------------------------------------------------------------------
 -----
 title
 -----
 Structure from the checkpoint file:  "Grambow2020_wb97xd3_007535_reverse_mol1.chk"
 Charge =  0 Multiplicity = 1

                         Standard orientation:
 ---------------------------------------------------------------------
 Center     Atomic      Atomic             Coordinates (Angstroms)
 Number     Number       Type             X           Y           Z
 ---------------------------------------------------------------------
      1          6           0       -2.805874   -0.389585    0.016928
      2          8           0       -1.641868    0.126442   -0.276197
      3          6           0       -0.505688   -0.480543   -0.082996
      4          6           0        0.717436    0.326838   -0.428390
      5          6           0        0.760353    1.690032    0.272257
      6          6           0        1.907025   -0.464102   -0.097376
      7          7           0        2.841803   -1.075893    0.161395
      8          1           0       -3.633936    0.283445   -0.140906
      9          1           0       -2.004388   -0.678283    1.760610
     10          1           0       -2.926721   -1.464342   -0.035293
     11          1           0       -0.485902   -1.563102   -0.144403
     12          1           0       -1.203612   -0.717187    1.742630
     13          1           0        0.759248    0.490666   -1.514279
     14          1           0        1.641725    2.252067   -0.036094
     15          1           0       -0.128364    2.263008    0.011374
     16          1           0        0.784759    1.557609    1.353633
 ---------------------------------------------------------------------

 SCF Done:  E(RHF) =  -324.060526084     A.U. after    2 cycles

 The electronic state is 1-A.
 Alpha  occ. eigenvalues --  -20.67708 -15.51450 -11.32432 -11.31590 -11.30810
 Alpha  occ. eigenvalues --  -11.28163 -11.25527  -1.60952  -1.24129  -1.12662
 Alpha  occ. eigenvalues --   -1.01547  -0.93182  -0.84989  -0.75937  -0.73087
 Alpha  occ. eigenvalues --   -0.71138  -0.68739  -0.64081  -0.61343  -0.59035
 Alpha  occ. eigenvalues --   -0.56315  -0.55633  -0.54978  -0.51422  -0.49708
 Alpha  occ. eigenvalues --   -0.49531  -0.28835
 Alpha virt. eigenvalues --    0.03028   0.03142   0.03759   0.04643   0.05726
 Alpha virt. eigenvalues --    0.06030   0.06676   0.07165   0.08170   0.09332
 Alpha virt. eigenvalues --    0.10170   0.11720   0.12369   0.13533   0.13772

 Mulliken charges:
               1
     1  C    0.306986
     2  O   -1.110518
     3  C    1.107641
     4  C   -0.396105
     5  C   -0.061679
     6  C   -1.791400
     7  N    1.083626
     8  H   -0.092062
     9  H    0.083619
    10  H    0.029597
    11  H   -0.066371
    12  H    0.081741
    13  H    0.264675
    14  H    0.132539
    15  H    0.170634
    16  H    0.257078
 Sum of Mulliken charges =  -0.00000

 Dipole moment (field-independent basis, Debye):
    X=             -3.9606    Y=              2.0719    Z=             -2.0231  Tot=              4.9064

 Test job not archived.
 1\1\GINC-SE035\SP\RHF\Aug-CC-pVDZ\C5H9N1O1\OHZDE\09-Apr-2025\0\\#t hf
 aug-cc-pvdz iop(5/13=1,5/36=2,99/5=2) pseudo=read geom=check guess=(re
 ad,tcheck) scf=(maxcycle=1)\\title\\0,1\C,0,2.40756695,0.5872739,0.171
 73589\O,0,1.10658649,0.70742319,0.18314822\C,0,0.28751476,-0.26073166,
 0.48057243\C,0,-1.17448749,0.07971354,0.36292795\C,0,-1.55560168,0.644
 64734,-1.0106256\C,0,-1.95883565,-1.1217943,0.66534156\N,0,-2.57865563
 ,-2.05809734,0.89819651\H,0,2.92446994,1.47017205,-0.17012701\H,0,2.04
 744719,-0.93176308,-0.98108434\H,0,2.87103774,-0.11799955,0.85012924\H

 Normal termination of Gaussian 16 at Wed Apr  9 18:24:56 2025.
