 Gaussian 16, Revision C.01,

 ----------------------------------------------------------------------
 #t hf aug-cc-pvdz symm=none int=(grid=ultrafine) guess=(read,tcheck) s
 table=(opt,rrhf)
 ----------------------------------------------------------------------
 -----
 title
 -----
 Symbolic Z-matrix:
 Charge =  0 Multiplicity = 1

 SCF Done:  E(RHF) =  -316.422115915     A.U. after   16 cycles
 Normal termination of Gaussian 16 at Wed Apr  9 18:16:57 2025.
 Gaussian 16:  ES64L-G16RevC.01  3-Jul-2019

 ----------------------------------------------------------------------
 #t hf aug-cc-pvdz iop(5/13=1,5/36=2,99/5=2) pseudo=read geom=check gue
 ss=(read,tcheck) scf=(maxcycle=1)
 ----------------------------------------------------------------------
 -----
 title
 -----
 Structure from the checkpoint file:  "Grambow2020_wb97xd3_007272_forward_mol1.chk"
 Charge =  0 Multiplicity = 1

                         Standard orientation:
 ---------------------------------------------------------------------
 Center     Atomic      Atomic             Coordinates (Angstroms)
 Number     Number       Type             X           Y           Z
 ---------------------------------------------------------------------
      1          7           0        2.872117   -0.017685    0.009979
      2          6           0        1.726441   -0.091940    0.000452
      3          6           0        0.302922   -0.111002   -0.020381
      4          7           0       -0.470068   -1.147946   -0.005837
      5          6           0       -1.758162   -0.675565    0.008885
      6          6           0       -1.914636    0.693356   -0.086782
      7          7           0       -0.450043    1.060967   -0.008860
      8          1           0       -2.574943   -1.380174    0.054682
      9          1           0       -1.112228    1.270794    0.915763
     10          1           0       -0.116267    1.952934   -0.350461
 ---------------------------------------------------------------------

 SCF Done:  E(RHF) =  -316.736342703     A.U. after    2 cycles

 The electronic state is 1-A.
 Alpha  occ. eigenvalues --  -15.65355 -15.56619 -15.55206 -11.37495 -11.31691
 Alpha  occ. eigenvalues --  -11.28540 -11.28386  -1.41029  -1.27086  -1.25659
 Alpha  occ. eigenvalues --   -1.08612  -0.93582  -0.89737  -0.86910  -0.77591
 Alpha  occ. eigenvalues --   -0.70088  -0.64351  -0.63054  -0.57691  -0.55989
 Alpha  occ. eigenvalues --   -0.54303  -0.52352  -0.42224  -0.37769
 Alpha virt. eigenvalues --    0.01788   0.02633   0.04210   0.04622   0.06841
 Alpha virt. eigenvalues --    0.08217   0.08950   0.09644   0.10228   0.11076
 Alpha virt. eigenvalues --    0.11290   0.12685   0.13851   0.14327   0.14422

 Mulliken charges:
               1
     1  N    1.152303
     2  C   -2.017733
     3  C   -0.414495
     4  N    0.841963
     5  C   -0.085306
     6  C   -0.553114
     7  N    0.436549
     8  H   -0.079469
     9  H    0.582145
    10  H    0.137156
 Sum of Mulliken charges =   0.00000

 Dipole moment (field-independent basis, Debye):
    X=             -1.7701    Y=              2.3499    Z=              0.6011  Tot=              3.0028

 Test job not archived.
 1\1\GINC-SE174\SP\RHF\Aug-CC-pVDZ\C4H3N3\OHZDE\09-Apr-2025\0\\#t hf au
 g-cc-pvdz iop(5/13=1,5/36=2,99/5=2) pseudo=read geom=check guess=(read
 ,tcheck) scf=(maxcycle=1)\\title\\0,1\N,0,3.13885923,-0.45221771,0.630
 54257\C,0,2.01385782,-0.42699365,0.40270157\C,0,0.62640806,-0.32543155
 ,0.09959445\N,0,-0.2541964,-1.27261211,0.11862317\C,0,-1.4574087,-0.69
 463408,-0.19881729\C,0,-1.4292403,0.64486117,-0.53428456\N,0,0.0293851
 6,0.89154321,-0.22155337\H,0,-2.34683672,-1.30660023,-0.20969646\H,0,-
 0.76140852,1.31650823,0.50748382\H,0,0.52415838,1.67762272,-0.62277789

 Normal termination of Gaussian 16 at Wed Apr  9 18:17:01 2025.
