 Gaussian 16, Revision C.01,

 ----------------------------------------------------------------------
 #t hf aug-cc-pvdz symm=none int=(grid=ultrafine) guess=(read,tcheck) s
 table=(opt,rrhf)
 ----------------------------------------------------------------------
 -----
 title
 -----
 Symbolic Z-matrix:
 Charge =  0 Multiplicity = 1

 SCF Done:  E(RHF) =  -394.307585029     A.U. after   15 cycles
 Normal termination of Gaussian 16 at Wed Apr  9 18:13:21 2025.
 Gaussian 16:  ES64L-G16RevC.01  3-Jul-2019

 ----------------------------------------------------------------------
 #t hf aug-cc-pvdz iop(5/13=1,5/36=2,99/5=2) pseudo=read geom=check gue
 ss=(read,tcheck) scf=(maxcycle=1)
 ----------------------------------------------------------------------
 -----
 title
 -----
 Structure from the checkpoint file:  "Grambow2020_wb97xd3_007200_reverse_mol1.chk"
 Charge =  0 Multiplicity = 1

                         Standard orientation:
 ---------------------------------------------------------------------
 Center     Atomic      Atomic             Coordinates (Angstroms)
 Number     Number       Type             X           Y           Z
 ---------------------------------------------------------------------
      1          7           0        2.182758    0.186817    0.187021
      2          6           0        0.964834    0.016606   -0.014619
      3          8           0        0.275155   -1.054175   -0.492208
      4          6           0       -1.043038   -0.666186   -0.128386
      5          8           0       -1.117549   -0.282147    1.100026
      6          6           0       -0.116729    1.047596    0.124803
      7          8           0       -1.046026    0.863793   -0.751453
      8          1           0        2.725785   -0.651265   -0.005692
      9          1           0       -1.787987   -1.283421   -0.627245
     10          1           0        0.059853    2.019103    0.582083
 ---------------------------------------------------------------------

 SCF Done:  E(RHF) =  -394.692683068     A.U. after    2 cycles

 The electronic state is 1-A.
 Alpha  occ. eigenvalues --  -20.62288 -20.60544 -20.54078 -15.53006 -11.45095
 Alpha  occ. eigenvalues --  -11.44024 -11.38874  -1.62984  -1.51906  -1.43554
 Alpha  occ. eigenvalues --   -1.26034  -1.02148  -0.91402  -0.85133  -0.80190
 Alpha  occ. eigenvalues --   -0.73374  -0.70698  -0.69045  -0.68058  -0.61392
 Alpha  occ. eigenvalues --   -0.59999  -0.54697  -0.50547  -0.47721  -0.45844
 Alpha  occ. eigenvalues --   -0.43134
 Alpha virt. eigenvalues --    0.03189   0.03882   0.04707   0.04803   0.08839
 Alpha virt. eigenvalues --    0.09065   0.10442   0.10535   0.11736   0.12430
 Alpha virt. eigenvalues --    0.13229   0.13971   0.14546   0.16245   0.17043

 Mulliken charges:
               1
     1  N    0.721443
     2  C   -0.204340
     3  O   -1.351351
     4  C    1.951949
     5  O   -1.216549
     6  C    0.957942
     7  O   -1.323588
     8  H    0.174942
     9  H    0.259369
    10  H    0.030182
 Sum of Mulliken charges =  -0.00000

 Dipole moment (field-independent basis, Debye):
    X=              0.0640    Y=             -0.1035    Z=             -1.3243  Tot=              1.3299

 Test job not archived.
 1\1\GINC-SE116\SP\RHF\Aug-CC-pVDZ\C3H3N1O3\OHZDE\09-Apr-2025\0\\#t hf
 aug-cc-pvdz iop(5/13=1,5/36=2,99/5=2) pseudo=read geom=check guess=(re
 ad,tcheck) scf=(maxcycle=1)\\title\\0,1\N,0,-1.00372968,1.5274558,-1.0
 0353958\C,0,-0.36473762,0.58121403,-0.50425385\O,0,0.80935787,-0.00063
 528,-0.86931603\C,0,1.08114375,-0.7431692,0.31191719\O,0,0.9610583,-0.
 02718073,1.37726855\C,0,-0.80170528,-0.28778443,0.63857544\O,0,-0.3781
 2147,-1.49732021,0.48757552\H,0,-0.51771204,1.94641533,-1.79262637\H,0
 ,1.87116079,-1.47334713,0.14608359\H,0,-1.67200162,-0.05413821,1.24858

 Normal termination of Gaussian 16 at Wed Apr  9 18:13:25 2025.
