 Gaussian 16, Revision C.01,

 ----------------------------------------------------------------------
 #t hf aug-cc-pvdz symm=none int=(grid=ultrafine) guess=(read,tcheck) s
 table=(opt,rrhf)
 ----------------------------------------------------------------------
 -----
 title
 -----
 Symbolic Z-matrix:
 Charge =  0 Multiplicity = 1

 SCF Done:  E(RHF) =  -360.959599028     A.U. after   13 cycles
 Normal termination of Gaussian 16 at Wed Apr  9 19:07:57 2025.
 Gaussian 16:  ES64L-G16RevC.01  3-Jul-2019

 ----------------------------------------------------------------------
 #t hf aug-cc-pvdz iop(5/13=1,5/36=2,99/5=2) pseudo=read geom=check gue
 ss=(read,tcheck) scf=(maxcycle=1)
 ----------------------------------------------------------------------
 -----
 title
 -----
 Structure from the checkpoint file:  "Grambow2020_wb97xd3_008625_reverse_mol2.chk"
 Charge =  0 Multiplicity = 1

                         Standard orientation:
 ---------------------------------------------------------------------
 Center     Atomic      Atomic             Coordinates (Angstroms)
 Number     Number       Type             X           Y           Z
 ---------------------------------------------------------------------
      1          6           0        2.043931    1.251137   -0.369671
      2          6           0        2.383688   -0.203790   -0.303614
      3          6           0        2.018471   -1.025664    0.673865
      4          8           0       -1.048070    0.545022    1.060696
      5          6           0       -1.549011    0.004154    0.102669
      6          8           0       -0.879509   -0.788602   -0.751653
      7          7           0       -2.847104    0.123133   -0.261731
      8          1           0        2.951153    1.857606   -0.305366
      9          1           0        1.567546    1.496054   -1.322694
     10          1           0        1.367719    1.537458    0.435775
     11          1           0        0.042231   -0.837219   -0.446188
     12          1           0        2.982765   -0.598693   -1.121619
     13          1           0        2.310541   -2.069269    0.669365
     14          1           0        1.423235   -0.673951    1.510846
     15          1           0       -3.216512   -0.416304   -1.020311
     16          1           0       -3.460790    0.636005    0.340467
 ---------------------------------------------------------------------

 SCF Done:  E(RHF) =  -361.331723292     A.U. after    2 cycles

 The electronic state is 1-A.
 Alpha  occ. eigenvalues --  -20.58707 -20.51199 -15.53072 -11.41122 -11.25002
 Alpha  occ. eigenvalues --  -11.23168 -11.22797  -1.54281  -1.44175  -1.22958
 Alpha  occ. eigenvalues --   -1.07518  -0.93898  -0.87980  -0.78694  -0.76554
 Alpha  occ. eigenvalues --   -0.71948  -0.67655  -0.65539  -0.65082  -0.60075
 Alpha  occ. eigenvalues --   -0.59551  -0.57233  -0.53164  -0.50242  -0.49895
 Alpha  occ. eigenvalues --   -0.44862  -0.44582  -0.37848
 Alpha virt. eigenvalues --    0.03021   0.03924   0.04450   0.05075   0.05994
 Alpha virt. eigenvalues --    0.06428   0.07435   0.08116   0.08537   0.10776
 Alpha virt. eigenvalues --    0.12419   0.13343   0.14198   0.14612   0.15025

 Mulliken charges:
               1
     1  C   -0.555146
     2  C    0.393089
     3  C   -0.050643
     4  O   -1.098369
     5  C    0.914921
     6  O   -1.333979
     7  N    0.815766
     8  H    0.174585
     9  H    0.199773
    10  H    0.123293
    11  H    0.654790
    12  H   -0.144439
    13  H   -0.115690
    14  H   -0.101263
    15  H    0.011237
    16  H    0.112074
 Sum of Mulliken charges =  -0.00000

 Dipole moment (field-independent basis, Debye):
    X=             -0.9941    Y=             -0.6161    Z=             -1.6535  Tot=              2.0253

 Test job not archived.
 1\1\GINC-SE219\SP\RHF\Aug-CC-pVDZ\C4H9N1O2\OHZDE\09-Apr-2025\0\\#t hf
 aug-cc-pvdz iop(5/13=1,5/36=2,99/5=2) pseudo=read geom=check guess=(re
 ad,tcheck) scf=(maxcycle=1)\\title\\0,1\C,0,-1.90328173,-0.58826262,-0
 .53658485\C,0,-1.84248795,0.59267622,0.37900161\C,0,-1.15112079,0.6407
 0856,1.51215207\O,0,1.42670921,-1.27293279,0.20328567\C,0,1.91988208,-
 0.35481565,-0.40919915\O,0,1.37217595,0.86889563,-0.50465087\N,0,3.082
 97275,-0.42086418,-1.09828938\H,0,-2.92002044,-0.98785012,-0.57610616\
 H,0,-1.63663849,-0.30251382,-1.55757899\H,0,-1.22431814,-1.37684433,-0

 Normal termination of Gaussian 16 at Wed Apr  9 19:08:02 2025.
