 Gaussian 16, Revision C.01,

 ----------------------------------------------------------------------
 #t hf aug-cc-pvdz symm=none int=(grid=ultrafine) guess=(read,tcheck) s
 table=(opt,rrhf)
 ----------------------------------------------------------------------
 -----
 title
 -----
 Symbolic Z-matrix:
 Charge =  0 Multiplicity = 1

 SCF Done:  E(RHF) =  -374.500868187     A.U. after   14 cycles
 Normal termination of Gaussian 16 at Wed Apr  9 18:20:24 2025.
 Gaussian 16:  ES64L-G16RevC.01  3-Jul-2019

 ----------------------------------------------------------------------
 #t hf aug-cc-pvdz iop(5/13=1,5/36=2,99/5=2) pseudo=read geom=check gue
 ss=(read,tcheck) scf=(maxcycle=1)
 ----------------------------------------------------------------------
 -----
 title
 -----
 Structure from the checkpoint file:  "Grambow2020_wb97xd3_007335_forward_mol1.chk"
 Charge =  0 Multiplicity = 1

                         Standard orientation:
 ---------------------------------------------------------------------
 Center     Atomic      Atomic             Coordinates (Angstroms)
 Number     Number       Type             X           Y           Z
 ---------------------------------------------------------------------
      1          7           0        2.305694   -0.602755   -0.084251
      2          6           0        1.042067   -0.062317   -0.006470
      3          6           0        0.614600    1.221669    0.008029
      4          8           0       -0.800449    1.227380    0.007592
      5          6           0       -1.119031   -0.042123    0.005166
      6          8           0       -2.215439   -0.672140   -0.003169
      7          7           0       -0.087508   -0.863823    0.000062
      8          1           0        2.393541   -1.498975    0.365994
      9          1           0        3.051349    0.025550    0.162461
     10          1           0        1.102137    2.177803    0.003792
     11          1           0       -1.173036   -1.583627   -0.018659
 ---------------------------------------------------------------------

 SCF Done:  E(RHF) =  -374.874585946     A.U. after    2 cycles

 The electronic state is 1-A.
 Alpha  occ. eigenvalues --  -20.63228 -20.55423 -15.53860 -15.52275 -11.41670
 Alpha  occ. eigenvalues --  -11.34324 -11.28797  -1.59443  -1.49330  -1.29443
 Alpha  occ. eigenvalues --   -1.22145  -1.02476  -0.90202  -0.85325  -0.78563
 Alpha  occ. eigenvalues --   -0.72943  -0.71135  -0.69278  -0.64360  -0.62930
 Alpha  occ. eigenvalues --   -0.57400  -0.57089  -0.54215  -0.49011  -0.46607
 Alpha  occ. eigenvalues --   -0.33109
 Alpha virt. eigenvalues --    0.02332   0.04198   0.04907   0.06327   0.08934
 Alpha virt. eigenvalues --    0.09403   0.10583   0.11854   0.12112   0.12704
 Alpha virt. eigenvalues --    0.13354   0.14344   0.15204   0.15440   0.17814

 Mulliken charges:
               1
     1  N    0.709187
     2  C   -2.106891
     3  C    1.643298
     4  O   -1.385153
     5  C    1.065346
     6  O   -1.300565
     7  N    0.824775
     8  H    0.075363
     9  H    0.184849
    10  H   -0.097769
    11  H    0.387561
 Sum of Mulliken charges =   0.00000

 Dipole moment (field-independent basis, Debye):
    X=              3.9361    Y=              0.0921    Z=              1.0420  Tot=              4.0727

 Test job not archived.
 1\1\GINC-SE035\SP\RHF\Aug-CC-pVDZ\C3H4N2O2\OHZDE\09-Apr-2025\0\\#t hf
 aug-cc-pvdz iop(5/13=1,5/36=2,99/5=2) pseudo=read geom=check guess=(re
 ad,tcheck) scf=(maxcycle=1)\\title\\0,1\N,0,-1.8833415,-0.35222848,0.0
 8701352\C,0,-0.56946232,0.05698772,0.05323931\C,0,-0.00770905,1.282017
 78,0.17689422\O,0,1.39989957,1.13811032,0.15890234\C,0,1.58147592,-0.1
 5006951,0.01482188\O,0,2.60456629,-0.88929256,-0.06223674\N,0,0.468320
 16,-0.85349069,-0.05824734\H,0,-2.06679824,-1.17760673,-0.45955921\H,0
 ,-2.55820798,0.37513689,-0.07769961\H,0,-0.39064306,2.27769371,0.29477

 Normal termination of Gaussian 16 at Wed Apr  9 18:20:28 2025.
