 Gaussian 16, Revision C.01,

 ----------------------------------------------------------------------
 #t hf aug-cc-pvdz symm=none int=(grid=ultrafine) guess=(read,tcheck) s
 table=(opt,rrhf)
 ----------------------------------------------------------------------
 -----
 title
 -----
 Symbolic Z-matrix:
 Charge =  0 Multiplicity = 1

 SCF Done:  E(RHF) =  -358.412831552     A.U. after   15 cycles
 Normal termination of Gaussian 16 at Wed Apr  9 17:44:37 2025.
 Gaussian 16:  ES64L-G16RevC.01  3-Jul-2019

 ----------------------------------------------------------------------
 #t hf aug-cc-pvdz iop(5/13=1,5/36=2,99/5=2) pseudo=read geom=check gue
 ss=(read,tcheck) scf=(maxcycle=1)
 ----------------------------------------------------------------------
 -----
 title
 -----
 Structure from the checkpoint file:  "Grambow2020_wb97xd3_006803_reverse_mol1.chk"
 Charge =  0 Multiplicity = 1

                         Standard orientation:
 ---------------------------------------------------------------------
 Center     Atomic      Atomic             Coordinates (Angstroms)
 Number     Number       Type             X           Y           Z
 ---------------------------------------------------------------------
      1          8           0        1.855217   -0.907032   -0.493820
      2          6           0        1.435249   -0.300643    0.430559
      3          6           0       -0.812187   -1.020795    0.314644
      4          6           0       -2.179665   -0.374896    0.127122
      5          7           0       -0.978563    0.234344   -0.382352
      6          6           0       -0.235129    1.257745   -0.215769
      7          8           0        0.979928    1.100429    0.211476
      8          1           0        1.637736   -0.422058    1.492762
      9          1           0       -0.650327   -1.826208   -0.406850
     10          1           0       -2.652795    0.142906    0.956424
     11          1           0       -2.857881   -0.727292   -0.643493
     12          1           0       -0.557557    2.276605   -0.402971
 ---------------------------------------------------------------------

 SCF Done:  E(RHF) =  -358.770935199     A.U. after    2 cycles

 The electronic state is 1-A.
 Alpha  occ. eigenvalues --  -20.63122 -20.55362 -15.56296 -11.41802 -11.41506
 Alpha  occ. eigenvalues --  -11.29481 -11.21803  -1.58328  -1.49450  -1.33009
 Alpha  occ. eigenvalues --   -1.08601  -0.94046  -0.86441  -0.80114  -0.75811
 Alpha  occ. eigenvalues --   -0.72925  -0.69387  -0.68676  -0.62892  -0.60678
 Alpha  occ. eigenvalues --   -0.56462  -0.53572  -0.50182  -0.46096  -0.44030
 Alpha  occ. eigenvalues --   -0.31200
 Alpha virt. eigenvalues --    0.02666   0.04212   0.04569   0.04971   0.06652
 Alpha virt. eigenvalues --    0.07318   0.08343   0.09571   0.09842   0.10508
 Alpha virt. eigenvalues --    0.12626   0.13511   0.13970   0.14435   0.14627

 Mulliken charges:
               1
     1  O   -1.024462
     2  C    1.528058
     3  C   -0.517549
     4  C    0.032500
     5  N    0.742712
     6  C    0.315958
     7  O   -1.259634
     8  H    0.183099
     9  H    0.037208
    10  H   -0.038426
    11  H   -0.013788
    12  H    0.014324
 Sum of Mulliken charges =  -0.00000

 Dipole moment (field-independent basis, Debye):
    X=             -2.1258    Y=              3.6414    Z=              0.6822  Tot=              4.2713

 Test job not archived.
 1\1\GINC-SE173\SP\RHF\Aug-CC-pVDZ\C4H5N1O2\OHZDE\09-Apr-2025\0\\#t hf
 aug-cc-pvdz iop(5/13=1,5/36=2,99/5=2) pseudo=read geom=check guess=(re
 ad,tcheck) scf=(maxcycle=1)\\title\\0,1\O,0,2.14800951,-1.20416966,-0.
 02050941\C,0,1.3120678,-1.03602622,-0.83995277\C,0,0.42811563,0.992067
 38,-0.01020222\C,0,-0.91782048,1.49402656,0.49856178\N,0,-0.54948245,0
 .10422682,0.57707869\C,0,-0.86694365,-1.03676866,0.10258774\O,0,-0.016
 83515,-1.67786412,-0.63900547\H,0,1.4114814,-0.80183628,-1.89791736\H,
 0,1.22573374,1.1928527,0.71016754\H,0,-1.70978487,1.73022769,-0.206218

 Normal termination of Gaussian 16 at Wed Apr  9 17:44:42 2025.
