 Gaussian 16, Revision C.01,

 ----------------------------------------------------------------------
 #t hf aug-cc-pvdz symm=none int=(grid=ultrafine) guess=(read,tcheck) s
 table=(opt,rrhf)
 ----------------------------------------------------------------------
 -----
 title
 -----
 Symbolic Z-matrix:
 Charge =  0 Multiplicity = 1

 SCF Done:  E(RHF) =  -320.168999845     A.U. after   17 cycles
 Normal termination of Gaussian 16 at Wed Apr  9 19:19:44 2025.
 Gaussian 16:  ES64L-G16RevC.01  3-Jul-2019

 ----------------------------------------------------------------------
 #t hf aug-cc-pvdz iop(5/13=1,5/36=2,99/5=2) pseudo=read geom=check gue
 ss=(read,tcheck) scf=(maxcycle=1)
 ----------------------------------------------------------------------
 -----
 title
 -----
 Structure from the checkpoint file:  "Grambow2020_wb97xd3_009365_reverse_mol2.chk"
 Charge =  0 Multiplicity = 1

                         Standard orientation:
 ---------------------------------------------------------------------
 Center     Atomic      Atomic             Coordinates (Angstroms)
 Number     Number       Type             X           Y           Z
 ---------------------------------------------------------------------
      1          6           0        1.491583    0.692519    0.315577
      2          6           0        0.385107    1.324824   -0.035515
      3          6           0       -0.834599    1.273111   -0.377738
      4          6           0       -1.584427    0.233274    0.015463
      5          8           0       -0.994390   -0.915308    0.383208
      6          7           0        0.224125   -1.384786   -0.277150
      7          6           0        1.287113   -0.694316   -0.132351
      8          1           0        2.446432    1.080090    0.631231
      9          1           0       -2.664586    0.173495    0.108944
     10          1           0        2.135741   -1.214085   -0.578411
 ---------------------------------------------------------------------

 SCF Done:  E(RHF) =  -320.485912129     A.U. after    2 cycles

 The electronic state is 1-A.
 Alpha  occ. eigenvalues --  -20.61889 -15.57972 -11.37645 -11.32764 -11.32016
 Alpha  occ. eigenvalues --  -11.27497 -11.24181  -1.53588  -1.23190  -1.14928
 Alpha  occ. eigenvalues --   -1.02759  -0.94047  -0.81079  -0.77634  -0.73439
 Alpha  occ. eigenvalues --   -0.68636  -0.66826  -0.64655  -0.54644  -0.52958
 Alpha  occ. eigenvalues --   -0.50502  -0.46953  -0.40589  -0.33515
 Alpha virt. eigenvalues --    0.02907   0.03237   0.03969   0.04612   0.05246
 Alpha virt. eigenvalues --    0.07475   0.08799   0.10475   0.11075   0.11615
 Alpha virt. eigenvalues --    0.12097   0.12868   0.13476   0.14463   0.15195

 Mulliken charges:
               1
     1  C    0.492960
     2  C    0.334943
     3  C   -0.413134
     4  C    0.955345
     5  O   -1.424873
     6  N    1.153017
     7  C   -0.871206
     8  H   -0.122448
     9  H   -0.048886
    10  H   -0.055717
 Sum of Mulliken charges =   0.00000

 Dipole moment (field-independent basis, Debye):
    X=              1.3573    Y=              1.2401    Z=              0.7474  Tot=              1.9846

 Test job not archived.
 1\1\GINC-SE098\SP\RHF\Aug-CC-pVDZ\C5H3N1O1\OHZDE\09-Apr-2025\0\\#t hf
 aug-cc-pvdz iop(5/13=1,5/36=2,99/5=2) pseudo=read geom=check guess=(re
 ad,tcheck) scf=(maxcycle=1)\\title\\0,1\C,0,1.36301986,-0.49811867,0.2
 4066048\C,0,1.02089553,0.75063141,-0.02567942\C,0,0.11475085,1.5960706
 6,-0.29327897\C,0,-1.14049885,1.36748385,0.11928221\O,0,-1.52793899,0.
 11793289,0.42116525\N,0,-1.01760495,-1.03303979,-0.32454362\C,0,0.2251
 4835,-1.30500492,-0.22831935\H,0,2.31940206,-0.91796515,0.50645913\H,0
 ,-1.94261994,2.08203646,0.27762194\H,0,0.44440207,-2.24349873,-0.73866

 Normal termination of Gaussian 16 at Wed Apr  9 19:19:47 2025.
