 Gaussian 16, Revision C.01,

 ----------------------------------------------------------------------
 #t hf aug-cc-pvdz symm=none int=(grid=ultrafine) guess=(read,tcheck) s
 table=(opt,rrhf)
 ----------------------------------------------------------------------
 -----
 title
 -----
 Symbolic Z-matrix:
 Charge =  0 Multiplicity = 1

 SCF Done:  E(RHF) =  -323.743873465     A.U. after   16 cycles
 Normal termination of Gaussian 16 at Wed Apr  9 03:33:34 2025.
 Gaussian 16:  ES64L-G16RevC.01  3-Jul-2019

 ----------------------------------------------------------------------
 #t hf aug-cc-pvdz iop(5/13=1,5/36=2,99/5=2) pseudo=read geom=check gue
 ss=(read,tcheck) scf=(maxcycle=1)
 ----------------------------------------------------------------------
 -----
 title
 -----
 Structure from the checkpoint file:  "Grambow2020_wb97xd3_006975_forward_mol1.chk"
 Charge =  0 Multiplicity = 1

                         Standard orientation:
 ---------------------------------------------------------------------
 Center     Atomic      Atomic             Coordinates (Angstroms)
 Number     Number       Type             X           Y           Z
 ---------------------------------------------------------------------
      1          6           0        0.801379    1.443375    0.124464
      2          6           0       -0.639989    1.210839   -0.262556
      3          6           0       -1.060979   -0.125268    0.345689
      4          8           0       -2.312197   -0.590102   -0.109287
      5          6           0       -0.006112   -1.131302   -0.067124
      6          6           0        1.352496   -0.498821   -0.003065
      7          7           0        2.549640   -0.688343   -0.043997
      8          1           0        2.023932    0.558280   -0.071519
      9          1           0        1.315568    2.159957   -0.522912
     10          1           0        0.921922    1.739157    1.167969
     11          1           0       -0.746620    1.138233   -1.348902
     12          1           0       -1.304249    2.011725    0.079240
     13          1           0       -1.065383   -0.033308    1.441142
     14          1           0       -2.988684    0.037541    0.152444
     15          1           0       -0.197840   -1.441659   -1.097903
     16          1           0        0.010681   -2.023652    0.558279
 ---------------------------------------------------------------------

 SCF Done:  E(RHF) =  -324.085005852     A.U. after    2 cycles

 The electronic state is 1-A.
 Alpha  occ. eigenvalues --  -20.56561 -15.49411 -11.33729 -11.30783 -11.26639
 Alpha  occ. eigenvalues --  -11.24919 -11.24174  -1.47232  -1.26451  -1.11414
 Alpha  occ. eigenvalues --   -1.01399  -0.90836  -0.82846  -0.74922  -0.72202
 Alpha  occ. eigenvalues --   -0.65748  -0.64650  -0.63029  -0.61409  -0.58908
 Alpha  occ. eigenvalues --   -0.57443  -0.54339  -0.52576  -0.50310  -0.47591
 Alpha  occ. eigenvalues --   -0.45083  -0.33422
 Alpha virt. eigenvalues --    0.02732   0.03578   0.03833   0.04347   0.05987
 Alpha virt. eigenvalues --    0.06415   0.06480   0.07556   0.07926   0.11505
 Alpha virt. eigenvalues --    0.12366   0.13169   0.13370   0.13971   0.14583

 Mulliken charges:
               1
     1  C   -0.511253
     2  C   -0.352535
     3  C    1.257967
     4  O   -1.426872
     5  C   -0.706198
     6  C   -1.117285
     7  N    0.771681
     8  H    0.766852
     9  H    0.016055
    10  H    0.100946
    11  H    0.169639
    12  H    0.104488
    13  H    0.137364
    14  H    0.285118
    15  H    0.284265
    16  H    0.219770
 Sum of Mulliken charges =  -0.00000

 Dipole moment (field-independent basis, Debye):
    X=             -3.7495    Y=              2.5911    Z=              0.7255  Tot=              4.6151

 Test job not archived.
 1\1\GINC-SE051\SP\RHF\Aug-CC-pVDZ\C5H9N1O1\OHZDE\09-Apr-2025\0\\#t hf
 aug-cc-pvdz iop(5/13=1,5/36=2,99/5=2) pseudo=read geom=check guess=(re
 ad,tcheck) scf=(maxcycle=1)\\title\\0,1\C,0,1.21013058,0.79099809,0.33
 387436\C,0,0.74780259,-0.62635249,0.57630048\C,0,-0.33964808,-0.928838
 1,-0.45245174\O,0,-1.02766376,-2.13700364,-0.21667495\C,0,-1.33790421,
 0.20720158,-0.36211977\C,0,-0.61354333,1.50661326,-0.17033669\N,0,-0.7
 0952653,2.71547217,-0.15636341\H,0,0.41095004,2.08444352,0.26498135\H,
 0,1.70977172,1.23946663,1.19770843\H,0,1.84426928,0.88922103,-0.548815

 Normal termination of Gaussian 16 at Wed Apr  9 03:33:40 2025.
