 Gaussian 16, Revision C.01,

 ----------------------------------------------------------------------
 #t hf aug-cc-pvdz symm=none int=(grid=ultrafine) guess=(read,tcheck) s
 table=(opt,rrhf)
 ----------------------------------------------------------------------
 -----
 title
 -----
 Symbolic Z-matrix:
 Charge =  0 Multiplicity = 1

 SCF Done:  E(RHF) =  -345.936389866     A.U. after   15 cycles

 1\1\GINC-SE131\Stability\RHF\Aug-CC-pVDZ\C5H12O2\OHZDE\09-Apr-2025\0\\
 #t hf aug-cc-pvdz symm=none int=(grid=ultrafine) guess=(read,tcheck) s
 table=(opt,rrhf)\\title\\0,1\C,0,2.34385432,0.52187989,-0.09418127\O,0
 ,1.41466626,0.65895083,-1.14392729\C,0,0.00687992,-0.79967361,-1.18439
 205\C,0,-1.14737261,-0.50713453,-0.45425973\C,0,-1.45147133,-1.3274739
 9,0.78149865\C,0,-0.97718813,1.25620622,0.2551909\O,0,-0.45776703,2.08
 290076,-0.55868132\H,0,2.82241784,-0.45843857,-0.164441\H,0,3.1188881,
 1.28785348,-0.18119745\H,0,1.8740085,0.61151138,0.89083691\H,0,0.03141

 Normal termination of Gaussian 16 at Wed Apr  9 19:19:27 2025.
 Gaussian 16:  ES64L-G16RevC.01  3-Jul-2019

 ----------------------------------------------------------------------
 #t hf aug-cc-pvdz iop(5/13=1,5/36=2,99/5=2) pseudo=read geom=check gue
 ss=(read,tcheck) scf=(maxcycle=1)
 ----------------------------------------------------------------------
 -----
 title
 -----
 Structure from the checkpoint file:  "Grambow2020_wb97xd3_009276_forward_mol1.chk"
 Charge =  0 Multiplicity = 1

                         Standard orientation:
 ---------------------------------------------------------------------
 Center     Atomic      Atomic             Coordinates (Angstroms)
 Number     Number       Type             X           Y           Z
 ---------------------------------------------------------------------
      1          6           0       -2.110037   -0.732515   -0.755289
      2          8           0       -1.601822   -0.252350    0.467537
      3          6           0        0.229471   -0.986127    0.935538
      4          6           0        1.296084   -0.212748    0.471648
      5          6           0        2.198525   -0.789212   -0.598781
      6          6           0        0.584929    1.338443   -0.382588
      7          8           0       -0.408412    1.844012    0.228382
      8          1           0       -2.140499   -1.824876   -0.726911
      9          1           0       -3.128975   -0.365700   -0.904212
     10          1           0       -1.499321   -0.422105   -1.609525
     11          1           0       -0.109422   -0.895819    1.957011
     12          1           0       -0.022334   -1.921568    0.447908
     13          1           0        1.801930    0.331070    1.264949
     14          1           0        2.704749    0.002761   -1.157887
     15          1           0        1.624662   -1.381362   -1.315606
     16          1           0        2.971025   -1.435267   -0.176419
     17          1           0        1.532480    1.897435   -0.376332
     18          1           0        0.420637    0.835936   -1.351889
     19          1           0       -1.266891    0.739154    0.358384
 ---------------------------------------------------------------------

 SCF Done:  E(RHF) =  -346.303321991     A.U. after    2 cycles

 The electronic state is 1-A.
 Alpha  occ. eigenvalues --  -20.54040 -20.47347 -11.33175 -11.31953 -11.28371
 Alpha  occ. eigenvalues --  -11.24201 -11.23211  -1.44884  -1.39902  -1.09588
 Alpha  occ. eigenvalues --   -0.96119  -0.92674  -0.86885  -0.79860  -0.71502
 Alpha  occ. eigenvalues --   -0.68580  -0.63194  -0.62873  -0.61235  -0.60416
 Alpha  occ. eigenvalues --   -0.58785  -0.57144  -0.54814  -0.52905  -0.50495
 Alpha  occ. eigenvalues --   -0.49689  -0.44365  -0.37665  -0.32677
 Alpha virt. eigenvalues --    0.02811   0.03387   0.03578   0.04398   0.05683
 Alpha virt. eigenvalues --    0.06052   0.06343   0.06913   0.07219   0.07908
 Alpha virt. eigenvalues --    0.09103   0.09868   0.10500   0.12734   0.13281

 Mulliken charges:
               1
     1  C    0.283606
     2  O   -1.360986
     3  C    0.340708
     4  C   -0.408259
     5  C   -0.251865
     6  C    0.879650
     7  O   -1.466328
     8  H    0.098151
     9  H    0.004949
    10  H    0.129159
    11  H   -0.053834
    12  H   -0.016309
    13  H    0.046385
    14  H    0.157193
    15  H    0.153464
    16  H    0.125157
    17  H    0.019021
    18  H    0.285840
    19  H    1.034298
 Sum of Mulliken charges =  -0.00000

 Dipole moment (field-independent basis, Debye):
    X=              1.6456    Y=             -3.8021    Z=             -0.8568  Tot=              4.2306

 Test job not archived.
 1\1\GINC-SE131\SP\RHF\Aug-CC-pVDZ\C5H12O2\OHZDE\09-Apr-2025\0\\#t hf a
 ug-cc-pvdz iop(5/13=1,5/36=2,99/5=2) pseudo=read geom=check guess=(rea
 d,tcheck) scf=(maxcycle=1)\\title\\0,1\C,0,2.34385432,0.52187989,-0.09
 418127\O,0,1.41466626,0.65895083,-1.14392729\C,0,0.00687992,-0.7996736
 1,-1.18439205\C,0,-1.14737261,-0.50713453,-0.45425973\C,0,-1.45147133,
 -1.32747399,0.78149865\C,0,-0.97718813,1.25620622,0.2551909\O,0,-0.457
 76703,2.08290076,-0.55868132\H,0,2.82241784,-0.45843857,-0.164441\H,0,
 3.1188881,1.28785348,-0.18119745\H,0,1.8740085,0.61151138,0.89083691\H

 Normal termination of Gaussian 16 at Wed Apr  9 19:19:35 2025.
