 Gaussian 16, Revision C.01,

 ----------------------------------------------------------------------
 #t hf aug-cc-pvdz symm=none int=(grid=ultrafine) guess=(read,tcheck) s
 table=(opt,rrhf)
 ----------------------------------------------------------------------
 -----
 title
 -----
 Symbolic Z-matrix:
 Charge =  0 Multiplicity = 1

 SCF Done:  E(RHF) =  -191.782315949     A.U. after   15 cycles
 Normal termination of Gaussian 16 at Wed Apr  9 03:21:22 2025.
 Gaussian 16:  ES64L-G16RevC.01  3-Jul-2019

 ----------------------------------------------------------------------
 #t hf aug-cc-pvdz iop(5/13=1,5/36=2,99/5=2) pseudo=read geom=check gue
 ss=(read,tcheck) scf=(maxcycle=1)
 ----------------------------------------------------------------------
 -----
 title
 -----
 Structure from the checkpoint file:  "Grambow2020_wb97xd3_006093_forward_mol1.chk"
 Charge =  0 Multiplicity = 1

                         Standard orientation:
 ---------------------------------------------------------------------
 Center     Atomic      Atomic             Coordinates (Angstroms)
 Number     Number       Type             X           Y           Z
 ---------------------------------------------------------------------
      1          6           0        1.626446   -0.203336   -0.268033
      2          6           0        0.517502    0.138520    0.498421
      3          6           0       -0.894925    0.536170   -0.140286
      4          8           0       -1.412082   -0.653939   -0.088143
      5          1           0        2.369684   -0.925788    0.054312
      6          1           0        1.255506    1.061213    0.511291
      7          1           0        1.771568    0.270774   -1.233212
      8          1           0        0.423580   -0.304579    1.482523
      9          1           0       -1.347728    1.329580    0.487938
     10          1           0       -0.670098    0.972186   -1.138322
 ---------------------------------------------------------------------

 SCF Done:  E(RHF) =  -191.984124226     A.U. after    2 cycles

 The electronic state is 1-A.
 Alpha  occ. eigenvalues --  -20.41349 -11.37449 -11.30211 -11.27788  -1.33591
 Alpha  occ. eigenvalues --   -1.14971  -0.90203  -0.82010  -0.73270  -0.65893
 Alpha  occ. eigenvalues --   -0.62389  -0.55795  -0.54447  -0.50482  -0.32394
 Alpha  occ. eigenvalues --   -0.30966
 Alpha virt. eigenvalues --    0.01193   0.02013   0.03207   0.03531   0.05819
 Alpha virt. eigenvalues --    0.06385   0.07170   0.11557   0.11956   0.12745
 Alpha virt. eigenvalues --    0.13338   0.14120   0.15107   0.15864   0.17151

 Mulliken charges:
               1
     1  C    0.016552
     2  C   -0.361665
     3  C    0.750648
     4  O   -1.238549
     5  H    0.036918
     6  H    0.585922
     7  H    0.012329
     8  H   -0.014072
     9  H    0.128304
    10  H    0.083613
 Sum of Mulliken charges =  -0.00000

 Dipole moment (field-independent basis, Debye):
    X=              7.5450    Y=              2.4249    Z=              0.3285  Tot=              7.9319

 Test job not archived.
 1\1\GINC-SE036\SP\RHF\Aug-CC-pVDZ\C3H6O1\OHZDE\09-Apr-2025\0\\#t hf au
 g-cc-pvdz iop(5/13=1,5/36=2,99/5=2) pseudo=read geom=check guess=(read
 ,tcheck) scf=(maxcycle=1)\\title\\0,1\C,0,-1.30819502,0.16001183,0.345
 02656\C,0,-0.20103121,-0.32428565,-0.34324534\C,0,1.30446186,0.033458,
 0.06483577\O,0,1.49879076,-1.01080171,0.81202216\H,0,-2.22950379,-0.40
 301496,0.4565442\H,0,-0.68048002,0.53238484,-1.00083318\H,0,-1.2654835
 ,1.14796683,0.79171634\H,0,-0.28653525,-1.28865372,-0.8293514\H,0,1.90
 166933,0.12829208,-0.86443596\H,0,1.26272683,1.03231647,0.55194185\\Ve

 Normal termination of Gaussian 16 at Wed Apr  9 03:21:25 2025.
