 Gaussian 16, Revision C.01,

 ----------------------------------------------------------------------
 #t hf aug-cc-pvdz symm=none int=(grid=ultrafine) guess=(read,tcheck) s
 table=(opt,rrhf)
 ----------------------------------------------------------------------
 -----
 title
 -----
 Symbolic Z-matrix:
 Charge =  0 Multiplicity = 1

 SCF Done:  E(RHF) =  -301.655237499     A.U. after   15 cycles
 Normal termination of Gaussian 16 at Wed Apr  9 18:38:24 2025.
 Gaussian 16:  ES64L-G16RevC.01  3-Jul-2019

 ----------------------------------------------------------------------
 #t hf aug-cc-pvdz iop(5/13=1,5/36=2,99/5=2) pseudo=read geom=check gue
 ss=(read,tcheck) scf=(maxcycle=1)
 ----------------------------------------------------------------------
 -----
 title
 -----
 Structure from the checkpoint file:  "Grambow2020_wb97xd3_007932_reverse_mol2.chk"
 Charge =  0 Multiplicity = 1

                         Standard orientation:
 ---------------------------------------------------------------------
 Center     Atomic      Atomic             Coordinates (Angstroms)
 Number     Number       Type             X           Y           Z
 ---------------------------------------------------------------------
      1          6           0       -1.671435    0.633182    0.076774
      2          6           0       -1.520788   -0.878813    0.182014
      3          6           0       -0.243297   -0.718466   -0.189743
      4          7           0        1.065476   -1.211425   -0.071457
      5          6           0        1.756666   -0.154116    0.112350
      6          6           0        0.954985    1.145152    0.132959
      7          7           0       -0.272610    0.657904   -0.470587
      8          1           0       -1.739480    1.135857    1.043101
      9          1           0       -2.404363    1.047991   -0.617060
     10          1           0        0.845027    1.472918    1.178505
     11          1           0       -2.163452   -1.695742    0.457739
     12          1           0        2.829019   -0.200434    0.276462
     13          1           0        1.426391    1.952417   -0.430567
 ---------------------------------------------------------------------

 SCF Done:  E(RHF) =  -301.969102641     A.U. after    2 cycles

 The electronic state is 1-A.
 Alpha  occ. eigenvalues --  -15.52039 -15.50078 -11.31049 -11.29657 -11.28847
 Alpha  occ. eigenvalues --  -11.27808 -11.22351  -1.34013  -1.22275  -1.07158
 Alpha  occ. eigenvalues --   -0.94131  -0.91227  -0.83272  -0.73648  -0.71321
 Alpha  occ. eigenvalues --   -0.69607  -0.65629  -0.61275  -0.57677  -0.55568
 Alpha  occ. eigenvalues --   -0.53114  -0.51009  -0.47762  -0.44433  -0.32497
 Alpha virt. eigenvalues --    0.03313   0.04129   0.04573   0.04722   0.05105
 Alpha virt. eigenvalues --    0.06054   0.07758   0.08104   0.09947   0.11402
 Alpha virt. eigenvalues --    0.12565   0.13065   0.13419   0.14150   0.15181

 Mulliken charges:
               1
     1  C   -0.297720
     2  C    0.867909
     3  C   -1.758727
     4  N    1.160844
     5  C   -0.503844
     6  C   -0.063572
     7  N    0.533050
     8  H    0.042770
     9  H   -0.017943
    10  H    0.151162
    11  H   -0.121507
    12  H   -0.041221
    13  H    0.048799
 Sum of Mulliken charges =  -0.00000

 Dipole moment (field-independent basis, Debye):
    X=              0.6526    Y=              2.6955    Z=              1.6799  Tot=              3.2425

 Test job not archived.
 1\1\GINC-SE362\SP\RHF\Aug-CC-pVDZ\C5H6N2\OHZDE\09-Apr-2025\0\\#t hf au
 g-cc-pvdz iop(5/13=1,5/36=2,99/5=2) pseudo=read geom=check guess=(read
 ,tcheck) scf=(maxcycle=1)\\title\\0,1\C,0,-1.54327432,-0.43685556,0.23
 400051\C,0,-1.32570084,0.98624782,0.73133174\C,0,-0.00957079,0.7376673
 6,0.68766456\N,0,1.26420855,1.2878393,0.47627749\C,0,1.82508544,0.4323
 1627,-0.28721942\C,0,0.95991153,-0.77162768,-0.65219401\N,0,-0.0598946
 6,-0.63049973,0.37188904\H,0,-1.86626845,-0.49351175,-0.80694368\H,0,-
 2.11922395,-1.13244648,0.84644633\H,0,0.58888497,-0.63813592,-1.680399

 Normal termination of Gaussian 16 at Wed Apr  9 18:38:28 2025.
