 Gaussian 16, Revision C.01,

 ----------------------------------------------------------------------
 #t hf aug-cc-pvdz symm=none int=(grid=ultrafine) guess=(read,tcheck) s
 table=(opt,rrhf)
 ----------------------------------------------------------------------
 -----
 title
 -----
 Symbolic Z-matrix:
 Charge =  0 Multiplicity = 1

 SCF Done:  E(RHF) =  -358.548895142     A.U. after   16 cycles
 Normal termination of Gaussian 16 at Wed Apr  9 17:37:33 2025.
 Gaussian 16:  ES64L-G16RevC.01  3-Jul-2019

 ----------------------------------------------------------------------
 #t hf aug-cc-pvdz iop(5/13=1,5/36=2,99/5=2) pseudo=read geom=check gue
 ss=(read,tcheck) scf=(maxcycle=1)
 ----------------------------------------------------------------------
 -----
 title
 -----
 Structure from the checkpoint file:  "Grambow2020_wb97xd3_006745_forward_mol2.chk"
 Charge =  0 Multiplicity = 1

                         Standard orientation:
 ---------------------------------------------------------------------
 Center     Atomic      Atomic             Coordinates (Angstroms)
 Number     Number       Type             X           Y           Z
 ---------------------------------------------------------------------
      1          8           0        1.779761   -1.271808    0.000591
      2          6           0        1.695240   -0.079136    0.007346
      3          6           0        0.374513    0.694019   -0.085570
      4          8           0        0.378919    1.883456    0.121534
      5          7           0       -0.711030   -0.036506   -0.469361
      6          6           0       -2.035418    0.107558    0.065339
      7          6           0       -1.280439   -1.173651    0.205642
      8          1           0        2.567720    0.590951    0.120469
      9          1           0       -2.831704    0.181344   -0.664743
     10          1           0       -2.140445    0.740525    0.939505
     11          1           0       -0.886195   -1.425192    1.183108
     12          1           0       -1.524977   -2.018007   -0.426357
 ---------------------------------------------------------------------

 SCF Done:  E(RHF) =  -358.909126499     A.U. after    2 cycles

 The electronic state is 1-A.
 Alpha  occ. eigenvalues --  -20.58432 -20.55417 -15.54003 -11.38179 -11.36706
 Alpha  occ. eigenvalues --  -11.29898 -11.29422  -1.51836  -1.49680  -1.32375
 Alpha  occ. eigenvalues --   -1.05026  -0.92918  -0.88334  -0.79465  -0.73541
 Alpha  occ. eigenvalues --   -0.72116  -0.70265  -0.66830  -0.59716  -0.56875
 Alpha  occ. eigenvalues --   -0.56212  -0.54806  -0.52874  -0.50355  -0.43841
 Alpha  occ. eigenvalues --   -0.42482
 Alpha virt. eigenvalues --    0.03423   0.04432   0.04701   0.04864   0.05776
 Alpha virt. eigenvalues --    0.06358   0.08224   0.09253   0.10166   0.10708
 Alpha virt. eigenvalues --    0.13069   0.13874   0.14499   0.14652   0.15582

 Mulliken charges:
               1
     1  O   -1.111382
     2  C    0.983459
     3  C    0.602305
     4  O   -1.302519
     5  N    0.657374
     6  C    0.151395
     7  C    0.085411
     8  H    0.197546
     9  H   -0.058565
    10  H   -0.082328
    11  H   -0.068087
    12  H   -0.054611
 Sum of Mulliken charges =  -0.00000

 Dipole moment (field-independent basis, Debye):
    X=             -1.7255    Y=             -1.1193    Z=              0.8799  Tot=              2.2370

 Test job not archived.
 1\1\GINC-SE174\SP\RHF\Aug-CC-pVDZ\C4H5N1O2\OHZDE\09-Apr-2025\0\\#t hf
 aug-cc-pvdz iop(5/13=1,5/36=2,99/5=2) pseudo=read geom=check guess=(re
 ad,tcheck) scf=(maxcycle=1)\\title\\0,1\O,0,1.71354152,1.57913571,0.71
 986953\C,0,1.99394432,0.46937741,0.37423005\C,0,0.96539062,-0.61942398
 ,0.04664743\O,0,1.34298812,-1.64091588,-0.47454935\N,0,-0.3135743,-0.3
 6119932,0.44279678\C,0,-1.49300724,-0.68395853,-0.30915073\C,0,-1.1526
 5924,0.73159443,0.02483378\H,0,3.03366569,0.12616527,0.21859953\H,0,-2
 .27748098,-1.18888421,0.24056406\H,0,-1.34224213,-1.02199654,-1.328388

 Normal termination of Gaussian 16 at Wed Apr  9 17:37:37 2025.
