 Gaussian 16, Revision C.01,

 ----------------------------------------------------------------------
 #t hf aug-cc-pvdz symm=none int=(grid=ultrafine) guess=(read,tcheck) s
 table=(opt,rrhf)
 ----------------------------------------------------------------------
 -----
 title
 -----
 Symbolic Z-matrix:
 Charge =  0 Multiplicity = 1

 SCF Done:  E(RHF) =  -354.679319629     A.U. after   14 cycles
 Normal termination of Gaussian 16 at Wed Apr  9 03:45:16 2025.
 Gaussian 16:  ES64L-G16RevC.01  3-Jul-2019

 ----------------------------------------------------------------------
 #t hf aug-cc-pvdz iop(5/13=1,5/36=2,99/5=2) pseudo=read geom=check gue
 ss=(read,tcheck) scf=(maxcycle=1)
 ----------------------------------------------------------------------
 -----
 title
 -----
 Structure from the checkpoint file:  "Grambow2020_wb97xd3_007773_forward_mol1.chk"
 Charge =  0 Multiplicity = 1

                         Standard orientation:
 ---------------------------------------------------------------------
 Center     Atomic      Atomic             Coordinates (Angstroms)
 Number     Number       Type             X           Y           Z
 ---------------------------------------------------------------------
      1          6           0        2.396192   -0.523252    0.000794
      2          6           0        0.991936   -0.048650   -0.000933
      3          7           0        0.658373    1.214303   -0.000473
      4          7           0       -0.723343    1.207775    0.000153
      5          6           0       -1.161237   -0.048398   -0.000211
      6          8           0       -2.246799   -0.715801    0.000760
      7          7           0       -0.108658   -0.861988   -0.001198
      8          1           0        2.594212   -1.122015    0.890838
      9          1           0        3.068665    0.331550   -0.012758
     10          1           0        2.588107   -1.146265   -0.873559
     11          1           0       -1.239866    2.066721    0.002143
     12          1           0       -1.182668   -1.602415   -0.000014
 ---------------------------------------------------------------------

 SCF Done:  E(RHF) =  -355.039576280     A.U. after    2 cycles

 The electronic state is 1-A.
 Alpha  occ. eigenvalues --  -20.54872 -15.58915 -15.53701 -15.52078 -11.38884
 Alpha  occ. eigenvalues --  -11.33198 -11.25664  -1.50517  -1.40206  -1.22861
 Alpha  occ. eigenvalues --   -1.15240  -1.02074  -0.90858  -0.88088  -0.79120
 Alpha  occ. eigenvalues --   -0.71166  -0.66490  -0.64057  -0.60493  -0.59182
 Alpha  occ. eigenvalues --   -0.58338  -0.55721  -0.54742  -0.48435  -0.47271
 Alpha  occ. eigenvalues --   -0.38842
 Alpha virt. eigenvalues --    0.03140   0.04591   0.05173   0.05194   0.05941
 Alpha virt. eigenvalues --    0.08134   0.09459   0.10250   0.13107   0.13280
 Alpha virt. eigenvalues --    0.14198   0.14475   0.14760   0.15204   0.15615

 Mulliken charges:
               1
     1  C   -0.163295
     2  C   -1.521806
     3  N    0.348631
     4  N    0.199988
     5  C    0.536454
     6  O   -1.285850
     7  N    0.538950
     8  H    0.246805
     9  H    0.199407
    10  H    0.243519
    11  H    0.108071
    12  H    0.549126
 Sum of Mulliken charges =  -0.00000

 Dipole moment (field-independent basis, Debye):
    X=              1.5311    Y=             -0.2190    Z=              0.0051  Tot=              1.5467

 Test job not archived.
 1\1\GINC-SE051\SP\RHF\Aug-CC-pVDZ\C3H5N3O1\OHZDE\09-Apr-2025\0\\#t hf
 aug-cc-pvdz iop(5/13=1,5/36=2,99/5=2) pseudo=read geom=check guess=(re
 ad,tcheck) scf=(maxcycle=1)\\title\\0,1\C,0,1.95680765,-0.22156175,0.0
 5624187\C,0,0.47469876,-0.20869139,0.07549347\N,0,-0.24929717,-1.21842
 058,0.47871895\N,0,-1.55453778,-0.78979313,0.33104588\C,0,-1.56266819,
 0.45016859,-0.15077394\O,0,-2.37400477,1.36971368,-0.49724519\N,0,-0.3
 0365505,0.84436362,-0.32208416\H,0,2.32524379,-0.07777566,-0.96036358\
 H,0,2.31687126,-1.1750073,0.43622256\H,0,2.3521628,0.58501955,0.674781

 Normal termination of Gaussian 16 at Wed Apr  9 03:45:21 2025.
