 Gaussian 16, Revision C.01,

 ----------------------------------------------------------------------
 #t hf aug-cc-pvdz symm=none int=(grid=ultrafine) guess=(read,tcheck) s
 table=(opt,rrhf)
 ----------------------------------------------------------------------
 -----
 title
 -----
 Symbolic Z-matrix:
 Charge =  0 Multiplicity = 1

 SCF Done:  E(RHF) =  -267.660161663     A.U. after   15 cycles
 Normal termination of Gaussian 16 at Wed Apr  9 15:50:40 2025.
 Gaussian 16:  ES64L-G16RevC.01  3-Jul-2019

 ----------------------------------------------------------------------
 #t hf aug-cc-pvdz iop(5/13=1,5/36=2,99/5=2) pseudo=read geom=check gue
 ss=(read,tcheck) scf=(maxcycle=1)
 ----------------------------------------------------------------------
 -----
 title
 -----
 Structure from the checkpoint file:  "Grambow2020_b97d3_006843_reverse_mol2.chk"
 Charge =  0 Multiplicity = 1

                         Standard orientation:
 ---------------------------------------------------------------------
 Center     Atomic      Atomic             Coordinates (Angstroms)
 Number     Number       Type             X           Y           Z
 ---------------------------------------------------------------------
      1          6           0        3.098461   -0.368682   -0.058676
      2          6           0        1.702867    0.064594   -0.019507
      3          6           0        0.547152    0.451015    0.007000
      4          6           0       -1.787246   -0.376073    0.253629
      5          6           0       -0.861895    0.833555    0.044061
      6          8           0       -2.878446   -0.487758   -0.264887
      7          1           0        3.349184   -0.982134    0.819743
      8          1           0        3.304822   -0.969008   -0.957512
      9          1           0        3.780162    0.495120   -0.068541
     10          1           0       -1.373999   -1.148771    0.945514
     11          1           0       -1.180000    1.358038   -0.868822
     12          1           0       -1.048633    1.522366    0.889678
 ---------------------------------------------------------------------

 SCF Done:  E(RHF) =  -267.934718026     A.U. after    2 cycles

 The electronic state is 1-A.
 Alpha  occ. eigenvalues --  -20.55734 -11.35713 -11.28429 -11.27109 -11.25496
 Alpha  occ. eigenvalues --  -11.24818  -1.48013  -1.09291  -1.03855  -0.95079
 Alpha  occ. eigenvalues --   -0.82377  -0.71354  -0.66146  -0.64291  -0.63680
 Alpha  occ. eigenvalues --   -0.60689  -0.60013  -0.59498  -0.51666  -0.43913
 Alpha  occ. eigenvalues --   -0.39048  -0.38518
 Alpha virt. eigenvalues --    0.02960   0.03876   0.04210   0.04874   0.06155
 Alpha virt. eigenvalues --    0.06230   0.08175   0.09874   0.10980   0.12232
 Alpha virt. eigenvalues --    0.13273   0.13555   0.13837   0.15194   0.15241

 Mulliken charges:
               1
     1  C   -0.863480
     2  C   -0.209994
     3  C    0.517134
     4  C    1.002744
     5  C   -0.948286
     6  O   -1.090568
     7  H    0.270961
     8  H    0.278493
     9  H    0.268004
    10  H    0.163055
    11  H    0.238755
    12  H    0.373182
 Sum of Mulliken charges =  -0.00000

 Dipole moment (field-independent basis, Debye):
    X=              3.1836    Y=              0.4733    Z=              1.0851  Tot=              3.3966

 Test job not archived.
 1\1\GINC-SE454\SP\RHF\Aug-CC-pVDZ\C5H6O1\OHZDE\09-Apr-2025\0\\#t hf au
 g-cc-pvdz iop(5/13=1,5/36=2,99/5=2) pseudo=read geom=check guess=(read
 ,tcheck) scf=(maxcycle=1)\\title\\0,1\C,0,-2.56133915,-0.21287222,0.54
 619232\C,0,-1.10457313,-0.10687608,0.60571406\C,0,0.10899615,-0.022525
 96,0.68210303\C,0,2.14775014,0.19591955,-0.72859759\C,0,1.56609849,0.0
 7709193,0.68948271\O,0,3.19666936,-0.30842493,-1.07131498\H,0,-2.99516
 161,0.60174748,-0.05297243\H,0,-2.8739144,-1.16590933,0.0935349\H,0,-3
 .00281504,-0.1589521,1.55275046\H,0,1.52460094,0.80723463,-1.4246721\H

 Normal termination of Gaussian 16 at Wed Apr  9 15:50:44 2025.
