 Gaussian 16, Revision C.01,

 ----------------------------------------------------------------------
 #t hf aug-cc-pvdz symm=none int=(grid=ultrafine) guess=(read,tcheck) s
 table=(opt,rrhf)
 ----------------------------------------------------------------------
 -----
 title
 -----
 Symbolic Z-matrix:
 Charge =  0 Multiplicity = 1

 SCF Done:  E(RHF) =  -359.775763506     A.U. after   13 cycles
 Normal termination of Gaussian 16 at Wed Apr  9 03:52:38 2025.
 Gaussian 16:  ES64L-G16RevC.01  3-Jul-2019

 ----------------------------------------------------------------------
 #t hf aug-cc-pvdz iop(5/13=1,5/36=2,99/5=2) pseudo=read geom=check gue
 ss=(read,tcheck) scf=(maxcycle=1)
 ----------------------------------------------------------------------
 -----
 title
 -----
 Structure from the checkpoint file:  "Grambow2020_wb97xd3_008265_reverse_mol2.chk"
 Charge =  0 Multiplicity = 1

                         Standard orientation:
 ---------------------------------------------------------------------
 Center     Atomic      Atomic             Coordinates (Angstroms)
 Number     Number       Type             X           Y           Z
 ---------------------------------------------------------------------
      1          6           0        2.194898   -0.638273   -0.415621
      2          6           0        1.093851   -0.083318    0.456143
      3          6           0        0.587180    1.324822    0.056256
      4          7           0       -0.842601    1.163139   -0.176759
      5          6           0       -1.074761   -0.069132   -0.009581
      6          8           0       -2.246045   -0.675361   -0.140291
      7          8           0       -0.090887   -0.906771    0.330035
      8          1           0        1.893040   -0.629251   -1.464660
      9          1           0        2.444177   -1.661152   -0.131967
     10          1           0        3.091633   -0.023954   -0.309582
     11          1           0        1.385176   -0.122999    1.508438
     12          1           0        1.082457    1.682058   -0.851926
     13          1           0        0.770542    2.062627    0.839713
     14          1           0       -2.880365    0.003155   -0.393838
 ---------------------------------------------------------------------

 SCF Done:  E(RHF) =  -360.143659790     A.U. after    2 cycles

 The electronic state is 1-A.
 Alpha  occ. eigenvalues --  -20.60353 -20.58757 -15.47450 -11.39632 -11.30695
 Alpha  occ. eigenvalues --  -11.26736 -11.23974  -1.57111  -1.49847  -1.22963
 Alpha  occ. eigenvalues --   -1.06898  -0.94953  -0.87474  -0.81602  -0.74196
 Alpha  occ. eigenvalues --   -0.70904  -0.68265  -0.64011  -0.60921  -0.58607
 Alpha  occ. eigenvalues --   -0.57636  -0.57467  -0.54443  -0.51956  -0.49177
 Alpha  occ. eigenvalues --   -0.46634  -0.39712
 Alpha virt. eigenvalues --    0.03518   0.04190   0.04307   0.04614   0.05874
 Alpha virt. eigenvalues --    0.06542   0.07332   0.09996   0.10503   0.11785
 Alpha virt. eigenvalues --    0.13067   0.14162   0.14811   0.15048   0.15400

 Mulliken charges:
               1
     1  C   -0.312320
     2  C    0.740537
     3  C   -0.601507
     4  N    0.744875
     5  C    0.949866
     6  O   -1.173961
     7  O   -1.324624
     8  H    0.191858
     9  H    0.156406
    10  H    0.213377
    11  H    0.062426
    12  H    0.046571
    13  H    0.074462
    14  H    0.232036
 Sum of Mulliken charges =  -0.00000

 Dipole moment (field-independent basis, Debye):
    X=              1.5574    Y=              0.0972    Z=              0.1774  Tot=              1.5705

 Test job not archived.
 1\1\GINC-SE165\SP\RHF\Aug-CC-pVDZ\C4H7N1O2\OHZDE\09-Apr-2025\0\\#t hf
 aug-cc-pvdz iop(5/13=1,5/36=2,99/5=2) pseudo=read geom=check guess=(re
 ad,tcheck) scf=(maxcycle=1)\\title\\0,1\C,0,-1.59505466,-0.96323849,0.
 01152036\C,0,-0.43279364,-0.2314342,-0.61606547\C,0,-0.19332096,1.2019
 3496,-0.0797914\N,0,1.17784376,1.1993868,0.4147895\C,0,1.59295712,0.01
 538261,0.25306842\O,0,2.78808498,-0.45284023,0.5831314\O,0,0.8041616,-
 0.91308587,-0.29532466\H,0,-1.49517831,-0.97836443,1.09847907\H,0,-1.6
 5452527,-1.99062436,-0.34878818\H,0,-2.52821483,-0.45556232,-0.2419417

 Normal termination of Gaussian 16 at Wed Apr  9 03:52:44 2025.
