 Gaussian 16, Revision C.01,

 ----------------------------------------------------------------------
 #t hf aug-cc-pvdz symm=none int=(grid=ultrafine) guess=(read,tcheck) s
 table=(opt,rrhf)
 ----------------------------------------------------------------------
 -----
 title
 -----
 Symbolic Z-matrix:
 Charge =  0 Multiplicity = 1

 SCF Done:  E(RHF) =  -324.875779630     A.U. after   14 cycles
 Normal termination of Gaussian 16 at Wed Apr  9 19:15:15 2025.
 Gaussian 16:  ES64L-G16RevC.01  3-Jul-2019

 ----------------------------------------------------------------------
 #t hf aug-cc-pvdz iop(5/13=1,5/36=2,99/5=2) pseudo=read geom=check gue
 ss=(read,tcheck) scf=(maxcycle=1)
 ----------------------------------------------------------------------
 -----
 title
 -----
 Structure from the checkpoint file:  "Grambow2020_wb97xd3_008963_reverse_mol1.chk"
 Charge =  0 Multiplicity = 1

                         Standard orientation:
 ---------------------------------------------------------------------
 Center     Atomic      Atomic             Coordinates (Angstroms)
 Number     Number       Type             X           Y           Z
 ---------------------------------------------------------------------
      1          6           0        2.428773   -1.025182   -0.090573
      2          6           0        1.877627    0.387704   -0.072943
      3          7           0        0.469092    0.394893   -0.433931
      4          6           0       -0.332436    1.499911    0.045999
      5          6           0       -0.459474    0.157067    0.648346
      6          6           0       -1.602066   -0.746987    0.258963
      7          8           0       -2.425040   -0.406018   -0.709626
      8          1           0        3.496160   -1.027706    0.135946
      9          1           0        2.279309   -1.479405   -1.070720
     10          1           0        1.927602   -1.650963    0.651984
     11          1           0        2.040493    0.847450    0.916094
     12          1           0        2.401583    1.006827   -0.805253
     13          1           0        0.162327    2.260636    0.643654
     14          1           0       -1.104285    1.839608   -0.633105
     15          1           0       -0.044914   -0.009252    1.641560
     16          1           0       -1.350112   -1.815032    0.381413
     17          1           0       -2.361690   -0.663651    1.479693
     18          1           0       -2.804334   -0.459698    0.634509
 ---------------------------------------------------------------------

 SCF Done:  E(RHF) =  -325.224527400     A.U. after    2 cycles

 The electronic state is 1-A.
 Alpha  occ. eigenvalues --  -20.49053 -15.50996 -11.37129 -11.27960 -11.26712
 Alpha  occ. eigenvalues --  -11.26687 -11.23034  -1.42850  -1.29693  -1.06176
 Alpha  occ. eigenvalues --   -0.98031  -0.91101  -0.84058  -0.80362  -0.73487
 Alpha  occ. eigenvalues --   -0.70533  -0.68775  -0.62979  -0.60146  -0.59295
 Alpha  occ. eigenvalues --   -0.55019  -0.54785  -0.51782  -0.49616  -0.48716
 Alpha  occ. eigenvalues --   -0.42692  -0.39593  -0.38584
 Alpha virt. eigenvalues --    0.02842   0.03561   0.03807   0.04428   0.05163
 Alpha virt. eigenvalues --    0.05606   0.06105   0.06569   0.07360   0.08948
 Alpha virt. eigenvalues --    0.09994   0.11576   0.12799   0.13283   0.13775

 Mulliken charges:
               1
     1  C   -0.401435
     2  C   -0.300904
     3  N    0.653572
     4  C    0.586604
     5  C   -0.426377
     6  C    0.617126
     7  O   -1.362355
     8  H    0.122019
     9  H    0.195806
    10  H    0.146676
    11  H    0.086638
    12  H   -0.044146
    13  H   -0.082347
    14  H   -0.073128
    15  H   -0.246891
    16  H    0.146496
    17  H    0.215020
    18  H    0.167623
 Sum of Mulliken charges =  -0.00000

 Dipole moment (field-independent basis, Debye):
    X=              1.9961    Y=              0.2304    Z=              4.0246  Tot=              4.4983

 Test job not archived.
 1\1\GINC-SE045\SP\RHF\Aug-CC-pVDZ\C5H11N1O1\OHZDE\09-Apr-2025\0\\#t hf
  aug-cc-pvdz iop(5/13=1,5/36=2,99/5=2) pseudo=read geom=check guess=(r
 ead,tcheck) scf=(maxcycle=1)\\title\\0,1\C,0,-2.16756844,-0.47348107,-
 0.88402831\C,0,-1.62662858,-0.05745645,0.47045504\N,0,-0.23599474,-0.4
 573496,0.61384363\C,0,0.57828903,0.29727823,1.54191734\C,0,0.74240341,
 0.46547018,0.08350478\C,0,1.87280943,-0.2226472,-0.63977\O,0,2.6484954
 ,-1.07819024,-0.0088441\H,0,-3.22354302,-0.21441998,-0.97588283\H,0,-2
 .05933951,-1.549809,-1.02241005\H,0,-1.62865148,0.02713232,-1.69218636

 Normal termination of Gaussian 16 at Wed Apr  9 19:15:21 2025.
