 Gaussian 16, Revision C.01,

 ----------------------------------------------------------------------
 #t hf aug-cc-pvdz symm=none int=(grid=ultrafine) guess=(read,tcheck) s
 table=(opt,rrhf)
 ----------------------------------------------------------------------
 -----
 title
 -----
 Symbolic Z-matrix:
 Charge =  0 Multiplicity = 1

 SCF Done:  E(RHF) =  -323.829917499     A.U. after   14 cycles
 Normal termination of Gaussian 16 at Wed Apr  9 18:48:53 2025.
 Gaussian 16:  ES64L-G16RevC.01  3-Jul-2019

 ----------------------------------------------------------------------
 #t hf aug-cc-pvdz iop(5/13=1,5/36=2,99/5=2) pseudo=read geom=check gue
 ss=(read,tcheck) scf=(maxcycle=1)
 ----------------------------------------------------------------------
 -----
 title
 -----
 Structure from the checkpoint file:  "Grambow2020_wb97xd3_008089_reverse_mol2.chk"
 Charge =  0 Multiplicity = 1

                         Standard orientation:
 ---------------------------------------------------------------------
 Center     Atomic      Atomic             Coordinates (Angstroms)
 Number     Number       Type             X           Y           Z
 ---------------------------------------------------------------------
      1          6           0       -2.565184   -0.798170   -0.126860
      2          6           0       -1.835492    0.404260    0.242789
      3          7           0       -1.245233    1.343817    0.534113
      4          8           0        0.596246   -1.622831   -0.419392
      5          6           0        1.255478   -0.669666   -0.129098
      6          6           0        1.901119    0.564402   -0.566635
      7          6           0        1.972399    0.063088    0.910839
      8          1           0       -3.179706   -0.603184   -1.004846
      9          1           0       -1.849745   -1.589063   -0.352187
     10          1           0       -3.205671   -1.108926    0.697593
     11          1           0       -0.426440    3.440545   -1.067813
     12          1           0       -0.143195    3.851458   -1.622653
     13          1           0        2.801017    0.495227   -1.166759
     14          1           0        1.273798    1.426299   -0.760757
     15          1           0        2.918058   -0.329958    1.265676
     16          1           0        1.388633    0.610042    1.641883
 ---------------------------------------------------------------------

 SCF Done:  E(RHF) =  -324.165185962     A.U. after    2 cycles

 The electronic state is 1-A.
 Alpha  occ. eigenvalues --  -20.55319 -15.51162 -11.35331 -11.28843 -11.28441
 Alpha  occ. eigenvalues --  -11.25322 -11.25245  -1.48577  -1.24137  -1.16023
 Alpha  occ. eigenvalues --   -1.04150  -0.86049  -0.76154  -0.70366  -0.68192
 Alpha  occ. eigenvalues --   -0.67879  -0.63385  -0.63098  -0.61164  -0.60813
 Alpha  occ. eigenvalues --   -0.57903  -0.54724  -0.51691  -0.50013  -0.49918
 Alpha  occ. eigenvalues --   -0.46814  -0.38475
 Alpha virt. eigenvalues --    0.03443   0.03799   0.04505   0.05218   0.05606
 Alpha virt. eigenvalues --    0.06738   0.07171   0.07604   0.09258   0.09882
 Alpha virt. eigenvalues --    0.10996   0.11518   0.12516   0.12772   0.13728

 Mulliken charges:
               1
     1  C   -0.075554
     2  C   -1.567157
     3  N    0.919218
     4  O   -1.245750
     5  C    1.005072
     6  C    0.114929
     7  C    0.111555
     8  H    0.234906
     9  H    0.221134
    10  H    0.240732
    11  H   -0.019595
    12  H    0.028514
    13  H    0.007433
    14  H   -0.031457
    15  H    0.002313
    16  H    0.053706
 Sum of Mulliken charges =   0.00000

 Dipole moment (field-independent basis, Debye):
    X=             -0.6870    Y=             -1.2868    Z=             -0.3254  Tot=              1.4945

 Test job not archived.
 1\1\GINC-SE173\SP\RHF\Aug-CC-pVDZ\C5H9N1O1\OHZDE\09-Apr-2025\0\\#t hf
 aug-cc-pvdz iop(5/13=1,5/36=2,99/5=2) pseudo=read geom=check guess=(re
 ad,tcheck) scf=(maxcycle=1)\\title\\0,1\C,0,2.62287021,-0.42016631,-0.
 82627453\C,0,1.81530303,0.47841579,-0.01675926\N,0,1.16420666,1.181862
 05,0.61354266\O,0,-0.47731512,-1.22129977,-1.53853571\C,0,-1.19808507,
 -0.51467919,-0.89934998\C,0,-1.91491042,-0.29109934,0.35260437\C,0,-1.
 9708375,0.72265033,-0.8342027\H,0,3.23355699,-1.05121362,-0.18179228\H
 ,0,1.96087682,-1.04526843,-1.42556471\H,0,3.27249058,0.15787502,-1.482

 Normal termination of Gaussian 16 at Wed Apr  9 18:48:58 2025.
