 Gaussian 16, Revision C.01,

 ----------------------------------------------------------------------
 #t hf aug-cc-pvdz symm=none int=(grid=ultrafine) guess=(read,tcheck) s
 table=(opt,rrhf)
 ----------------------------------------------------------------------
 -----
 title
 -----
 Symbolic Z-matrix:
 Charge =  0 Multiplicity = 1

 SCF Done:  E(RHF) =  -343.542976893     A.U. after   17 cycles
 Normal termination of Gaussian 16 at Wed Apr  9 17:56:09 2025.
 Gaussian 16:  ES64L-G16RevC.01  3-Jul-2019

 ----------------------------------------------------------------------
 #t hf aug-cc-pvdz iop(5/13=1,5/36=2,99/5=2) pseudo=read geom=check gue
 ss=(read,tcheck) scf=(maxcycle=1)
 ----------------------------------------------------------------------
 -----
 title
 -----
 Structure from the checkpoint file:  "Grambow2020_wb97xd3_006880_forward_mol1.chk"
 Charge =  0 Multiplicity = 1

                         Standard orientation:
 ---------------------------------------------------------------------
 Center     Atomic      Atomic             Coordinates (Angstroms)
 Number     Number       Type             X           Y           Z
 ---------------------------------------------------------------------
      1          6           0       -0.582109    1.468142   -0.574278
      2          6           0       -0.639445    0.319452    0.220785
      3          6           0       -1.085438   -1.009317   -0.631976
      4          6           0       -1.974677   -0.486480    0.371719
      5          8           0        0.324231    0.132057    1.081156
      6          6           0        1.772484    0.257375    0.063690
      7          8           0        2.096189   -0.818490   -0.391711
      8          1           0       -1.166415    1.563388   -1.482432
      9          1           0        1.149506    0.987557   -0.651864
     10          1           0       -0.138435    2.371362   -0.176437
     11          1           0       -1.296255   -0.840789   -1.678463
     12          1           0       -0.402007   -1.809900   -0.392591
     13          1           0       -2.876604    0.031255    0.078599
     14          1           0       -1.994625   -0.954040    1.346730
     15          1           0        2.416576    0.847603    0.741261
 ---------------------------------------------------------------------

 SCF Done:  E(RHF) =  -343.895512870     A.U. after    2 cycles

 The electronic state is 1-A.
 Alpha  occ. eigenvalues --  -20.50702 -20.46814 -11.34248 -11.32861 -11.32772
 Alpha  occ. eigenvalues --  -11.30207 -11.29347  -1.44718  -1.40098  -1.17265
 Alpha  occ. eigenvalues --   -1.03406  -0.87264  -0.83927  -0.78713  -0.72174
 Alpha  occ. eigenvalues --   -0.70775  -0.65147  -0.63936  -0.61176  -0.58360
 Alpha  occ. eigenvalues --   -0.57258  -0.54415  -0.53725  -0.46218  -0.39987
 Alpha  occ. eigenvalues --   -0.35699  -0.33259
 Alpha virt. eigenvalues --   -0.00529   0.02138   0.03168   0.03946   0.04820
 Alpha virt. eigenvalues --    0.05842   0.06689   0.07187   0.07478   0.08857
 Alpha virt. eigenvalues --    0.12149   0.12681   0.13569   0.13835   0.14198

 Mulliken charges:
               1
     1  C   -0.377339
     2  C    1.542366
     3  C    0.213642
     4  C    0.493134
     5  O   -1.687382
     6  C    0.854122
     7  O   -1.155780
     8  H   -0.099869
     9  H    0.234153
    10  H    0.049595
    11  H   -0.059656
    12  H    0.024002
    13  H   -0.104220
    14  H   -0.016866
    15  H    0.090099
 Sum of Mulliken charges =  -0.00000

 Dipole moment (field-independent basis, Debye):
    X=             -6.1459    Y=              3.1827    Z=             -1.7907  Tot=              7.1490

 Test job not archived.
 1\1\GINC-SE173\SP\RHF\Aug-CC-pVDZ\C5H8O2\OHZDE\09-Apr-2025\0\\#t hf au
 g-cc-pvdz iop(5/13=1,5/36=2,99/5=2) pseudo=read geom=check guess=(read
 ,tcheck) scf=(maxcycle=1)\\title\\0,1\C,0,-0.41019405,1.36056628,-0.14
 181364\C,0,-0.25938489,0.10040793,0.44483809\C,0,-0.84029358,-1.104730
 18,-0.50485945\C,0,-1.50545298,-0.80399687,0.7355562\O,0,0.87326463,-0
 .15639453,1.04081211\C,0,2.06161918,0.22004385,-0.22191788\O,0,2.31048
 052,-0.74811297,-0.90777498\H,0,-1.18034115,1.5585979,-0.87862097\H,0,
 1.27672553,1.01122701,-0.65924567\H,0,0.08228575,2.2172837,0.29912788\

 Normal termination of Gaussian 16 at Wed Apr  9 17:56:14 2025.
