 Gaussian 16, Revision C.01,

 ----------------------------------------------------------------------
 #t hf aug-cc-pvdz symm=none int=(grid=ultrafine) guess=(read,tcheck) s
 table=(opt,rrhf)
 ----------------------------------------------------------------------
 -----
 title
 -----
 Symbolic Z-matrix:
 Charge =  0 Multiplicity = 1

 SCF Done:  E(RHF) =  -317.747149173     A.U. after   14 cycles
 Normal termination of Gaussian 16 at Wed Apr  9 18:46:25 2025.
 Gaussian 16:  ES64L-G16RevC.01  3-Jul-2019

 ----------------------------------------------------------------------
 #t hf aug-cc-pvdz iop(5/13=1,5/36=2,99/5=2) pseudo=read geom=check gue
 ss=(read,tcheck) scf=(maxcycle=1)
 ----------------------------------------------------------------------
 -----
 title
 -----
 Structure from the checkpoint file:  "Grambow2020_wb97xd3_008052_forward_mol2.chk"
 Charge =  0 Multiplicity = 1

                         Standard orientation:
 ---------------------------------------------------------------------
 Center     Atomic      Atomic             Coordinates (Angstroms)
 Number     Number       Type             X           Y           Z
 ---------------------------------------------------------------------
      1          7           0        2.593319   -0.043929   -0.604554
      2          6           0        1.606272    0.016427   -0.023053
      3          6           0        0.340502    0.074239    0.727689
      4          6           0       -0.601325    1.211459    0.231654
      5          7           0       -1.604809    0.555325   -0.602633
      6          6           0       -1.469914   -0.689492   -0.419078
      7          7           0       -0.493299   -1.096166    0.478912
      8          1           0        0.585819    0.175248    1.785237
      9          1           0       -1.093124    1.688434    1.082779
     10          1           0       -0.068241    1.979571   -0.326867
     11          1           0       -2.098679   -1.438183   -0.888574
     12          1           0       -0.045465   -1.987473    0.342083
 ---------------------------------------------------------------------

 SCF Done:  E(RHF) =  -318.068321442     A.U. after    2 cycles

 The electronic state is 1-A.
 Alpha  occ. eigenvalues --  -15.54739 -15.52495 -15.49838 -11.33658 -11.33152
 Alpha  occ. eigenvalues --  -11.28932 -11.28770  -1.33646  -1.24771  -1.19026
 Alpha  occ. eigenvalues --   -1.06891  -0.91998  -0.84303  -0.80862  -0.75136
 Alpha  occ. eigenvalues --   -0.66943  -0.63911  -0.62907  -0.60344  -0.58548
 Alpha  occ. eigenvalues --   -0.56554  -0.51782  -0.51455  -0.47702  -0.41719
 Alpha virt. eigenvalues --    0.02628   0.03966   0.04625   0.05217   0.05648
 Alpha virt. eigenvalues --    0.08181   0.08320   0.09380   0.10052   0.11913
 Alpha virt. eigenvalues --    0.12553   0.13154   0.13835   0.14250   0.14841

 Mulliken charges:
               1
     1  N    1.064570
     2  C   -1.802106
     3  C   -0.130561
     4  C   -0.177971
     5  N    0.662511
     6  C   -0.520153
     7  N    0.501656
     8  H    0.070323
     9  H    0.094024
    10  H    0.118401
    11  H   -0.043080
    12  H    0.162387
 Sum of Mulliken charges =  -0.00000

 Dipole moment (field-independent basis, Debye):
    X=             -1.9577    Y=             -1.7083    Z=              2.8109  Tot=              3.8278

 Test job not archived.
 1\1\GINC-SE103\SP\RHF\Aug-CC-pVDZ\C4H5N3\OHZDE\09-Apr-2025\0\\#t hf au
 g-cc-pvdz iop(5/13=1,5/36=2,99/5=2) pseudo=read geom=check guess=(read
 ,tcheck) scf=(maxcycle=1)\\title\\0,1\N,0,2.38782284,-0.98607625,1.295
 64504\C,0,1.61980782,-0.60912595,0.53137449\C,0,0.64170534,-0.10668076
 ,-0.44841754\C,0,-0.67567679,-0.9377302,-0.46322604\N,0,-1.64649513,-0
 .14958888,0.29167256\C,0,-1.12821508,0.99157685,0.46655823\N,0,0.12885
 54,1.20788547,-0.07982203\H,0,1.12794719,-0.08906355,-1.4241483\H,0,-1
 .02891604,-1.0615205,-1.48971638\H,0,-0.5487189,-1.9270954,-0.02600982

 Normal termination of Gaussian 16 at Wed Apr  9 18:46:29 2025.
