 Gaussian 16, Revision C.01,

 ----------------------------------------------------------------------
 #t hf aug-cc-pvdz symm=none int=(grid=ultrafine) guess=(read,tcheck) s
 table=(opt,rrhf)
 ----------------------------------------------------------------------
 -----
 title
 -----
 Symbolic Z-matrix:
 Charge =  0 Multiplicity = 1

 SCF Done:  E(RHF) =  -353.499790856     A.U. after   15 cycles
 Normal termination of Gaussian 16 at Wed Apr  9 17:14:10 2025.
 Gaussian 16:  ES64L-G16RevC.01  3-Jul-2019

 ----------------------------------------------------------------------
 #t hf aug-cc-pvdz iop(5/13=1,5/36=2,99/5=2) pseudo=read geom=check gue
 ss=(read,tcheck) scf=(maxcycle=1)
 ----------------------------------------------------------------------
 -----
 title
 -----
 Structure from the checkpoint file:  "Grambow2020_wb97xd3_006537_reverse_mol2.chk"
 Charge =  0 Multiplicity = 1

                         Standard orientation:
 ---------------------------------------------------------------------
 Center     Atomic      Atomic             Coordinates (Angstroms)
 Number     Number       Type             X           Y           Z
 ---------------------------------------------------------------------
      1          8           0        2.211379   -0.006851   -0.008545
      2          6           0        1.010564    0.055447    0.001446
      3          7           0        0.242343   -1.085529    0.013246
      4          7           0       -1.135973   -1.037923   -0.002799
      5          6           0       -1.869719    0.028364   -0.008404
      6          6           0       -0.991414    1.223225    0.000942
      7          7           0        0.290014    1.261876    0.005425
      8          1           0        0.690355   -1.986530   -0.005587
      9          1           0       -1.557375   -1.956907   -0.004148
     10          1           0       -1.495289    2.187068    0.003086
 ---------------------------------------------------------------------

 SCF Done:  E(RHF) =  -353.847581371     A.U. after    2 cycles

 The electronic state is 1-A.
 Alpha  occ. eigenvalues --  -20.52767 -15.64836 -15.60324 -15.54496 -11.40794
 Alpha  occ. eigenvalues --  -11.33187 -11.28741  -1.49522  -1.40857  -1.27402
 Alpha  occ. eigenvalues --   -1.20832  -0.99849  -0.97111  -0.86637  -0.80138
 Alpha  occ. eigenvalues --   -0.77913  -0.71550  -0.68111  -0.64243  -0.58587
 Alpha  occ. eigenvalues --   -0.52012  -0.51717  -0.46472  -0.42901  -0.40357
 Alpha virt. eigenvalues --    0.00880   0.01547   0.04206   0.05019   0.08298
 Alpha virt. eigenvalues --    0.08954   0.09994   0.10501   0.10562   0.12246
 Alpha virt. eigenvalues --    0.12619   0.13662   0.14222   0.14518   0.15118

 Mulliken charges:
               1
     1  O   -1.141312
     2  C    0.546174
     3  N    0.214438
     4  N    0.225050
     5  C   -0.518764
     6  C   -0.536715
     7  N    0.777338
     8  H    0.145315
     9  H    0.238826
    10  H    0.049650
 Sum of Mulliken charges =  -0.00000

 Dipole moment (field-independent basis, Debye):
    X=             -2.9617    Y=             -3.3126    Z=             -0.0091  Tot=              4.4435

 Test job not archived.
 1\1\GINC-SE163\SP\RHF\Aug-CC-pVDZ\C3H3N3O1\OHZDE\09-Apr-2025\0\\#t hf
 aug-cc-pvdz iop(5/13=1,5/36=2,99/5=2) pseudo=read geom=check guess=(re
 ad,tcheck) scf=(maxcycle=1)\\title\\0,1\O,0,2.01972843,-1.30270135,0.4
 828644\C,0,0.96478396,-0.78838298,0.22112605\N,0,0.81049482,0.5774773,
 0.27356915\N,0,-0.39719314,1.1867203,0.00413799\C,0,-1.49699328,0.5976
 3537,-0.34053748\C,0,-1.26633012,-0.86601562,-0.40154855\N,0,-0.182762
 73,-1.50599087,-0.15683416\H,0,1.58598919,1.154857,0.55305434\H,0,-0.3
 5503624,2.19262382,0.09629486\H,0,-2.12181688,-1.47337798,-0.68815059\

 Normal termination of Gaussian 16 at Wed Apr  9 17:14:14 2025.
