 Gaussian 16, Revision C.01,

 ----------------------------------------------------------------------
 #t hf aug-cc-pvdz symm=none int=(grid=ultrafine) guess=(read,tcheck) s
 table=(opt,rrhf)
 ----------------------------------------------------------------------
 -----
 title
 -----
 Symbolic Z-matrix:
 Charge =  0 Multiplicity = 1

 SCF Done:  E(RHF) =  -305.746956345     A.U. after   15 cycles
 Normal termination of Gaussian 16 at Wed Apr  9 03:16:03 2025.
 Gaussian 16:  ES64L-G16RevC.01  3-Jul-2019

 ----------------------------------------------------------------------
 #t hf aug-cc-pvdz iop(5/13=1,5/36=2,99/5=2) pseudo=read geom=check gue
 ss=(read,tcheck) scf=(maxcycle=1)
 ----------------------------------------------------------------------
 -----
 title
 -----
 Structure from the checkpoint file:  "Grambow2020_b97d3_006969_reverse_mol2.chk"
 Charge =  0 Multiplicity = 1

                         Standard orientation:
 ---------------------------------------------------------------------
 Center     Atomic      Atomic             Coordinates (Angstroms)
 Number     Number       Type             X           Y           Z
 ---------------------------------------------------------------------
      1          8           0       -0.950853   -1.348156    0.373981
      2          6           0       -1.518946   -0.276610   -0.309492
      3          6           0       -0.959469    1.202090    0.135610
      4          6           0        0.365052    1.119849   -0.445736
      5          6           0        1.364597    0.450007    0.448467
      6          8           0        1.731070   -0.755781   -0.283796
      7          1           0       -0.022766   -1.461081    0.051145
      8          1           0       -1.436172   -0.346309   -1.403563
      9          1           0       -2.577894   -0.234055   -0.028140
     10          1           0       -1.639903    1.905863   -0.365521
     11          1           0       -1.077106    1.239241    1.234688
     12          1           0        1.748616   -0.454843   -1.221948
     13          1           0        1.026976    0.086367    1.435015
     14          1           0        2.229106    1.124288    0.603748
 ---------------------------------------------------------------------

 SCF Done:  E(RHF) =  -306.061407963     A.U. after    2 cycles

 The electronic state is 1-A.
 Alpha  occ. eigenvalues --  -20.57589 -20.55156 -11.31791 -11.30407 -11.28015
 Alpha  occ. eigenvalues --  -11.25394  -1.46742  -1.45134  -1.08571  -0.96926
 Alpha  occ. eigenvalues --   -0.87503  -0.77584  -0.72099  -0.67868  -0.64447
 Alpha  occ. eigenvalues --   -0.63056  -0.60852  -0.58142  -0.56563  -0.54008
 Alpha  occ. eigenvalues --   -0.49028  -0.45876  -0.43477  -0.36714
 Alpha virt. eigenvalues --    0.03513   0.03684   0.04101   0.04538   0.06231
 Alpha virt. eigenvalues --    0.06424   0.06815   0.07269   0.08650   0.10502
 Alpha virt. eigenvalues --    0.12893   0.13776   0.14388   0.14697   0.15363

 Mulliken charges:
               1
     1  O   -1.196628
     2  C    0.509073
     3  C   -0.264130
     4  C   -0.249351
     5  C    0.656702
     6  O   -1.108518
     7  H    0.524393
     8  H    0.202453
     9  H    0.053063
    10  H    0.150298
    11  H    0.136499
    12  H    0.407769
    13  H    0.074128
    14  H    0.104250
 Sum of Mulliken charges =  -0.00000

 Dipole moment (field-independent basis, Debye):
    X=             -0.3641    Y=              1.6891    Z=              0.0657  Tot=              1.7291

 Test job not archived.
 1\1\GINC-SE060\SP\RHF\Aug-CC-pVDZ\C4H8O2\OHZDE\09-Apr-2025\0\\#t hf au
 g-cc-pvdz iop(5/13=1,5/36=2,99/5=2) pseudo=read geom=check guess=(read
 ,tcheck) scf=(maxcycle=1)\\title\\0,1\O,0,1.31731922,1.03602262,0.5380
 7221\C,0,1.4822913,-0.25264977,0.03788866\C,0,0.21530034,-1.26403446,0
 .30155364\C,0,-0.72928368,-0.67988652,-0.62883091\C,0,-1.49923548,0.46
 856659,-0.0495153\O,0,-1.07413912,1.60968885,-0.85049639\H,0,0.6595182
 1,1.50509604,-0.03253024\H,0,1.71935862,-0.29170863,-1.03494605\H,0,2.
 29433268,-0.72211331,0.60580862\H,0,0.59871199,-2.25250911,0.00943476\

 Normal termination of Gaussian 16 at Wed Apr  9 03:16:07 2025.
