 Gaussian 16, Revision C.01,

 ----------------------------------------------------------------------
 #t hf aug-cc-pvdz symm=none int=(grid=ultrafine) guess=(read,tcheck) s
 table=(opt,rrhf)
 ----------------------------------------------------------------------
 -----
 title
 -----
 Symbolic Z-matrix:
 Charge =  0 Multiplicity = 1

 SCF Done:  E(RHF) =  -309.011633493     A.U. after   15 cycles

 1\1\GINC-SE104\Stability\RHF\Aug-CC-pVDZ\C6H12O1\OHZDE\09-Apr-2025\0\\
 #t hf aug-cc-pvdz symm=none int=(grid=ultrafine) guess=(read,tcheck) s
 table=(opt,rrhf)\\title\\0,1\C,0,-1.57904292,-0.61102938,-0.70860421\C
 ,0,-1.03060012,0.34655961,0.3437589\C,0,-2.09219244,0.70991392,1.37746
 756\C,0,0.18280233,-0.22559819,1.05421146\O,0,1.23907656,-0.5122225,0.
 11573198\C,0,2.17301579,0.381068,0.00591203\C,0,3.14417954,-0.08546242
 ,-1.02869383\H,0,-2.42641947,-0.16384184,-1.23185408\H,0,-0.82144118,-
 0.86841884,-1.44943227\H,0,-1.92647424,-1.53931771,-0.24557967\H,0,-0.

 Normal termination of Gaussian 16 at Wed Apr  9 18:32:48 2025.
 Gaussian 16:  ES64L-G16RevC.01  3-Jul-2019

 ----------------------------------------------------------------------
 #t hf aug-cc-pvdz iop(5/13=1,5/36=2,99/5=2) pseudo=read geom=check gue
 ss=(read,tcheck) scf=(maxcycle=1)
 ----------------------------------------------------------------------
 -----
 title
 -----
 Structure from the checkpoint file:  "Grambow2020_wb97xd3_007693_reverse_mol2.chk"
 Charge =  0 Multiplicity = 1

                         Standard orientation:
 ---------------------------------------------------------------------
 Center     Atomic      Atomic             Coordinates (Angstroms)
 Number     Number       Type             X           Y           Z
 ---------------------------------------------------------------------
      1          6           0        1.451105    1.491854    0.089199
      2          6           0        1.279065    0.034477   -0.325156
      3          6           0        2.606621   -0.716661   -0.294408
      4          6           0        0.274930   -0.690310    0.552823
      5          8           0       -1.016163   -0.051704    0.490586
      6          6           0       -1.883569   -0.578843   -0.316879
      7          6           0       -3.131419    0.240138   -0.258928
      8          1           0        2.147952    2.002290   -0.578389
      9          1           0        0.502960    2.029844    0.064235
     10          1           0        1.851653    1.562163    1.104796
     11          1           0        0.881897    0.000439   -1.346196
     12          1           0        3.024520   -0.732702    0.716443
     13          1           0        3.338288   -0.233635   -0.944102
     14          1           0        2.493513   -1.750026   -0.628684
     15          1           0        0.571127   -0.652566    1.604291
     16          1           0        0.144720   -1.725985    0.236866
     17          1           0       -3.088001    1.110336    0.403749
     18          1           0       -3.944213   -0.427337    0.042176
     19          1           0       -3.375513    0.546887   -1.279785
 ---------------------------------------------------------------------

 SCF Done:  E(RHF) =  -309.341323478     A.U. after    2 cycles

 The electronic state is 1-A.
 Alpha  occ. eigenvalues --  -20.59789 -11.29049 -11.28884 -11.23933 -11.22968
 Alpha  occ. eigenvalues --  -11.22419 -11.22349  -1.52958  -1.10231  -1.01805
 Alpha  occ. eigenvalues --   -0.93961  -0.93149  -0.81281  -0.76538  -0.68909
 Alpha  occ. eigenvalues --   -0.64439  -0.62734  -0.61799  -0.58186  -0.57070
 Alpha  occ. eigenvalues --   -0.54812  -0.54762  -0.52802  -0.52650  -0.48917
 Alpha  occ. eigenvalues --   -0.48091  -0.46512  -0.34582
 Alpha virt. eigenvalues --    0.03711   0.03733   0.03923   0.04392   0.05700
 Alpha virt. eigenvalues --    0.06058   0.06168   0.06630   0.07269   0.08482
 Alpha virt. eigenvalues --    0.09211   0.09230   0.11731   0.12250   0.13234

 Mulliken charges:
               1
     1  C   -0.006087
     2  C   -1.545429
     3  C   -0.026787
     4  C    1.003967
     5  O   -1.039375
     6  C    0.066380
     7  C   -0.486436
     8  H    0.157920
     9  H    0.145026
    10  H    0.243656
    11  H    0.177454
    12  H    0.234560
    13  H    0.145188
    14  H    0.149582
    15  H    0.051780
    16  H    0.232038
    17  H    0.060193
    18  H    0.211996
    19  H    0.224373
 Sum of Mulliken charges =   0.00000

 Dipole moment (field-independent basis, Debye):
    X=              1.0597    Y=              0.7686    Z=              0.6447  Tot=              1.4592

 Test job not archived.
 1\1\GINC-SE104\SP\RHF\Aug-CC-pVDZ\C6H12O1\OHZDE\09-Apr-2025\0\\#t hf a
 ug-cc-pvdz iop(5/13=1,5/36=2,99/5=2) pseudo=read geom=check guess=(rea
 d,tcheck) scf=(maxcycle=1)\\title\\0,1\C,0,-1.57904292,-0.61102938,-0.
 70860421\C,0,-1.03060012,0.34655961,0.3437589\C,0,-2.09219244,0.709913
 92,1.37746756\C,0,0.18280233,-0.22559819,1.05421146\O,0,1.23907656,-0.
 5122225,0.11573198\C,0,2.17301579,0.381068,0.00591203\C,0,3.14417954,-
 0.08546242,-1.02869383\H,0,-2.42641947,-0.16384184,-1.23185408\H,0,-0.
 82144118,-0.86841884,-1.44943227\H,0,-1.92647424,-1.53931771,-0.245579

 Normal termination of Gaussian 16 at Wed Apr  9 18:32:55 2025.
