 Gaussian 16, Revision C.01,

 ----------------------------------------------------------------------
 #t hf aug-cc-pvdz symm=none int=(grid=ultrafine) guess=(read,tcheck) s
 table=(opt,rrhf)
 ----------------------------------------------------------------------
 -----
 title
 -----
 Symbolic Z-matrix:
 Charge =  0 Multiplicity = 1

 SCF Done:  E(RHF) =  -323.767363745     A.U. after   15 cycles
 Normal termination of Gaussian 16 at Wed Apr  9 17:55:09 2025.
 Gaussian 16:  ES64L-G16RevC.01  3-Jul-2019

 ----------------------------------------------------------------------
 #t hf aug-cc-pvdz iop(5/13=1,5/36=2,99/5=2) pseudo=read geom=check gue
 ss=(read,tcheck) scf=(maxcycle=1)
 ----------------------------------------------------------------------
 -----
 title
 -----
 Structure from the checkpoint file:  "Grambow2020_wb97xd3_006877_forward_mol1.chk"
 Charge =  0 Multiplicity = 1

                         Standard orientation:
 ---------------------------------------------------------------------
 Center     Atomic      Atomic             Coordinates (Angstroms)
 Number     Number       Type             X           Y           Z
 ---------------------------------------------------------------------
      1          6           0        2.433677   -0.287535   -0.640208
      2          7           0        1.165575    0.356830   -0.337215
      3          6           0        0.789394    0.504300    1.343526
      4          6           0        0.155584   -0.420562    0.364994
      5          6           0       -1.288986   -0.242526   -0.042561
      6          8           0       -2.017625   -1.203649   -0.046549
      7          6           0       -1.750059    1.143532   -0.387565
      8          1           0        3.237046    0.445634   -0.573512
      9          1           0        2.398763   -0.675671   -1.659324
     10          1           0        2.649908   -1.108947    0.049732
     11          1           0        1.625093   -0.012946    1.828000
     12          1           0        1.157972    1.314863    0.255196
     13          1           0        0.416394   -1.474834    0.413759
     14          1           0       -1.194855    1.511998   -1.252916
     15          1           0       -2.815502    1.133853   -0.602679
     16          1           0       -1.530510    1.814174    0.445519
 ---------------------------------------------------------------------

 SCF Done:  E(RHF) =  -324.106376306     A.U. after    2 cycles

 The electronic state is 1-A.
 Alpha  occ. eigenvalues --  -20.53634 -15.56718 -11.33654 -11.29260 -11.29047
 Alpha  occ. eigenvalues --  -11.26574 -11.23573  -1.47416  -1.30784  -1.05531
 Alpha  occ. eigenvalues --   -1.00769  -0.92088  -0.86113  -0.78106  -0.70904
 Alpha  occ. eigenvalues --   -0.68945  -0.64280  -0.62346  -0.61410  -0.60450
 Alpha  occ. eigenvalues --   -0.57384  -0.54962  -0.54312  -0.49924  -0.46454
 Alpha  occ. eigenvalues --   -0.41005  -0.36795
 Alpha virt. eigenvalues --    0.02971   0.04064   0.04289   0.04681   0.05589
 Alpha virt. eigenvalues --    0.05943   0.06314   0.06757   0.08923   0.10467
 Alpha virt. eigenvalues --    0.10960   0.11457   0.13158   0.13628   0.14173

 Mulliken charges:
               1
     1  C   -0.291563
     2  N    0.311134
     3  C   -0.286232
     4  C   -0.420894
     5  C    1.093340
     6  O   -1.362819
     7  C   -0.621332
     8  H    0.093277
     9  H    0.112583
    10  H    0.118754
    11  H    0.044656
    12  H    0.650430
    13  H   -0.164260
    14  H    0.325076
    15  H    0.073197
    16  H    0.324653
 Sum of Mulliken charges =   0.00000

 Dipole moment (field-independent basis, Debye):
    X=              3.6162    Y=              0.7399    Z=             -0.9378  Tot=              3.8084

 Test job not archived.
 1\1\GINC-SE173\SP\RHF\Aug-CC-pVDZ\C5H9N1O1\OHZDE\09-Apr-2025\0\\#t hf
 aug-cc-pvdz iop(5/13=1,5/36=2,99/5=2) pseudo=read geom=check guess=(re
 ad,tcheck) scf=(maxcycle=1)\\title\\0,1\C,0,1.15787828,-0.02534931,-1.
 94637865\N,0,0.58591212,0.30267701,-0.65009678\C,0,1.13976273,-0.66252
 916,0.67269436\C,0,-0.19993726,-0.71777848,0.02712511\C,0,-1.43746441,
 -0.28083979,0.77691907\O,0,-2.41165375,-0.9917505,0.76107448\C,0,-1.37
 111276,1.01064516,1.53878297\H,0,2.12308371,0.4693279,-2.05153993\H,0,
 0.49144566,0.33910018,-2.72964742\H,0,1.30067782,-1.10332095,-2.069164

 Normal termination of Gaussian 16 at Wed Apr  9 17:55:15 2025.
