 Gaussian 16, Revision C.01,

 ----------------------------------------------------------------------
 #t hf aug-cc-pvdz symm=none int=(grid=ultrafine) guess=(read,tcheck) s
 table=(opt,rrhf)
 ----------------------------------------------------------------------
 -----
 title
 -----
 Symbolic Z-matrix:
 Charge =  0 Multiplicity = 1

 SCF Done:  E(RHF) =  -322.649722137     A.U. after   13 cycles
 Normal termination of Gaussian 16 at Wed Apr  9 03:26:45 2025.
 Gaussian 16:  ES64L-G16RevC.01  3-Jul-2019

 ----------------------------------------------------------------------
 #t hf aug-cc-pvdz iop(5/13=1,5/36=2,99/5=2) pseudo=read geom=check gue
 ss=(read,tcheck) scf=(maxcycle=1)
 ----------------------------------------------------------------------
 -----
 title
 -----
 Structure from the checkpoint file:  "Grambow2020_wb97xd3_006623_reverse_mol2.chk"
 Charge =  0 Multiplicity = 1

                         Standard orientation:
 ---------------------------------------------------------------------
 Center     Atomic      Atomic             Coordinates (Angstroms)
 Number     Number       Type             X           Y           Z
 ---------------------------------------------------------------------
      1          8           0        2.183753   -0.155138    0.009935
      2          6           0        0.886749   -0.264299   -0.516944
      3          6           0        0.076985    1.006040   -0.385687
      4          6           0       -1.350279    0.645452   -0.214788
      5          6           0       -1.481288   -0.859371   -0.276567
      6          6           0       -0.145102   -0.832198    0.464669
      7          7           0       -0.443978    0.607249    0.961693
      8          1           0        0.988142   -0.742148   -1.493132
      9          1           0        0.404982    2.017885   -0.588602
     10          1           0       -2.135265    1.387224   -0.291309
     11          1           0       -1.524988   -1.358133   -1.247214
     12          1           0       -2.292431   -1.207199    0.362589
     13          1           0        2.129098    0.318895    0.845145
     14          1           0        0.145899   -1.599919    1.177097
 ---------------------------------------------------------------------

 SCF Done:  E(RHF) =  -322.985436939     A.U. after    2 cycles

 The electronic state is 1-A.
 Alpha  occ. eigenvalues --  -20.55331 -15.50834 -11.29852 -11.27877 -11.27501
 Alpha  occ. eigenvalues --  -11.27102 -11.24925  -1.46325  -1.33529  -1.02095
 Alpha  occ. eigenvalues --   -0.98861  -0.92783  -0.79513  -0.76078  -0.73928
 Alpha  occ. eigenvalues --   -0.67752  -0.65696  -0.62276  -0.58032  -0.55858
 Alpha  occ. eigenvalues --   -0.54787  -0.51841  -0.47170  -0.45413  -0.43534
 Alpha  occ. eigenvalues --   -0.40588
 Alpha virt. eigenvalues --    0.03590   0.03998   0.04183   0.04382   0.05491
 Alpha virt. eigenvalues --    0.06099   0.06483   0.08721   0.10382   0.12538
 Alpha virt. eigenvalues --    0.12916   0.13586   0.14234   0.15147   0.15323

 Mulliken charges:
               1
     1  O   -1.458332
     2  C    1.607151
     3  C   -0.049066
     4  C    0.014582
     5  C   -0.040141
     6  C   -0.244332
     7  N    0.237108
     8  H    0.025739
     9  H   -0.199782
    10  H   -0.188909
    11  H    0.048982
    12  H    0.109180
    13  H    0.285053
    14  H   -0.147232
 Sum of Mulliken charges =  -0.00000

 Dipole moment (field-independent basis, Debye):
    X=             -1.5959    Y=             -0.4177    Z=             -1.4526  Tot=              2.1981

 Test job not archived.
 1\1\GINC-SE026\SP\RHF\Aug-CC-pVDZ\C5H7N1O1\OHZDE\09-Apr-2025\0\\#t hf
 aug-cc-pvdz iop(5/13=1,5/36=2,99/5=2) pseudo=read geom=check guess=(re
 ad,tcheck) scf=(maxcycle=1)\\title\\0,1\O,0,0.25641057,1.6536722,1.687
 2683\C,0,0.58471682,0.57500928,0.85034577\C,0,0.41336968,0.88285324,-0
 .62022516\C,0,0.01892769,-0.36020652,-1.32416366\C,0,-0.02688459,-1.49
 145029,-0.32233519\C,0,-0.56614906,-0.40986926,0.61304553\N,0,-1.01575
 87,0.43188592,-0.61074626\H,0,1.53570159,0.18010478,1.21261939\H,0,0.7
 2005657,1.77989565,-1.14352716\H,0,0.02546811,-0.42589895,-2.40487027\

 Normal termination of Gaussian 16 at Wed Apr  9 03:26:50 2025.
