 Gaussian 16, Revision C.01,

 ----------------------------------------------------------------------
 #t hf aug-cc-pvdz symm=none int=(grid=ultrafine) guess=(read,tcheck) s
 table=(opt,rrhf)
 ----------------------------------------------------------------------
 -----
 title
 -----
 Symbolic Z-matrix:
 Charge =  0 Multiplicity = 1

 SCF Done:  E(RHF) =  -344.767690209     A.U. after   14 cycles

 1\1\GINC-SE226\Stability\RHF\Aug-CC-pVDZ\C5H10O2\OHZDE\09-Apr-2025\0\\
 #t hf aug-cc-pvdz symm=none int=(grid=ultrafine) guess=(read,tcheck) s
 table=(opt,rrhf)\\title\\0,1\C,0,2.2029929,0.33639274,-0.55976061\C,0,
 1.01711817,-0.52660155,-0.21743151\C,0,0.5645864,-0.61342183,1.2143910
 9\O,0,-0.74831507,-0.80450871,1.1553896\C,0,-1.24192253,-0.56832131,-0
 .19961323\C,0,-2.37172663,0.421287,-0.17753675\O,0,-0.15327733,-0.0824
 7278,-0.91157359\H,0,2.46101248,0.22393609,-1.61262139\H,0,3.06298066,
 0.0361213,0.0402041\H,0,1.98121152,1.38633097,-0.36718295\H,0,1.226335

 Normal termination of Gaussian 16 at Wed Apr  9 18:06:21 2025.
 Gaussian 16:  ES64L-G16RevC.01  3-Jul-2019

 ----------------------------------------------------------------------
 #t hf aug-cc-pvdz iop(5/13=1,5/36=2,99/5=2) pseudo=read geom=check gue
 ss=(read,tcheck) scf=(maxcycle=1)
 ----------------------------------------------------------------------
 -----
 title
 -----
 Structure from the checkpoint file:  "Grambow2020_wb97xd3_007100_forward_mol1.chk"
 Charge =  0 Multiplicity = 1

                         Standard orientation:
 ---------------------------------------------------------------------
 Center     Atomic      Atomic             Coordinates (Angstroms)
 Number     Number       Type             X           Y           Z
 ---------------------------------------------------------------------
      1          6           0       -2.346043   -0.578051    0.290970
      2          6           0       -1.120951   -0.035588   -0.396875
      3          6           0       -0.566384    1.293471    0.037286
      4          8           0        0.742777    1.210882   -0.170035
      5          6           0        1.134051   -0.170410   -0.442806
      6          6           0        2.241448   -0.590454    0.481046
      7          8           0       -0.012307   -0.927477   -0.240827
      8          1           0       -2.675577   -1.497197   -0.193090
      9          1           0       -3.154836    0.151475    0.233130
     10          1           0       -2.133378   -0.794472    1.338147
     11          1           0       -1.327925    0.089676   -1.472692
     12          1           0       -0.690865    0.902493    1.700900
     13          1           0       -0.888295    1.641811    1.231077
     14          1           0        1.440550   -0.183079   -1.497395
     15          1           0        1.919084   -0.464050    1.515291
     16          1           0        2.483513   -1.640051    0.313029
     17          1           0        3.131252    0.012341    0.300771
 ---------------------------------------------------------------------

 SCF Done:  E(RHF) =  -345.126563906     A.U. after    2 cycles

 The electronic state is 1-A.
 Alpha  occ. eigenvalues --  -20.58322 -20.56190 -11.35020 -11.30950 -11.30253
 Alpha  occ. eigenvalues --  -11.23816 -11.23566  -1.55524  -1.45371  -1.09061
 Alpha  occ. eigenvalues --   -1.00953  -0.92353  -0.85643  -0.82224  -0.73701
 Alpha  occ. eigenvalues --   -0.70922  -0.66744  -0.61950  -0.60767  -0.57362
 Alpha  occ. eigenvalues --   -0.55885  -0.55212  -0.54347  -0.53641  -0.51667
 Alpha  occ. eigenvalues --   -0.47768  -0.43391  -0.34052
 Alpha virt. eigenvalues --    0.03629   0.03895   0.03968   0.04587   0.05876
 Alpha virt. eigenvalues --    0.06014   0.06419   0.07468   0.08901   0.09657
 Alpha virt. eigenvalues --    0.10304   0.12092   0.12243   0.13690   0.14458

 Mulliken charges:
               1
     1  C   -0.392430
     2  C    0.177999
     3  C    0.355997
     4  O   -1.396124
     5  C    1.517671
     6  C   -0.388577
     7  O   -1.478358
     8  H    0.161219
     9  H    0.240145
    10  H    0.221874
    11  H    0.130832
    12  H    0.085629
    13  H    0.125811
    14  H    0.037696
    15  H    0.208645
    16  H    0.202256
    17  H    0.189715
 Sum of Mulliken charges =  -0.00000

 Dipole moment (field-independent basis, Debye):
    X=              0.0024    Y=             -1.3328    Z=             -0.1392  Tot=              1.3401

 Test job not archived.
 1\1\GINC-SE226\SP\RHF\Aug-CC-pVDZ\C5H10O2\OHZDE\09-Apr-2025\0\\#t hf a
 ug-cc-pvdz iop(5/13=1,5/36=2,99/5=2) pseudo=read geom=check guess=(rea
 d,tcheck) scf=(maxcycle=1)\\title\\0,1\C,0,2.2029929,0.33639274,-0.559
 76061\C,0,1.01711817,-0.52660155,-0.21743151\C,0,0.5645864,-0.61342183
 ,1.21439109\O,0,-0.74831507,-0.80450871,1.1553896\C,0,-1.24192253,-0.5
 6832131,-0.19961323\C,0,-2.37172663,0.421287,-0.17753675\O,0,-0.153277
 33,-0.08247278,-0.91157359\H,0,2.46101248,0.22393609,-1.61262139\H,0,3
 .06298066,0.0361213,0.0402041\H,0,1.98121152,1.38633097,-0.36718295\H,

 Normal termination of Gaussian 16 at Wed Apr  9 18:06:27 2025.
