 Gaussian 16, Revision C.01,

 ----------------------------------------------------------------------
 #t hf aug-cc-pvdz symm=none int=(grid=ultrafine) guess=(read,tcheck) s
 table=(opt,rrhf)
 ----------------------------------------------------------------------
 -----
 title
 -----
 Symbolic Z-matrix:
 Charge =  0 Multiplicity = 1

 SCF Done:  E(RHF) =  -307.780463876     A.U. after   15 cycles

 1\1\GINC-SE229\Stability\RHF\Aug-CC-pVDZ\C6H10O1\OHZDE\09-Apr-2025\0\\
 #t hf aug-cc-pvdz symm=none int=(grid=ultrafine) guess=(read,tcheck) s
 table=(opt,rrhf)\\title\\0,1\C,0,2.09670341,0.22919129,0.40049582\C,0,
 0.63243187,-0.05637515,0.30957389\C,0,-0.01752101,-1.23911569,0.622342
 48\C,0,-1.34939169,-1.16709905,0.18301984\C,0,-1.68341579,0.30322258,0
 .09882764\C,0,-0.32027703,0.77843499,-0.31501613\O,0,-0.13378807,2.078
 22613,-0.65783822\H,0,2.29840512,1.157395,0.94383814\H,0,2.55227808,0.
 31573731,-0.590834\H,0,2.61288407,-0.57480275,0.9243979\H,0,0.47618458

 Normal termination of Gaussian 16 at Wed Apr  9 18:35:41 2025.
 Gaussian 16:  ES64L-G16RevC.01  3-Jul-2019

 ----------------------------------------------------------------------
 #t hf aug-cc-pvdz iop(5/13=1,5/36=2,99/5=2) pseudo=read geom=check gue
 ss=(read,tcheck) scf=(maxcycle=1)
 ----------------------------------------------------------------------
 -----
 title
 -----
 Structure from the checkpoint file:  "Grambow2020_wb97xd3_007737_reverse_mol1.chk"
 Charge =  0 Multiplicity = 1

                         Standard orientation:
 ---------------------------------------------------------------------
 Center     Atomic      Atomic             Coordinates (Angstroms)
 Number     Number       Type             X           Y           Z
 ---------------------------------------------------------------------
      1          6           0       -2.006470   -0.914353   -0.045048
      2          6           0       -0.555301   -0.558207   -0.079313
      3          6           0        0.526049   -1.424111   -0.084806
      4          6           0        1.708182   -0.691750    0.110843
      5          6           0        1.404326    0.719607   -0.332157
      6          6           0       -0.034103    0.742306    0.098714
      7          8           0       -0.741894    1.898055    0.027742
      8          1           0       -2.572839   -0.393727   -0.823278
      9          1           0       -2.458924   -0.667262    0.920356
     10          1           0       -2.143118   -1.983971   -0.201788
     11          1           0        0.449916   -2.503332   -0.041241
     12          1           0        2.701161   -1.119568    0.069081
     13          1           0        1.325230   -0.174606    1.480389
     14          1           0        2.019683    1.493008    0.123427
     15          1           0        1.450879    0.791342   -1.423468
     16          1           0        0.585633    0.425517    1.546833
     17          1           0       -1.678560    1.707203    0.118356
 ---------------------------------------------------------------------

 SCF Done:  E(RHF) =  -308.107938299     A.U. after    2 cycles

 The electronic state is 1-A.
 Alpha  occ. eigenvalues --  -20.58054 -11.31488 -11.24341 -11.24330 -11.23898
 Alpha  occ. eigenvalues --  -11.23271 -11.23186  -1.49627  -1.17660  -1.02906
 Alpha  occ. eigenvalues --   -0.95605  -0.91110  -0.78349  -0.77914  -0.70126
 Alpha  occ. eigenvalues --   -0.67836  -0.64778  -0.58837  -0.58096  -0.57165
 Alpha  occ. eigenvalues --   -0.54929  -0.53923  -0.52524  -0.49683  -0.48983
 Alpha  occ. eigenvalues --   -0.35304  -0.31608
 Alpha virt. eigenvalues --    0.03028   0.03654   0.04113   0.04402   0.05758
 Alpha virt. eigenvalues --    0.05922   0.06378   0.07435   0.09141   0.09649
 Alpha virt. eigenvalues --    0.11765   0.11845   0.12344   0.12971   0.14048

 Mulliken charges:
               1
     1  C   -0.763292
     2  C    0.525561
     3  C    0.673787
     4  C   -0.658539
     5  C   -0.131064
     6  C    0.456793
     7  O   -1.494652
     8  H    0.242864
     9  H    0.247290
    10  H    0.081967
    11  H   -0.209333
    12  H   -0.096455
    13  H    0.391635
    14  H    0.093563
    15  H    0.141179
    16  H    0.267034
    17  H    0.231661
 Sum of Mulliken charges =   0.00000

 Dipole moment (field-independent basis, Debye):
    X=             -1.2728    Y=             -0.8758    Z=             -0.5802  Tot=              1.6504

 Test job not archived.
 1\1\GINC-SE229\SP\RHF\Aug-CC-pVDZ\C6H10O1\OHZDE\09-Apr-2025\0\\#t hf a
 ug-cc-pvdz iop(5/13=1,5/36=2,99/5=2) pseudo=read geom=check guess=(rea
 d,tcheck) scf=(maxcycle=1)\\title\\0,1\C,0,2.09670341,0.22919129,0.400
 49582\C,0,0.63243187,-0.05637515,0.30957389\C,0,-0.01752101,-1.2391156
 9,0.62234248\C,0,-1.34939169,-1.16709905,0.18301984\C,0,-1.68341579,0.
 30322258,0.09882764\C,0,-0.32027703,0.77843499,-0.31501613\O,0,-0.1337
 8807,2.07822613,-0.65783822\H,0,2.29840512,1.157395,0.94383814\H,0,2.5
 5227808,0.31573731,-0.590834\H,0,2.61288407,-0.57480275,0.9243979\H,0,

 Normal termination of Gaussian 16 at Wed Apr  9 18:35:48 2025.
