 Gaussian 16, Revision C.01,

 ----------------------------------------------------------------------
 #t hf aug-cc-pvdz symm=none int=(grid=ultrafine) guess=(read,tcheck) s
 table=(opt,rrhf)
 ----------------------------------------------------------------------
 -----
 title
 -----
 Symbolic Z-matrix:
 Charge =  0 Multiplicity = 1

 SCF Done:  E(RHF) =  -336.781470072     A.U. after   13 cycles
 Normal termination of Gaussian 16 at Wed Apr  9 16:05:40 2025.
 Gaussian 16:  ES64L-G16RevC.01  3-Jul-2019

 ----------------------------------------------------------------------
 #t hf aug-cc-pvdz iop(5/13=1,5/36=2,99/5=2) pseudo=read geom=check gue
 ss=(read,tcheck) scf=(maxcycle=1)
 ----------------------------------------------------------------------
 -----
 title
 -----
 Structure from the checkpoint file:  "Grambow2020_b97d3_007114_forward_mol2.chk"
 Charge =  0 Multiplicity = 1

                         Standard orientation:
 ---------------------------------------------------------------------
 Center     Atomic      Atomic             Coordinates (Angstroms)
 Number     Number       Type             X           Y           Z
 ---------------------------------------------------------------------
      1          7           0       -1.574840    0.838639    0.000801
      2          6           0       -0.742082   -0.227886   -0.000637
      3          8           0       -1.068542   -1.417012   -0.001081
      4          6           0        0.742145    0.227440   -0.000407
      5          8           0        1.067829    1.416840   -0.001043
      6          7           0        1.575422   -0.838307    0.001258
      7          1           0       -1.158676    1.765162    0.002064
      8          1           0       -2.579137    0.710697    0.003628
      9          1           0        2.579559   -0.709261    0.001197
     10          1           0        1.159507   -1.764864    0.001952
 ---------------------------------------------------------------------

 SCF Done:  E(RHF) =  -337.113546971     A.U. after    2 cycles

 The electronic state is 1-A.
 Alpha  occ. eigenvalues --  -20.54049 -20.54042 -15.54832 -15.54787 -11.38992
 Alpha  occ. eigenvalues --  -11.38971  -1.48356  -1.46793  -1.24398  -1.24105
 Alpha  occ. eigenvalues --   -0.94758  -0.84207  -0.80656  -0.76619  -0.69785
 Alpha  occ. eigenvalues --   -0.67242  -0.63843  -0.61694  -0.57345  -0.50992
 Alpha  occ. eigenvalues --   -0.46250  -0.44619  -0.42533
 Alpha virt. eigenvalues --    0.03092   0.03796   0.06440   0.06477   0.08095
 Alpha virt. eigenvalues --    0.11028   0.11081   0.11369   0.11689   0.11929
 Alpha virt. eigenvalues --    0.13503   0.15876   0.16497   0.16943   0.19353

 Mulliken charges:
               1
     1  N    0.710966
     2  C    0.416504
     3  O   -1.306657
     4  C    0.416582
     5  O   -1.307099
     6  N    0.711607
     7  H    0.088181
     8  H    0.090631
     9  H    0.090909
    10  H    0.088377
 Sum of Mulliken charges =  -0.00000

 Dipole moment (field-independent basis, Debye):
    X=              0.0035    Y=             -0.0006    Z=              0.0104  Tot=              0.0110

 Test job not archived.
 1\1\GINC-SE092\SP\RHF\Aug-CC-pVDZ\C2H4N2O2\OHZDE\09-Apr-2025\0\\#t hf
 aug-cc-pvdz iop(5/13=1,5/36=2,99/5=2) pseudo=read geom=check guess=(re
 ad,tcheck) scf=(maxcycle=1)\\title\\0,1\N,0,-1.74123125,0.15920684,0.3
 5543638\C,0,-0.49814749,0.59391718,0.04441756\O,0,-0.15448951,1.761500
 87,-0.15368874\C,0,0.49892191,-0.59294028,-0.0420248\O,0,0.15470359,-1
 .7602171,0.15727966\N,0,1.74138866,-0.15948293,-0.35596772\H,0,-1.8748
 3283,-0.83868783,0.48958902\H,0,-2.50963492,0.81201597,0.44700855\H,0,
 2.50851393,-0.81341232,-0.44999006\H,0,1.8748079,0.8380996,-0.49205984

 Normal termination of Gaussian 16 at Wed Apr  9 16:05:43 2025.
