 Gaussian 16, Revision C.01,

 ----------------------------------------------------------------------
 #t hf aug-cc-pvdz symm=none int=(grid=ultrafine) guess=(read,tcheck) s
 table=(opt,rrhf)
 ----------------------------------------------------------------------
 -----
 title
 -----
 Symbolic Z-matrix:
 Charge =  0 Multiplicity = 1

 SCF Done:  E(RHF) =  -272.078997910     A.U. after   12 cycles
 Normal termination of Gaussian 16 at Wed Apr  9 03:39:44 2025.
 Gaussian 16:  ES64L-G16RevC.01  3-Jul-2019

 ----------------------------------------------------------------------
 #t hf aug-cc-pvdz iop(5/13=1,5/36=2,99/5=2) pseudo=read geom=check gue
 ss=(read,tcheck) scf=(maxcycle=1)
 ----------------------------------------------------------------------
 -----
 title
 -----
 Structure from the checkpoint file:  "Grambow2020_wb97xd3_007413_forward_mol2.chk"
 Charge =  0 Multiplicity = 1

                         Standard orientation:
 ---------------------------------------------------------------------
 Center     Atomic      Atomic             Coordinates (Angstroms)
 Number     Number       Type             X           Y           Z
 ---------------------------------------------------------------------
      1          6           0       -2.409882   -0.528812   -0.438874
      2          6           0       -1.235142   -0.041016    0.399997
      3          6           0       -0.000856   -0.962051    0.341568
      4          6           0        1.235353   -0.043477    0.401739
      5          6           0        2.408151   -0.530030   -0.440620
      6          6           0        0.664037    1.282696   -0.036269
      7          6           0       -0.660912    1.283513   -0.038814
      8          1           0       -2.118422   -0.625723   -1.487924
      9          1           0       -2.759983   -1.504633   -0.094487
     10          1           0       -3.252562    0.164418   -0.387055
     11          1           0       -1.577013    0.056913    1.439138
     12          1           0       -0.002031   -1.724392    1.122592
     13          1           0       -0.000930   -1.485226   -0.621174
     14          1           0        1.578393    0.052361    1.440616
     15          1           0        2.118981   -0.606335   -1.491964
     16          1           0        2.746368   -1.515396   -0.111872
     17          1           0        3.257496    0.153534   -0.372752
     18          1           0        1.289648    2.134282   -0.280002
     19          1           0       -1.284444    2.135254   -0.287479
 ---------------------------------------------------------------------

 SCF Done:  E(RHF) =  -272.378657800     A.U. after    2 cycles

 The electronic state is 1-A.
 Alpha  occ. eigenvalues --  -11.23051 -11.23047 -11.22379 -11.22262 -11.22026
 Alpha  occ. eigenvalues --  -11.22025 -11.22014  -1.14527  -1.02947  -0.98565
 Alpha  occ. eigenvalues --   -0.92447  -0.85364  -0.77214  -0.72460  -0.67935
 Alpha  occ. eigenvalues --   -0.63497  -0.60251  -0.57090  -0.56782  -0.54113
 Alpha  occ. eigenvalues --   -0.51665  -0.50936  -0.48784  -0.47639  -0.47013
 Alpha  occ. eigenvalues --   -0.45518  -0.34915
 Alpha virt. eigenvalues --    0.03649   0.03678   0.03764   0.04159   0.05340
 Alpha virt. eigenvalues --    0.05617   0.06104   0.06215   0.07631   0.08615
 Alpha virt. eigenvalues --    0.09287   0.09506   0.12498   0.13153   0.14504

 Mulliken charges:
               1
     1  C   -0.286070
     2  C   -0.852805
     3  C   -0.178964
     4  C   -0.864404
     5  C   -0.282970
     6  C    0.522872
     7  C    0.517012
     8  H    0.236003
     9  H    0.178710
    10  H    0.126792
    11  H    0.182303
    12  H    0.131094
    13  H    0.145004
    14  H    0.181204
    15  H    0.237280
    16  H    0.177558
    17  H    0.127002
    18  H   -0.148979
    19  H   -0.148643
 Sum of Mulliken charges =  -0.00000

 Dipole moment (field-independent basis, Debye):
    X=              0.0000    Y=             -0.1339    Z=              0.2735  Tot=              0.3045

 Test job not archived.
 1\1\GINC-SE333\SP\RHF\Aug-CC-pVDZ\C7H12\OHZDE\09-Apr-2025\0\\#t hf aug
 -cc-pvdz iop(5/13=1,5/36=2,99/5=2) pseudo=read geom=check guess=(read,
 tcheck) scf=(maxcycle=1)\\title\\0,1\C,0,-2.44089053,-0.40335169,-0.05
 927329\C,0,-1.21716158,0.50221327,0.00477508\C,0,-0.09677817,-0.025759
 95,0.92192646\C,0,1.23673032,0.37323931,0.25998495\C,0,2.34516994,-0.6
 5787713,0.43295501\C,0,0.82097164,0.6038393,-1.17213059\C,0,-0.4951333
 1,0.67134551,-1.30927967\H,0,-2.16344316,-1.39901566,-0.4149757\H,0,-2
 .90034276,-0.51292898,0.92576285\H,0,-3.19840398,-0.003483,-0.73724234

 Normal termination of Gaussian 16 at Wed Apr  9 03:39:52 2025.
