 Gaussian 16, Revision C.01,

 ----------------------------------------------------------------------
 #t hf aug-cc-pvdz symm=none int=(grid=ultrafine) guess=(read,tcheck) s
 table=(opt,rrhf)
 ----------------------------------------------------------------------
 -----
 title
 -----
 Symbolic Z-matrix:
 Charge =  0 Multiplicity = 1

 SCF Done:  E(RHF) =  -358.583721989     A.U. after   15 cycles
 Normal termination of Gaussian 16 at Wed Apr  9 04:04:30 2025.
 Gaussian 16:  ES64L-G16RevC.01  3-Jul-2019

 ----------------------------------------------------------------------
 #t hf aug-cc-pvdz iop(5/13=1,5/36=2,99/5=2) pseudo=read geom=check gue
 ss=(read,tcheck) scf=(maxcycle=1)
 ----------------------------------------------------------------------
 -----
 title
 -----
 Structure from the checkpoint file:  "Grambow2020_wb97xd3_009147_reverse_mol2.chk"
 Charge =  0 Multiplicity = 1

                         Standard orientation:
 ---------------------------------------------------------------------
 Center     Atomic      Atomic             Coordinates (Angstroms)
 Number     Number       Type             X           Y           Z
 ---------------------------------------------------------------------
      1          6           0        1.761159   -1.152652   -0.756273
      2          6           0        1.149480   -0.192436    0.222037
      3          6           0        0.849591    1.186643   -0.332062
      4          8           0       -0.079644    1.859056    0.005423
      5          6           0       -2.075129   -0.658640   -0.504686
      6          8           0       -3.003214   -0.399541    0.071048
      7          7           0        0.875188   -0.398844    1.437407
      8          1           0        2.691022   -0.748807   -1.164043
      9          1           0        1.970323   -2.114169   -0.288890
     10          1           0        1.079330   -1.311428   -1.595947
     11          1           0        1.558513    1.540997   -1.110799
     12          1           0        1.126756   -1.348296    1.711968
 ---------------------------------------------------------------------

 SCF Done:  E(RHF) =  -358.932577051     A.U. after    2 cycles

 The electronic state is 1-A.
 Alpha  occ. eigenvalues --  -20.64490 -20.56411 -15.51655 -11.36255 -11.35322
 Alpha  occ. eigenvalues --  -11.31195 -11.26652  -1.59904  -1.49689  -1.24436
 Alpha  occ. eigenvalues --   -1.03372  -0.92208  -0.79978  -0.79121  -0.69338
 Alpha  occ. eigenvalues --   -0.68612  -0.65689  -0.62857  -0.62830  -0.62041
 Alpha  occ. eigenvalues --   -0.58910  -0.55795  -0.53833  -0.49674  -0.47422
 Alpha  occ. eigenvalues --   -0.42607
 Alpha virt. eigenvalues --    0.02768   0.03711   0.04336   0.05083   0.05876
 Alpha virt. eigenvalues --    0.06937   0.08753   0.09179   0.10330   0.10871
 Alpha virt. eigenvalues --    0.12342   0.13639   0.14234   0.14707   0.15226

 Mulliken charges:
               1
     1  C   -0.303705
     2  C   -1.194224
     3  C    1.035403
     4  O   -1.097259
     5  C    0.490231
     6  O   -0.532427
     7  N    0.765017
     8  H    0.216481
     9  H    0.063058
    10  H    0.285506
    11  H    0.124385
    12  H    0.147533
 Sum of Mulliken charges =  -0.00000

 Dipole moment (field-independent basis, Debye):
    X=              3.0504    Y=             -2.8820    Z=             -2.7366  Tot=              5.0100

 Test job not archived.
 1\1\GINC-SE364\SP\RHF\Aug-CC-pVDZ\C4H5N1O2\OHZDE\09-Apr-2025\0\\#t hf
 aug-cc-pvdz iop(5/13=1,5/36=2,99/5=2) pseudo=read geom=check guess=(re
 ad,tcheck) scf=(maxcycle=1)\\title\\0,1\C,0,-1.33683585,-0.43252685,-0
 .46475077\C,0,0.09965729,-0.03280376,-0.63785667\C,0,0.40350544,1.4216
 1011,-0.33590461\O,0,1.42846306,1.80871513,0.14276449\C,0,1.14916479,-
 0.40569612,2.50905691\O,0,2.18486323,-0.49239019,2.93303414\N,0,1.0626
 9236,-0.75809244,-1.01399985\H,0,-1.98691056,0.18042755,-1.09379884\H,
 0,-1.48907431,-1.48104053,-0.71803802\H,0,-1.64365596,-0.27383357,0.57

 Normal termination of Gaussian 16 at Wed Apr  9 04:04:34 2025.
