 Gaussian 16, Revision C.01,

 ----------------------------------------------------------------------
 #t hf aug-cc-pvdz symm=none int=(grid=ultrafine) guess=(read,tcheck) s
 table=(opt,rrhf)
 ----------------------------------------------------------------------
 -----
 title
 -----
 Symbolic Z-matrix:
 Charge =  0 Multiplicity = 1

 SCF Done:  E(RHF) =  -373.222228711     A.U. after   17 cycles
 Normal termination of Gaussian 16 at Wed Apr  9 04:05:25 2025.
 Gaussian 16:  ES64L-G16RevC.01  3-Jul-2019

 ----------------------------------------------------------------------
 #t hf aug-cc-pvdz iop(5/13=1,5/36=2,99/5=2) pseudo=read geom=check gue
 ss=(read,tcheck) scf=(maxcycle=1)
 ----------------------------------------------------------------------
 -----
 title
 -----
 Structure from the checkpoint file:  "Grambow2020_wb97xd3_009221_forward_mol1.chk"
 Charge =  0 Multiplicity = 1

                         Standard orientation:
 ---------------------------------------------------------------------
 Center     Atomic      Atomic             Coordinates (Angstroms)
 Number     Number       Type             X           Y           Z
 ---------------------------------------------------------------------
      1          7           0       -1.439837   -0.775422   -0.285067
      2          6           0       -0.309035   -0.136567   -0.132762
      3          8           0        0.762907   -0.851645    0.174210
      4          6           0        1.999919   -0.195836    0.173788
      5          8           0        2.193907    0.869870   -0.281122
      6          6           0       -1.431826    1.239422    0.275067
      7          7           0       -2.314576    0.349557    0.050470
      8          1           0       -1.653022   -1.742096   -0.047818
      9          1           0        2.725059   -0.864764    0.648742
 ---------------------------------------------------------------------

 SCF Done:  E(RHF) =  -373.580066537     A.U. after    2 cycles

 The electronic state is 1-A.
 Alpha  occ. eigenvalues --  -20.67259 -20.60437 -15.60331 -15.54579 -11.44839
 Alpha  occ. eigenvalues --  -11.40219 -11.30313  -1.62843  -1.53869  -1.38728
 Alpha  occ. eigenvalues --   -1.16001  -1.00211  -0.90101  -0.80376  -0.77924
 Alpha  occ. eigenvalues --   -0.76843  -0.72198  -0.68099  -0.63378  -0.61955
 Alpha  occ. eigenvalues --   -0.55134  -0.52132  -0.50532  -0.44457  -0.38850
 Alpha virt. eigenvalues --    0.02274   0.03245   0.03710   0.06582   0.08482
 Alpha virt. eigenvalues --    0.09219   0.09321   0.11097   0.12063   0.12802
 Alpha virt. eigenvalues --    0.13074   0.13371   0.14128   0.14874   0.16416

 Mulliken charges:
               1
     1  N    0.560521
     2  C    0.144486
     3  O   -1.177384
     4  C    1.326754
     5  O   -0.830130
     6  C   -0.202339
     7  N   -0.003061
     8  H    0.063537
     9  H    0.117617
 Sum of Mulliken charges =  -0.00000

 Dipole moment (field-independent basis, Debye):
    X=              3.4705    Y=             -5.2962    Z=              0.7355  Tot=              6.3746

 Test job not archived.
 1\1\GINC-SE292\SP\RHF\Aug-CC-pVDZ\C3H2N2O2\OHZDE\09-Apr-2025\0\\#t hf
 aug-cc-pvdz iop(5/13=1,5/36=2,99/5=2) pseudo=read geom=check guess=(re
 ad,tcheck) scf=(maxcycle=1)\\title\\0,1\N,0,-1.58906568,-0.37142986,-0
 .02101186\C,0,-0.3884923,0.13693748,-0.12216375\O,0,0.63949554,-0.6912
 3214,-0.0125898\C,0,1.91406239,-0.17993198,-0.28523529\O,0,2.12555162,
 0.85126188,-0.8069782\C,0,-1.24832186,1.63622649,0.45503062\N,0,-2.249
 55411,0.84948172,0.44423971\H,0,-1.85292118,-1.30472733,0.28806716\H,0
 ,2.64394258,-0.92088126,0.05702741\\Version=ES64L-G16RevC.01\State=1-A

 Normal termination of Gaussian 16 at Wed Apr  9 04:05:28 2025.
