 Gaussian 16, Revision C.01,

 ----------------------------------------------------------------------
 #t hf aug-cc-pvdz symm=none int=(grid=ultrafine) guess=(read,tcheck) s
 table=(opt,rrhf)
 ----------------------------------------------------------------------
 -----
 title
 -----
 Symbolic Z-matrix:
 Charge =  0 Multiplicity = 1

 SCF Done:  E(RHF) =  -309.059476620     A.U. after   12 cycles

 1\1\GINC-SE108\Stability\RHF\Aug-CC-pVDZ\C6H12O1\OHZDE\09-Apr-2025\0\\
 #t hf aug-cc-pvdz symm=none int=(grid=ultrafine) guess=(read,tcheck) s
 table=(opt,rrhf)\\title\\0,1\C,0,3.20994267,0.65150146,-0.26482607\C,0
 ,1.94329483,-0.15135011,-0.29511878\O,0,1.38228296,-0.50664161,0.96269
 67\C,0,0.65520838,0.38909221,0.12767551\C,0,-0.65882825,-0.10613709,-0
 .40495683\C,0,-1.75758382,-0.10038537,0.65333117\C,0,-3.09028845,-0.60
 880238,0.12105053\H,0,3.4024837,1.09761678,-1.24297111\H,0,4.05993657,
 0.01649126,-0.0079808\H,0,3.14046389,1.44832269,0.47648617\H,0,1.92015

 Normal termination of Gaussian 16 at Wed Apr  9 18:27:41 2025.
 Gaussian 16:  ES64L-G16RevC.01  3-Jul-2019

 ----------------------------------------------------------------------
 #t hf aug-cc-pvdz iop(5/13=1,5/36=2,99/5=2) pseudo=read geom=check gue
 ss=(read,tcheck) scf=(maxcycle=1)
 ----------------------------------------------------------------------
 -----
 title
 -----
 Structure from the checkpoint file:  "Grambow2020_wb97xd3_007574_reverse_mol2.chk"
 Charge =  0 Multiplicity = 1

                         Standard orientation:
 ---------------------------------------------------------------------
 Center     Atomic      Atomic             Coordinates (Angstroms)
 Number     Number       Type             X           Y           Z
 ---------------------------------------------------------------------
      1          6           0       -3.099446   -0.283136    0.218674
      2          6           0       -1.738767   -0.206788   -0.407912
      3          8           0       -1.065705    1.043315   -0.322503
      4          6           0       -0.515009   -0.069319    0.375361
      5          6           0        0.822744   -0.562810   -0.096366
      6          6           0        1.967385    0.347532    0.337621
      7          6           0        3.325421   -0.143696   -0.144402
      8          1           0       -3.404944   -1.324451    0.341927
      9          1           0       -3.839325    0.215638   -0.410214
     10          1           0       -3.098335    0.200073    1.196326
     11          1           0       -1.645322   -0.679672   -1.385245
     12          1           0        1.778077    1.354967   -0.043273
     13          1           0       -0.627482    0.005376    1.457976
     14          1           0        0.805750   -0.642946   -1.187691
     15          1           0        0.981563   -1.573851    0.295897
     16          1           0        1.970453    0.427386    1.429874
     17          1           0        3.359775   -0.196568   -1.235361
     18          1           0        3.543215   -1.143143    0.240908
     19          1           0        4.128248    0.519968    0.181047
 ---------------------------------------------------------------------

 SCF Done:  E(RHF) =  -309.392422620     A.U. after    2 cycles

 The electronic state is 1-A.
 Alpha  occ. eigenvalues --  -20.54668 -11.28682 -11.28370 -11.23219 -11.23126
 Alpha  occ. eigenvalues --  -11.22653 -11.22233  -1.49019  -1.07671  -1.01713
 Alpha  occ. eigenvalues --   -0.97402  -0.87245  -0.81295  -0.80096  -0.68387
 Alpha  occ. eigenvalues --   -0.66466  -0.62655  -0.59433  -0.58324  -0.55837
 Alpha  occ. eigenvalues --   -0.55478  -0.53642  -0.50674  -0.49964  -0.49227
 Alpha  occ. eigenvalues --   -0.47643  -0.42840  -0.41972
 Alpha virt. eigenvalues --    0.03463   0.03552   0.03789   0.04373   0.05535
 Alpha virt. eigenvalues --    0.05743   0.05815   0.07270   0.08097   0.08456
 Alpha virt. eigenvalues --    0.08799   0.10673   0.11367   0.13205   0.14021

 Mulliken charges:
               1
     1  C   -0.596276
     2  C    0.682056
     3  O   -1.430453
     4  C    1.509499
     5  C   -0.870162
     6  C   -0.225415
     7  C   -0.406197
     8  H    0.248047
     9  H    0.213774
    10  H    0.173572
    11  H   -0.132505
    12  H    0.130179
    13  H   -0.160386
    14  H    0.137297
    15  H    0.156103
    16  H    0.126293
    17  H    0.166045
    18  H    0.161427
    19  H    0.117103
 Sum of Mulliken charges =  -0.00000

 Dipole moment (field-independent basis, Debye):
    X=             -0.0466    Y=             -1.8590    Z=              0.4981  Tot=              1.9251

 Test job not archived.
 1\1\GINC-SE108\SP\RHF\Aug-CC-pVDZ\C6H12O1\OHZDE\09-Apr-2025\0\\#t hf a
 ug-cc-pvdz iop(5/13=1,5/36=2,99/5=2) pseudo=read geom=check guess=(rea
 d,tcheck) scf=(maxcycle=1)\\title\\0,1\C,0,3.20994267,0.65150146,-0.26
 482607\C,0,1.94329483,-0.15135011,-0.29511878\O,0,1.38228296,-0.506641
 61,0.9626967\C,0,0.65520838,0.38909221,0.12767551\C,0,-0.65882825,-0.1
 0613709,-0.40495683\C,0,-1.75758382,-0.10038537,0.65333117\C,0,-3.0902
 8845,-0.60880238,0.12105053\H,0,3.4024837,1.09761678,-1.24297111\H,0,4
 .05993657,0.01649126,-0.0079808\H,0,3.14046389,1.44832269,0.47648617\H

 Normal termination of Gaussian 16 at Wed Apr  9 18:27:48 2025.
