 Gaussian 16, Revision C.01,

 ----------------------------------------------------------------------
 #t hf aug-cc-pvdz symm=none int=(grid=ultrafine) guess=(read,tcheck) s
 table=(opt,rrhf)
 ----------------------------------------------------------------------
 -----
 title
 -----
 Symbolic Z-matrix:
 Charge =  0 Multiplicity = 1

 SCF Done:  E(RHF) =  -352.257720617     A.U. after   18 cycles
 Normal termination of Gaussian 16 at Wed Apr  9 03:51:27 2025.
 Gaussian 16:  ES64L-G16RevC.01  3-Jul-2019

 ----------------------------------------------------------------------
 #t hf aug-cc-pvdz iop(5/13=1,5/36=2,99/5=2) pseudo=read geom=check gue
 ss=(read,tcheck) scf=(maxcycle=1)
 ----------------------------------------------------------------------
 -----
 title
 -----
 Structure from the checkpoint file:  "Grambow2020_wb97xd3_008227_reverse_mol1.chk"
 Charge =  0 Multiplicity = 1

                         Standard orientation:
 ---------------------------------------------------------------------
 Center     Atomic      Atomic             Coordinates (Angstroms)
 Number     Number       Type             X           Y           Z
 ---------------------------------------------------------------------
      1          7           0       -2.705561   -0.191238    0.001080
      2          6           0       -1.556132   -0.238430   -0.000333
      3          6           0       -0.149601   -0.262621   -0.001624
      4          6           0        0.700490    0.905883    0.000287
      5          8           0        0.689826    2.059447   -0.000221
      6          7           0        1.838573   -1.180380    0.001080
      7          7           0        0.666590   -1.344650   -0.000962
      8          1           0        1.915638    0.109315    0.003389
 ---------------------------------------------------------------------

 SCF Done:  E(RHF) =  -352.593398981     A.U. after    2 cycles

 The electronic state is 1-A.
 Alpha  occ. eigenvalues --  -20.67398 -15.67533 -15.66672 -15.53847 -11.47202
 Alpha  occ. eigenvalues --  -11.35149 -11.31168  -1.62011  -1.50912  -1.26098
 Alpha  occ. eigenvalues --   -1.17011  -0.99350  -0.90669  -0.82906  -0.78609
 Alpha  occ. eigenvalues --   -0.73131  -0.70509  -0.66655  -0.65694  -0.62849
 Alpha  occ. eigenvalues --   -0.56585  -0.53316  -0.48862  -0.40890
 Alpha virt. eigenvalues --   -0.04147   0.00495   0.03252   0.06621   0.07333
 Alpha virt. eigenvalues --    0.08644   0.09343   0.09832   0.10706   0.12553
 Alpha virt. eigenvalues --    0.12622   0.13004   0.14082   0.14154   0.15193

 Mulliken charges:
               1
     1  N    0.915816
     2  C   -1.846559
     3  C    0.533129
     4  C    0.861403
     5  O   -0.961903
     6  N    0.418489
     7  N   -0.281274
     8  H    0.360899
 Sum of Mulliken charges =  -0.00000

 Dipole moment (field-independent basis, Debye):
    X=              3.6991    Y=              1.3190    Z=              0.0006  Tot=              3.9272

 Test job not archived.
 1\1\GINC-SE094\SP\RHF\Aug-CC-pVDZ\C3H1N3O1\OHZDE\09-Apr-2025\0\\#t hf
 aug-cc-pvdz iop(5/13=1,5/36=2,99/5=2) pseudo=read geom=check guess=(re
 ad,tcheck) scf=(maxcycle=1)\\title\\0,1\N,0,2.84319419,-0.27260251,0.3
 6672313\C,0,1.69471517,-0.29174654,0.30312615\C,0,0.2905218,-0.2822187
 5,0.21906588\C,0,-0.51745929,0.88764106,-0.03911268\O,0,-0.46732262,2.
 02295283,-0.23754772\N,0,-1.72435848,-1.13925162,0.24868599\N,0,-0.560
 82589,-1.32818066,0.35370597\H,0,-1.75691889,0.13163019,0.01834228\\Ve
 rsion=ES64L-G16RevC.01\State=1-A\HF=-352.593399\RMSD=6.836e-02\Dipole=

 Normal termination of Gaussian 16 at Wed Apr  9 03:51:30 2025.
