 Gaussian 16, Revision C.01,

 ----------------------------------------------------------------------
 #t hf aug-cc-pvdz symm=none int=(grid=ultrafine) guess=(read,tcheck) s
 table=(opt,rrhf)
 ----------------------------------------------------------------------
 -----
 title
 -----
 Symbolic Z-matrix:
 Charge =  0 Multiplicity = 1

 SCF Done:  E(RHF) =  -306.476683077     A.U. after   16 cycles
 Normal termination of Gaussian 16 at Wed Apr  9 18:59:49 2025.
 Gaussian 16:  ES64L-G16RevC.01  3-Jul-2019

 ----------------------------------------------------------------------
 #t hf aug-cc-pvdz iop(5/13=1,5/36=2,99/5=2) pseudo=read geom=check gue
 ss=(read,tcheck) scf=(maxcycle=1)
 ----------------------------------------------------------------------
 -----
 title
 -----
 Structure from the checkpoint file:  "Grambow2020_wb97xd3_008431_forward_mol1.chk"
 Charge =  0 Multiplicity = 1

                         Standard orientation:
 ---------------------------------------------------------------------
 Center     Atomic      Atomic             Coordinates (Angstroms)
 Number     Number       Type             X           Y           Z
 ---------------------------------------------------------------------
      1          6           0       -0.473818   -0.678591    1.023163
      2          6           0       -1.976487   -0.022599   -0.111565
      3          6           0       -0.131903    0.985671    0.184077
      4          8           0        1.222471    0.882198    0.324271
      5          6           0        1.547968   -0.391387   -0.283865
      6          6           0        0.160463   -0.989783   -0.368375
      7          6           0       -0.697165    0.180550   -0.920140
      8          1           0        0.198057   -0.483366    1.860707
      9          1           0       -1.251577   -1.358179    1.345410
     10          1           0       -2.390882    0.971033    0.145697
     11          1           0       -0.518245    1.935839    0.530163
     12          1           0        2.233107   -0.925617    0.374521
     13          1           0        2.025388   -0.218645   -1.252313
     14          1           0        0.055858   -1.991401   -0.776940
     15          1           0       -0.705819    0.509583   -1.961186
 ---------------------------------------------------------------------

 SCF Done:  E(RHF) =  -306.792916812     A.U. after    2 cycles

 The electronic state is 1-A.
 Alpha  occ. eigenvalues --  -20.57511 -11.34869 -11.29798 -11.25362 -11.25144
 Alpha  occ. eigenvalues --  -11.25136 -11.25071  -1.51403  -1.17148  -1.02249
 Alpha  occ. eigenvalues --   -0.92185  -0.86377  -0.81809  -0.75898  -0.71980
 Alpha  occ. eigenvalues --   -0.67407  -0.65512  -0.61191  -0.57185  -0.54417
 Alpha  occ. eigenvalues --   -0.52437  -0.50300  -0.48355  -0.46231  -0.37380
 Alpha  occ. eigenvalues --   -0.31417
 Alpha virt. eigenvalues --    0.03224   0.03447   0.03905   0.04265   0.05612
 Alpha virt. eigenvalues --    0.06093   0.06329   0.07736   0.08722   0.10727
 Alpha virt. eigenvalues --    0.12131   0.12168   0.12842   0.13118   0.13945

 Mulliken charges:
               1
     1  C    0.062928
     2  C   -0.288755
     3  C    1.282711
     4  O   -1.475158
     5  C    0.610875
     6  C   -0.146625
     7  C    0.104607
     8  H   -0.029155
     9  H   -0.020957
    10  H    0.031387
    11  H   -0.065887
    12  H    0.060381
    13  H    0.036666
    14  H   -0.063329
    15  H   -0.099689
 Sum of Mulliken charges =  -0.00000

 Dipole moment (field-independent basis, Debye):
    X=              1.8447    Y=              0.3538    Z=             -0.7032  Tot=              2.0056

 Test job not archived.
 1\1\GINC-SE362\SP\RHF\Aug-CC-pVDZ\C6H8O1\OHZDE\09-Apr-2025\0\\#t hf au
 g-cc-pvdz iop(5/13=1,5/36=2,99/5=2) pseudo=read geom=check guess=(read
 ,tcheck) scf=(maxcycle=1)\\title\\0,1\C,0,0.66055395,0.905889,0.524902
 47\C,0,1.64851452,0.09025301,-1.00304372\C,0,0.41528334,-0.966216,0.36
 425942\O,0,-0.7303817,-0.97241429,1.10729712\C,0,-1.58561389,-0.004018
 38,0.45263505\C,0,-0.56001248,0.68415655,-0.42197708\C,0,0.2403279,-0.
 49975345,-1.02816266\H,0,0.47930398,0.91642532,1.60102769\H,0,1.307936
 07,1.73375767,0.26776034\H,0,2.36319564,-0.71716424,-0.7530061\H,0,1.1

 Normal termination of Gaussian 16 at Wed Apr  9 18:59:54 2025.
