 Gaussian 16, Revision C.01,

 ----------------------------------------------------------------------
 #t hf aug-cc-pvdz symm=none int=(grid=ultrafine) guess=(read,tcheck) s
 table=(opt,rrhf)
 ----------------------------------------------------------------------
 -----
 title
 -----
 Symbolic Z-matrix:
 Charge =  0 Multiplicity = 1

 SCF Done:  E(RHF) =  -320.571901614     A.U. after   15 cycles
 Normal termination of Gaussian 16 at Wed Apr  9 16:06:43 2025.
 Gaussian 16:  ES64L-G16RevC.01  3-Jul-2019

 ----------------------------------------------------------------------
 #t hf aug-cc-pvdz iop(5/13=1,5/36=2,99/5=2) pseudo=read geom=check gue
 ss=(read,tcheck) scf=(maxcycle=1)
 ----------------------------------------------------------------------
 -----
 title
 -----
 Structure from the checkpoint file:  "Grambow2020_b97d3_007126_reverse_mol1.chk"
 Charge =  0 Multiplicity = 1

                         Standard orientation:
 ---------------------------------------------------------------------
 Center     Atomic      Atomic             Coordinates (Angstroms)
 Number     Number       Type             X           Y           Z
 ---------------------------------------------------------------------
      1          6           0        2.091189   -0.697985    0.010631
      2          7           0        0.643922   -0.608169   -0.044489
      3          6           0       -0.038226    0.571623   -0.013926
      4          8           0        0.452409    1.699947    0.029827
      5          6           0       -1.564910    0.371849   -0.053568
      6          8           0       -1.968412   -0.895143    0.052080
      7          1           0        2.487513    0.317464   -0.092805
      8          1           0        2.429526   -1.118247    0.969972
      9          1           0        2.471584   -1.325732   -0.807327
     10          1           0        0.082258   -1.456924   -0.020505
     11          1           0       -2.778631   -0.070734   -0.051999
 ---------------------------------------------------------------------

 SCF Done:  E(RHF) =  -320.890441137     A.U. after    2 cycles

 The electronic state is 1-A.
 Alpha  occ. eigenvalues --  -20.62950 -20.53360 -15.54531 -11.37884 -11.36698
 Alpha  occ. eigenvalues --  -11.28403  -1.53777  -1.46504  -1.25396  -1.00662
 Alpha  occ. eigenvalues --   -0.89755  -0.82106  -0.78388  -0.68711  -0.66309
 Alpha  occ. eigenvalues --   -0.65508  -0.61262  -0.58719  -0.57019  -0.54128
 Alpha  occ. eigenvalues --   -0.46291  -0.42595  -0.38967
 Alpha virt. eigenvalues --    0.03160   0.03690   0.03947   0.05159   0.05517
 Alpha virt. eigenvalues --    0.07038   0.09763   0.10805   0.11266   0.12176
 Alpha virt. eigenvalues --    0.12747   0.13561   0.14569   0.15210   0.17197

 Mulliken charges:
               1
     1  C   -0.468673
     2  N    0.449355
     3  C    0.677816
     4  O   -1.142208
     5  C    0.384462
     6  O   -1.112555
     7  H    0.089744
     8  H    0.167371
     9  H    0.140282
    10  H    0.153904
    11  H    0.660501
 Sum of Mulliken charges =  -0.00000

 Dipole moment (field-independent basis, Debye):
    X=             -0.0637    Y=             -3.3723    Z=             -0.0379  Tot=              3.3731

 Test job not archived.
 1\1\GINC-SE163\SP\RHF\Aug-CC-pVDZ\C3H5N1O2\OHZDE\09-Apr-2025\0\\#t hf
 aug-cc-pvdz iop(5/13=1,5/36=2,99/5=2) pseudo=read geom=check guess=(re
 ad,tcheck) scf=(maxcycle=1)\\title\\0,1\C,0,-0.91954614,1.48864888,-0.
 06016987\N,0,0.01911371,0.38526871,-0.14476695\C,0,-0.26610814,-0.8790
 1715,0.27760754\O,0,-1.33493076,-1.27036831,0.74687933\C,0,0.921969,-1
 .84287292,0.09956456\O,0,2.0633142,-1.26393274,-0.27647315\H,0,-1.8907
 321,1.07244859,0.22703101\H,0,-0.60649178,2.2227744,0.69777612\H,0,-1.
 00986774,1.99544519,-1.03115964\H,0,0.97425578,0.55506012,-0.45347457\

 Normal termination of Gaussian 16 at Wed Apr  9 16:06:48 2025.
