 Gaussian 16, Revision C.01,

 ----------------------------------------------------------------------
 #t hf aug-cc-pvdz symm=none int=(grid=ultrafine) guess=(read,tcheck) s
 table=(opt,rrhf)
 ----------------------------------------------------------------------
 -----
 title
 -----
 Symbolic Z-matrix:
 Charge =  0 Multiplicity = 1

 SCF Done:  E(RHF) =  -273.135878400     A.U. after   14 cycles
 Normal termination of Gaussian 16 at Wed Apr  9 03:46:10 2025.
 Gaussian 16:  ES64L-G16RevC.01  3-Jul-2019

 ----------------------------------------------------------------------
 #t hf aug-cc-pvdz iop(5/13=1,5/36=2,99/5=2) pseudo=read geom=check gue
 ss=(read,tcheck) scf=(maxcycle=1)
 ----------------------------------------------------------------------
 -----
 title
 -----
 Structure from the checkpoint file:  "Grambow2020_wb97xd3_007784_reverse_mol2.chk"
 Charge =  0 Multiplicity = 1

                         Standard orientation:
 ---------------------------------------------------------------------
 Center     Atomic      Atomic             Coordinates (Angstroms)
 Number     Number       Type             X           Y           Z
 ---------------------------------------------------------------------
      1          6           0       -1.732891   -0.857714   -0.932035
      2          6           0       -0.776866   -0.069158   -0.034099
      3          6           0       -0.590706   -0.806769    1.298229
      4          6           0       -1.382919    1.342135    0.233526
      5          6           0        0.415194    0.382384   -0.794158
      6          6           0        2.519253   -0.519955   -0.167991
      7          6           0        1.612095    0.721012    0.002346
      8          1           0       -1.914097   -0.316364   -1.860861
      9          1           0       -1.301579   -1.826837   -1.191926
     10          1           0       -2.688408   -1.037865   -0.430341
     11          1           0       -1.555373   -0.924973    1.797279
     12          1           0       -0.186952   -1.807813    1.132099
     13          1           0        0.072180   -0.281662    1.986619
     14          1           0       -1.425924    1.945927   -0.675023
     15          1           0       -2.403881    1.196670    0.591588
     16          1           0       -0.821653    1.886487    0.993821
     17          1           0        2.734331   -0.702509   -1.220267
     18          1           0        2.057242   -1.416493    0.247724
     19          1           0        3.457491   -0.351577    0.360346
     20          1           0        2.132859    1.573179   -0.439690
     21          1           0        1.464801    0.912221    1.073722
 ---------------------------------------------------------------------

 SCF Done:  E(RHF) =  -273.437243328     A.U. after    2 cycles

 The electronic state is 1-A.
 Alpha  occ. eigenvalues --  -11.24972 -11.24225 -11.23788 -11.23703 -11.23101
 Alpha  occ. eigenvalues --  -11.22680 -11.21528  -1.12740  -1.04873  -0.94550
 Alpha  occ. eigenvalues --   -0.93317  -0.89825  -0.81666  -0.69803  -0.65049
 Alpha  occ. eigenvalues --   -0.62763  -0.60798  -0.60016  -0.55977  -0.54732
 Alpha  occ. eigenvalues --   -0.54124  -0.52836  -0.52163  -0.50901  -0.49162
 Alpha  occ. eigenvalues --   -0.48036  -0.45288  -0.32959
 Alpha virt. eigenvalues --    0.03285   0.03486   0.03527   0.04286   0.05737
 Alpha virt. eigenvalues --    0.05823   0.06079   0.06375   0.06832   0.08822
 Alpha virt. eigenvalues --    0.09069   0.09569   0.09698   0.09963   0.10420

 Mulliken charges:
               1
     1  C    0.090888
     2  C   -1.921274
     3  C    0.036194
     4  C    0.068041
     5  C   -0.160405
     6  C   -0.377665
     7  C   -0.112075
     8  H    0.235032
     9  H    0.188692
    10  H    0.195770
    11  H    0.167397
    12  H    0.203404
    13  H    0.156190
    14  H    0.209992
    15  H    0.189934
    16  H    0.187619
    17  H    0.212298
    18  H    0.111215
    19  H    0.130281
    20  H    0.094965
    21  H    0.093505
 Sum of Mulliken charges =  -0.00000

 Dipole moment (field-independent basis, Debye):
    X=              0.0747    Y=             -0.0959    Z=              2.0101  Tot=              2.0137

 Test job not archived.
 1\1\GINC-SE106\SP\RHF\Aug-CC-pVDZ\C7H14\OHZDE\09-Apr-2025\0\\#t hf aug
 -cc-pvdz iop(5/13=1,5/36=2,99/5=2) pseudo=read geom=check guess=(read,
 tcheck) scf=(maxcycle=1)\\title\\0,1\C,0,-1.085297,1.65436679,0.850727
 83\C,0,-0.62449835,0.29897494,0.30973616\C,0,-0.96112676,0.19572527,-1
 .18352995\C,0,-1.36151282,-0.83314734,1.08805422\C,0,0.74826392,-0.019
 97747,0.77490319\C,0,2.45632443,-0.15775537,-0.86732375\C,0,1.49403187
 ,-1.01938913,-0.01671845\H,0,-0.89890364,1.717938,1.9230288\H,0,-0.534
 236,2.46543907,0.3698261\H,0,-2.15133805,1.81346363,0.66255644\H,0,-2.

 Normal termination of Gaussian 16 at Wed Apr  9 03:46:20 2025.
