 Gaussian 16, Revision C.01,

 ----------------------------------------------------------------------
 #t hf aug-cc-pvdz symm=none int=(grid=ultrafine) guess=(read,tcheck) s
 table=(opt,rrhf)
 ----------------------------------------------------------------------
 -----
 title
 -----
 Symbolic Z-matrix:
 Charge =  0 Multiplicity = 1

 SCF Done:  E(RHF) =  -295.726217233     A.U. after   16 cycles
 Normal termination of Gaussian 16 at Wed Apr  9 15:49:38 2025.
 Gaussian 16:  ES64L-G16RevC.01  3-Jul-2019

 ----------------------------------------------------------------------
 #t hf aug-cc-pvdz iop(5/13=1,5/36=2,99/5=2) pseudo=read geom=check gue
 ss=(read,tcheck) scf=(maxcycle=1)
 ----------------------------------------------------------------------
 -----
 title
 -----
 Structure from the checkpoint file:  "Grambow2020_b97d3_006789_reverse_mol2.chk"
 Charge =  0 Multiplicity = 1

                         Standard orientation:
 ---------------------------------------------------------------------
 Center     Atomic      Atomic             Coordinates (Angstroms)
 Number     Number       Type             X           Y           Z
 ---------------------------------------------------------------------
      1          7           0       -0.347864    1.539269   -0.029036
      2          6           0        0.019403    0.172481   -0.024447
      3          7           0       -0.845534   -0.938399   -0.023981
      4          7           0       -2.093709   -0.748796    0.025907
      5          6           0        2.455677   -0.406450    0.171736
      6          7           0        1.294809   -0.117893   -0.038292
      7          1           0       -1.043776    1.740953   -0.750572
      8          1           0       -0.722645    1.843129    0.873068
      9          1           0       -2.318113    0.286976    0.076729
     10          1           0        3.180135   -0.606518   -0.625145
 ---------------------------------------------------------------------

 SCF Done:  E(RHF) =  -296.014956004     A.U. after    2 cycles

 The electronic state is 1-A.
 Alpha  occ. eigenvalues --  -15.60860 -15.59100 -15.57088 -15.53789 -11.35339
 Alpha  occ. eigenvalues --  -11.30751  -1.37645  -1.31599  -1.21850  -1.08134
 Alpha  occ. eigenvalues --   -0.95676  -0.82415  -0.77549  -0.74229  -0.72918
 Alpha  occ. eigenvalues --   -0.62506  -0.61888  -0.57363  -0.55923  -0.51334
 Alpha  occ. eigenvalues --   -0.46297  -0.32985
 Alpha virt. eigenvalues --    0.01088   0.02413   0.04409   0.05462   0.05965
 Alpha virt. eigenvalues --    0.07220   0.08820   0.10031   0.12234   0.12867
 Alpha virt. eigenvalues --    0.13446   0.14347   0.15285   0.15820   0.16054

 Mulliken charges:
               1
     1  N    0.284204
     2  C   -1.876455
     3  N   -0.276158
     4  N    0.320005
     5  C   -0.189186
     6  N    1.002502
     7  H    0.241489
     8  H    0.261477
     9  H    0.118596
    10  H    0.113525
 Sum of Mulliken charges =  -0.00000

 Dipole moment (field-independent basis, Debye):
    X=              0.5743    Y=              3.0119    Z=             -0.9083  Tot=              3.1979

 Test job not archived.
 1\1\GINC-SE097\SP\RHF\Aug-CC-pVDZ\C2H4N4\OHZDE\09-Apr-2025\0\\#t hf au
 g-cc-pvdz iop(5/13=1,5/36=2,99/5=2) pseudo=read geom=check guess=(read
 ,tcheck) scf=(maxcycle=1)\\title\\0,1\N,0,1.32096856,-0.14876449,-0.14
 166833\C,0,-0.07520825,0.04413837,-0.0132349\N,0,-1.05009437,-0.944052
 72,0.22180915\N,0,-0.69788753,-2.15578549,0.2853237\C,0,-1.00090385,2.
 34684527,-0.40015453\N,0,-0.53434642,1.2657735,-0.10249776\H,0,1.69518
 536,-0.71874404,0.62034766\H,0,1.57105884,-0.59329471,-1.02847847\H,0,
 0.34672091,-2.25568727,0.1285573\H,0,-1.20848525,3.13521658,0.3314642\

 Normal termination of Gaussian 16 at Wed Apr  9 15:49:41 2025.
