 Gaussian 16, Revision C.01,

 ----------------------------------------------------------------------
 #t hf aug-cc-pvdz symm=none int=(grid=ultrafine) guess=(read,tcheck) s
 table=(opt,rrhf)
 ----------------------------------------------------------------------
 -----
 title
 -----
 Symbolic Z-matrix:
 Charge =  0 Multiplicity = 1

 SCF Done:  E(RHF) =  -336.270159919     A.U. after   17 cycles
 Normal termination of Gaussian 16 at Wed Apr  9 03:46:43 2025.
 Gaussian 16:  ES64L-G16RevC.01  3-Jul-2019

 ----------------------------------------------------------------------
 #t hf aug-cc-pvdz iop(5/13=1,5/36=2,99/5=2) pseudo=read geom=check gue
 ss=(read,tcheck) scf=(maxcycle=1)
 ----------------------------------------------------------------------
 -----
 title
 -----
 Structure from the checkpoint file:  "Grambow2020_wb97xd3_007920_forward_mol1.chk"
 Charge =  0 Multiplicity = 1

                         Standard orientation:
 ---------------------------------------------------------------------
 Center     Atomic      Atomic             Coordinates (Angstroms)
 Number     Number       Type             X           Y           Z
 ---------------------------------------------------------------------
      1          7           0        2.148630   -0.972179    0.006720
      2          6           0        1.399733    0.154338   -0.000715
      3          8           0        1.845632    1.276282   -0.004530
      4          6           0       -0.045733   -0.086817   -0.002510
      5          6           0       -1.239384   -0.239633   -0.004401
      6          6           0       -2.688130   -0.612990   -0.011005
      7          7           0       -2.749143    0.581162    0.013376
      8          1           0        1.730521   -1.883679    0.003409
      9          1           0        3.149103   -0.878839    0.003938
 ---------------------------------------------------------------------

 SCF Done:  E(RHF) =  -336.599288577     A.U. after    2 cycles

 The electronic state is 1-A.
 Alpha  occ. eigenvalues --  -20.54063 -15.63006 -15.55636 -11.41042 -11.34195
 Alpha  occ. eigenvalues --  -11.33392 -11.29734  -1.49512  -1.37339  -1.25851
 Alpha  occ. eigenvalues --   -1.08939  -0.93419  -0.82910  -0.80614  -0.75048
 Alpha  occ. eigenvalues --   -0.70589  -0.65206  -0.64081  -0.61950  -0.58539
 Alpha  occ. eigenvalues --   -0.47555  -0.46956  -0.44143  -0.42270
 Alpha virt. eigenvalues --    0.01353   0.02613   0.05139   0.05799   0.06817
 Alpha virt. eigenvalues --    0.08728   0.09655   0.10030   0.10048   0.10758
 Alpha virt. eigenvalues --    0.11443   0.13047   0.14957   0.15468   0.16189

 Mulliken charges:
               1
     1  N    0.378829
     2  C    0.473370
     3  O   -1.179793
     4  C    0.842969
     5  C   -0.361365
     6  C   -0.797325
     7  N    0.418527
     8  H    0.050648
     9  H    0.174139
 Sum of Mulliken charges =  -0.00000

 Dipole moment (field-independent basis, Debye):
    X=              1.3133    Y=             -3.9423    Z=             -0.0094  Tot=              4.1553

 Test job not archived.
 1\1\GINC-SE207\SP\RHF\Aug-CC-pVDZ\C4H2N2O1\OHZDE\09-Apr-2025\0\\#t hf
 aug-cc-pvdz iop(5/13=1,5/36=2,99/5=2) pseudo=read geom=check guess=(re
 ad,tcheck) scf=(maxcycle=1)\\title\\0,1\N,0,-1.84902211,0.35119828,0.5
 0610491\C,0,-0.9200334,-0.61487017,0.68950238\O,0,-1.16910953,-1.77990
 871,0.88506493\C,0,0.46331779,-0.13443204,0.63427625\C,0,1.61353672,0.
 21730234,0.59635481\C,0,2.97781651,0.82569633,0.51329517\N,0,3.2398064
 1,-0.31792972,0.74523502\H,0,-1.59149852,1.30613599,0.34047282\H,0,-2.
 81888487,0.0893317,0.52752572\\Version=ES64L-G16RevC.01\State=1-A\HF=-

 Normal termination of Gaussian 16 at Wed Apr  9 03:46:46 2025.
