 Gaussian 16, Revision C.01,

 ----------------------------------------------------------------------
 #t hf aug-cc-pvdz symm=none int=(grid=ultrafine) guess=(read,tcheck) s
 table=(opt,rrhf)
 ----------------------------------------------------------------------
 -----
 title
 -----
 Symbolic Z-matrix:
 Charge =  0 Multiplicity = 1

 SCF Done:  E(RHF) =  -342.469343328     A.U. after   13 cycles
 Normal termination of Gaussian 16 at Wed Apr  9 19:04:48 2025.
 Gaussian 16:  ES64L-G16RevC.01  3-Jul-2019

 ----------------------------------------------------------------------
 #t hf aug-cc-pvdz iop(5/13=1,5/36=2,99/5=2) pseudo=read geom=check gue
 ss=(read,tcheck) scf=(maxcycle=1)
 ----------------------------------------------------------------------
 -----
 title
 -----
 Structure from the checkpoint file:  "Grambow2020_wb97xd3_008531_reverse_mol2.chk"
 Charge =  0 Multiplicity = 1

                         Standard orientation:
 ---------------------------------------------------------------------
 Center     Atomic      Atomic             Coordinates (Angstroms)
 Number     Number       Type             X           Y           Z
 ---------------------------------------------------------------------
      1          8           0        1.707731    0.176776    0.698761
      2          6           0        0.525535   -0.010993    0.013500
      3          6           0        1.758726   -0.477776   -0.586706
      4          8           0       -0.192408    1.122566   -0.424825
      5          6           0       -1.371919    0.614701    0.210060
      6          6           0       -1.785225   -0.662670   -0.421835
      7          6           0       -0.689048   -0.656920    0.617582
      8          1           0        2.022914   -1.530553   -0.560769
      9          1           0        2.212190    0.114971   -1.374795
     10          1           0       -2.000947    1.306902    0.750707
     11          1           0       -1.547373   -0.837725   -1.464564
     12          1           0       -2.726726   -1.076541   -0.081175
     13          1           0       -0.711058   -1.209843    1.543510
 ---------------------------------------------------------------------

 SCF Done:  E(RHF) =  -342.816546761     A.U. after    2 cycles

 The electronic state is 1-A.
 Alpha  occ. eigenvalues --  -20.56606 -20.56072 -11.35824 -11.30879 -11.29542
 Alpha  occ. eigenvalues --  -11.25791 -11.25736  -1.54117  -1.47831  -1.15528
 Alpha  occ. eigenvalues --   -0.95525  -0.91407  -0.84256  -0.76332  -0.73967
 Alpha  occ. eigenvalues --   -0.71948  -0.66715  -0.62844  -0.59082  -0.57234
 Alpha  occ. eigenvalues --   -0.54942  -0.52108  -0.48677  -0.44537  -0.41270
 Alpha  occ. eigenvalues --   -0.40405
 Alpha virt. eigenvalues --    0.03273   0.03662   0.04260   0.04618   0.05951
 Alpha virt. eigenvalues --    0.06202   0.09246   0.10223   0.11099   0.12034
 Alpha virt. eigenvalues --    0.12930   0.13410   0.14169   0.15012   0.15479

 Mulliken charges:
               1
     1  O   -1.396864
     2  C    2.151909
     3  C    0.363543
     4  O   -1.573006
     5  C    1.217960
     6  C    0.082356
     7  C   -0.316091
     8  H    0.005200
     9  H    0.009448
    10  H   -0.129712
    11  H   -0.109911
    12  H   -0.083769
    13  H   -0.221064
 Sum of Mulliken charges =   0.00000

 Dipole moment (field-independent basis, Debye):
    X=             -1.7883    Y=             -2.1696    Z=             -0.4844  Tot=              2.8531

 Test job not archived.
 1\1\GINC-SE220\SP\RHF\Aug-CC-pVDZ\C5H6O2\OHZDE\09-Apr-2025\0\\#t hf au
 g-cc-pvdz iop(5/13=1,5/36=2,99/5=2) pseudo=read geom=check guess=(read
 ,tcheck) scf=(maxcycle=1)\\title\\0,1\O,0,1.52369086,1.37920757,-0.284
 21037\C,0,0.67494751,0.30987369,-0.08777697\C,0,1.96862768,0.29959725,
 0.56427986\O,0,0.33574486,-0.49955091,-1.19335473\C,0,-1.0530202,-0.32
 730159,-0.88689913\C,0,-1.36435666,-0.92337827,0.43580767\C,0,-0.75285
 984,0.45568684,0.35657979\H,0,2.05913296,0.54515628,1.61799619\H,0,2.7
 6181742,-0.30758049,0.13972475\H,0,-1.74051762,-0.15896315,-1.70306519

 Normal termination of Gaussian 16 at Wed Apr  9 19:04:52 2025.
