 Gaussian 16, Revision C.01,

 ----------------------------------------------------------------------
 #t hf aug-cc-pvdz symm=none int=(grid=ultrafine) guess=(read,tcheck) s
 table=(opt,rrhf)
 ----------------------------------------------------------------------
 -----
 title
 -----
 Symbolic Z-matrix:
 Charge =  0 Multiplicity = 1

 SCF Done:  E(RHF) =  -307.718716116     A.U. after   16 cycles

 1\1\GINC-SE030\Stability\RHF\Aug-CC-pVDZ\C6H10O1\OHZDE\09-Apr-2025\0\\
 #t hf aug-cc-pvdz symm=none int=(grid=ultrafine) guess=(read,tcheck) s
 table=(opt,rrhf)\\title\\0,1\C,0,-1.98347324,-0.37381515,0.46799591\C,
 0,-1.08991098,0.02680068,-0.70457607\O,0,-0.93516492,1.27560048,-0.917
 79506\C,0,1.27069233,1.60379856,-0.20972824\C,0,1.5232632,0.33338841,-
 0.5841045\C,0,1.00709265,-0.93328345,0.92662516\C,0,0.51331907,-0.7497
 3222,-0.3612469\H,0,-3.00971693,-0.07379815,0.24777032\H,0,-1.67184028
 ,0.14587629,1.3756473\H,0,-1.96517594,-1.45301025,0.64568807\H,0,-1.29

 Normal termination of Gaussian 16 at Wed Apr  9 17:57:21 2025.
 Gaussian 16:  ES64L-G16RevC.01  3-Jul-2019

 ----------------------------------------------------------------------
 #t hf aug-cc-pvdz iop(5/13=1,5/36=2,99/5=2) pseudo=read geom=check gue
 ss=(read,tcheck) scf=(maxcycle=1)
 ----------------------------------------------------------------------
 -----
 title
 -----
 Structure from the checkpoint file:  "Grambow2020_wb97xd3_006891_forward_mol1.chk"
 Charge =  0 Multiplicity = 1

                         Standard orientation:
 ---------------------------------------------------------------------
 Center     Atomic      Atomic             Coordinates (Angstroms)
 Number     Number       Type             X           Y           Z
 ---------------------------------------------------------------------
      1          6           0       -2.066745    0.398847   -0.409617
      2          6           0       -1.069326   -0.332239    0.487345
      3          8           0       -0.684278   -1.488276    0.107576
      4          6           0        1.514363   -1.054206   -0.565061
      5          6           0        1.549415   -0.078517    0.364829
      6          6           0        0.753732    1.628368   -0.414034
      7          6           0        0.353168    0.786033    0.618506
      8          1           0       -3.012684   -0.145975   -0.402265
      9          1           0       -1.703566    0.422108   -1.438493
     10          1           0       -2.249807    1.421863   -0.068297
     11          1           0       -1.342858   -0.248287    1.558264
     12          1           0        2.277113   -1.823038   -0.573605
     13          1           0        0.821697   -1.044894   -1.390924
     14          1           0        2.365818    0.014184    1.069202
     15          1           0        0.793642    1.273343   -1.433991
     16          1           0        0.981073    2.682023   -0.266104
     17          1           0        0.336151    1.265159    1.593795
 ---------------------------------------------------------------------

 SCF Done:  E(RHF) =  -308.042940435     A.U. after    2 cycles

 The electronic state is 1-A.
 Alpha  occ. eigenvalues --  -20.45046 -11.33173 -11.27979 -11.26912 -11.26789
 Alpha  occ. eigenvalues --  -11.25262 -11.21122  -1.36705  -1.15042  -1.01539
 Alpha  occ. eigenvalues --   -0.97226  -0.87516  -0.78577  -0.75395  -0.72117
 Alpha  occ. eigenvalues --   -0.63247  -0.62276  -0.60507  -0.60282  -0.56629
 Alpha  occ. eigenvalues --   -0.55563  -0.52412  -0.50726  -0.48312  -0.35870
 Alpha  occ. eigenvalues --   -0.34556  -0.32365
 Alpha virt. eigenvalues --    0.01932   0.02481   0.03411   0.03746   0.04855
 Alpha virt. eigenvalues --    0.05741   0.05890   0.06459   0.06954   0.08410
 Alpha virt. eigenvalues --    0.09350   0.11561   0.12641   0.13278   0.13753

 Mulliken charges:
               1
     1  C   -0.427288
     2  C    1.096138
     3  O   -1.462804
     4  C   -0.082773
     5  C    0.613044
     6  C    0.136364
     7  C    0.051288
     8  H    0.093174
     9  H    0.192476
    10  H    0.180740
    11  H    0.121121
    12  H   -0.095453
    13  H   -0.083044
    14  H   -0.206755
    15  H    0.012248
    16  H   -0.077897
    17  H   -0.060577
 Sum of Mulliken charges =  -0.00000

 Dipole moment (field-independent basis, Debye):
    X=              2.7236    Y=              4.5848    Z=             -0.6001  Tot=              5.3665

 Test job not archived.
 1\1\GINC-SE030\SP\RHF\Aug-CC-pVDZ\C6H10O1\OHZDE\09-Apr-2025\0\\#t hf a
 ug-cc-pvdz iop(5/13=1,5/36=2,99/5=2) pseudo=read geom=check guess=(rea
 d,tcheck) scf=(maxcycle=1)\\title\\0,1\C,0,-1.98347324,-0.37381515,0.4
 6799591\C,0,-1.08991098,0.02680068,-0.70457607\O,0,-0.93516492,1.27560
 048,-0.91779506\C,0,1.27069233,1.60379856,-0.20972824\C,0,1.5232632,0.
 33338841,-0.5841045\C,0,1.00709265,-0.93328345,0.92662516\C,0,0.513319
 07,-0.74973222,-0.3612469\H,0,-3.00971693,-0.07379815,0.24777032\H,0,-
 1.67184028,0.14587629,1.3756473\H,0,-1.96517594,-1.45301025,0.64568807

 Normal termination of Gaussian 16 at Wed Apr  9 17:57:27 2025.
