 Gaussian 16, Revision C.01,

 ----------------------------------------------------------------------
 #t hf aug-cc-pvdz symm=none int=(grid=ultrafine) guess=(read,tcheck) s
 table=(opt,rrhf)
 ----------------------------------------------------------------------
 -----
 title
 -----
 Symbolic Z-matrix:
 Charge =  0 Multiplicity = 1

 SCF Done:  E(RHF) =  -353.448889146     A.U. after   18 cycles
 Normal termination of Gaussian 16 at Wed Apr  9 18:39:14 2025.
 Gaussian 16:  ES64L-G16RevC.01  3-Jul-2019

 ----------------------------------------------------------------------
 #t hf aug-cc-pvdz iop(5/13=1,5/36=2,99/5=2) pseudo=read geom=check gue
 ss=(read,tcheck) scf=(maxcycle=1)
 ----------------------------------------------------------------------
 -----
 title
 -----
 Structure from the checkpoint file:  "Grambow2020_wb97xd3_007939_reverse_mol2.chk"
 Charge =  0 Multiplicity = 1

                         Standard orientation:
 ---------------------------------------------------------------------
 Center     Atomic      Atomic             Coordinates (Angstroms)
 Number     Number       Type             X           Y           Z
 ---------------------------------------------------------------------
      1          8           0       -1.678080   -1.094185   -0.340755
      2          6           0       -0.714014   -0.149076   -0.021296
      3          6           0        0.558181   -0.826866    0.289771
      4          7           0        1.675535   -0.235225    0.033266
      5          7           0        2.638647    0.302985   -0.195922
      6          6           0       -0.824275    1.223639   -0.428201
      7          7           0       -1.168682    1.037185    0.768922
      8          1           0       -2.543870   -0.712822   -0.173724
      9          1           0        0.603844   -1.802941    0.744248
     10          1           0       -0.773184    2.048443   -1.130002
 ---------------------------------------------------------------------

 SCF Done:  E(RHF) =  -353.796583265     A.U. after    2 cycles

 The electronic state is 1-A.
 Alpha  occ. eigenvalues --  -20.57488 -15.68038 -15.60533 -15.54628 -11.36684
 Alpha  occ. eigenvalues --  -11.31500 -11.28267  -1.49856  -1.49007  -1.33839
 Alpha  occ. eigenvalues --   -1.17654  -0.92662  -0.83769  -0.78740  -0.74584
 Alpha  occ. eigenvalues --   -0.73531  -0.72662  -0.69885  -0.65900  -0.62340
 Alpha  occ. eigenvalues --   -0.56736  -0.55532  -0.49092  -0.43538  -0.35444
 Alpha virt. eigenvalues --    0.03195   0.04463   0.04615   0.06896   0.07469
 Alpha virt. eigenvalues --    0.08031   0.08475   0.09636   0.10997   0.12173
 Alpha virt. eigenvalues --    0.12420   0.13376   0.13931   0.14439   0.15272

 Mulliken charges:
               1
     1  O   -1.461388
     2  C    1.296605
     3  C   -0.181562
     4  N   -0.876042
     5  N    0.871638
     6  C   -0.399924
     7  N    0.430601
     8  H    0.311347
     9  H    0.029309
    10  H   -0.020585
 Sum of Mulliken charges =  -0.00000

 Dipole moment (field-independent basis, Debye):
    X=             -1.3820    Y=              0.0535    Z=             -1.5370  Tot=              2.0677

 Test job not archived.
 1\1\GINC-SE224\SP\RHF\Aug-CC-pVDZ\C3H3N3O1\OHZDE\09-Apr-2025\0\\#t hf
 aug-cc-pvdz iop(5/13=1,5/36=2,99/5=2) pseudo=read geom=check guess=(re
 ad,tcheck) scf=(maxcycle=1)\\title\\0,1\O,0,1.72427338,-0.42419783,-0.
 45478706\C,0,0.4313746,-0.26892745,0.02376566\C,0,0.09266117,1.1653900
 6,0.07525143\N,0,-1.12966307,1.53887971,-0.10008513\N,0,-2.20464269,1.
 84069404,-0.25210157\C,0,-0.53487741,-1.33007529,-0.02518335\N,0,-0.00
 240759,-1.20279493,1.1091711\H,0,2.06392138,-1.26709367,-0.14318625\H,
 0,0.82462183,1.9314959,0.27190386\H,0,-1.25800358,-1.98028554,-0.50450

 Normal termination of Gaussian 16 at Wed Apr  9 18:39:17 2025.
