 Gaussian 16, Revision C.01,

 ----------------------------------------------------------------------
 #t hf aug-cc-pvdz symm=none int=(grid=ultrafine) guess=(read,tcheck) s
 table=(opt,rrhf)
 ----------------------------------------------------------------------
 -----
 title
 -----
 Symbolic Z-matrix:
 Charge =  0 Multiplicity = 1

 SCF Done:  E(RHF) =  -359.634953722     A.U. after   14 cycles
 Normal termination of Gaussian 16 at Wed Apr  9 18:56:42 2025.
 Gaussian 16:  ES64L-G16RevC.01  3-Jul-2019

 ----------------------------------------------------------------------
 #t hf aug-cc-pvdz iop(5/13=1,5/36=2,99/5=2) pseudo=read geom=check gue
 ss=(read,tcheck) scf=(maxcycle=1)
 ----------------------------------------------------------------------
 -----
 title
 -----
 Structure from the checkpoint file:  "Grambow2020_wb97xd3_008364_reverse_mol2.chk"
 Charge =  0 Multiplicity = 1

                         Standard orientation:
 ---------------------------------------------------------------------
 Center     Atomic      Atomic             Coordinates (Angstroms)
 Number     Number       Type             X           Y           Z
 ---------------------------------------------------------------------
      1          8           0       -1.018825    1.745490   -0.123258
      2          6           0       -1.342981    0.424056    0.277237
      3          6           0       -1.227161   -0.641117   -0.827847
      4          7           0       -0.383568   -1.492071    0.069060
      5          6           0       -0.240373   -0.298369    0.997334
      6          6           0        2.104825   -0.256671   -0.270770
      7          8           0        2.840224    0.567829   -0.037573
      8          1           0       -1.832077    2.236107   -0.256028
      9          1           0       -2.343746    0.441988    0.738891
     10          1           0       -0.635397   -0.293429   -1.672941
     11          1           0       -2.125075   -1.154829   -1.170873
     12          1           0       -0.877182   -2.313842    0.405990
     13          1           0       -0.354685   -0.573114    2.044113
     14          1           0        0.516091   -1.772337   -0.341643
 ---------------------------------------------------------------------

 SCF Done:  E(RHF) =  -359.996933113     A.U. after    2 cycles

 The electronic state is 1-A.
 Alpha  occ. eigenvalues --  -20.60892 -20.53167 -15.59189 -11.33727 -11.28860
 Alpha  occ. eigenvalues --  -11.27971 -11.18595  -1.56227  -1.43493  -1.29611
 Alpha  occ. eigenvalues --   -1.02195  -0.91744  -0.80303  -0.78171  -0.76533
 Alpha  occ. eigenvalues --   -0.69699  -0.68968  -0.62702  -0.59814  -0.59372
 Alpha  occ. eigenvalues --   -0.58178  -0.55916  -0.52751  -0.51809  -0.48511
 Alpha  occ. eigenvalues --   -0.41522  -0.27610
 Alpha virt. eigenvalues --    0.02151   0.03600   0.04212   0.04852   0.05785
 Alpha virt. eigenvalues --    0.06265   0.07088   0.09217   0.10118   0.11972
 Alpha virt. eigenvalues --    0.12347   0.13592   0.13720   0.14396   0.15147

 Mulliken charges:
               1
     1  O   -1.252360
     2  C    1.394177
     3  C   -0.418400
     4  N    0.252216
     5  C   -0.670858
     6  C    0.619817
     7  O   -0.695478
     8  H    0.277125
     9  H    0.047497
    10  H    0.043505
    11  H   -0.025921
    12  H    0.337593
    13  H   -0.190757
    14  H    0.281842
 Sum of Mulliken charges =  -0.00000

 Dipole moment (field-independent basis, Debye):
    X=             -3.7991    Y=             -3.9747    Z=             -1.6964  Tot=              5.7540

 Test job not archived.
 1\1\GINC-SE041\SP\RHF\Aug-CC-pVDZ\C4H7N1O2\OHZDE\09-Apr-2025\0\\#t hf
 aug-cc-pvdz iop(5/13=1,5/36=2,99/5=2) pseudo=read geom=check guess=(re
 ad,tcheck) scf=(maxcycle=1)\\title\\0,1\O,0,-0.78723167,-1.75227364,0.
 61837809\C,0,-0.79896347,-0.69357572,-0.32538215\C,0,-0.97561138,0.713
 64983,0.27272163\N,0,0.22234723,1.19506543,-0.48447426\C,0,0.5609272,-
 0.25423195,-0.7878265\C,0,2.26937429,0.27724709,1.1891712\O,0,2.945067
 86,-0.54498858,1.56647662\H,0,-1.64160057,-2.18767345,0.60453752\H,0,-
 1.56063367,-0.92341381,-1.08827765\H,0,-0.77105757,0.73410588,1.341830

 Normal termination of Gaussian 16 at Wed Apr  9 18:56:47 2025.
