 Gaussian 16, Revision C.01,

 ----------------------------------------------------------------------
 #t hf aug-cc-pvdz symm=none int=(grid=ultrafine) guess=(read,tcheck) s
 table=(opt,rrhf)
 ----------------------------------------------------------------------
 -----
 title
 -----
 Symbolic Z-matrix:
 Charge =  0 Multiplicity = 1

 SCF Done:  E(RHF) =  -321.362421186     A.U. after   16 cycles
 Normal termination of Gaussian 16 at Wed Apr  9 03:46:16 2025.
 Gaussian 16:  ES64L-G16RevC.01  3-Jul-2019

 ----------------------------------------------------------------------
 #t hf aug-cc-pvdz iop(5/13=1,5/36=2,99/5=2) pseudo=read geom=check gue
 ss=(read,tcheck) scf=(maxcycle=1)
 ----------------------------------------------------------------------
 -----
 title
 -----
 Structure from the checkpoint file:  "Grambow2020_wb97xd3_007884_forward_mol1.chk"
 Charge =  0 Multiplicity = 1

                         Standard orientation:
 ---------------------------------------------------------------------
 Center     Atomic      Atomic             Coordinates (Angstroms)
 Number     Number       Type             X           Y           Z
 ---------------------------------------------------------------------
      1          8           0        2.007218   -0.675744   -0.006374
      2          6           0        0.984806   -0.089604   -0.034734
      3          6           0       -0.124512    0.351807    0.990925
      4          7           0       -0.343248    1.425918    0.031250
      5          6           0        0.113326    0.702853   -1.055043
      6          6           0       -1.253412   -0.908011   -0.663686
      7          6           0       -1.130851   -0.739078    0.639137
      8          1           0        0.052041    0.595359    2.038202
      9          1           0       -1.223216    1.922112   -0.012316
     10          1           0       -0.705809    0.068935   -1.655176
     11          1           0       -1.745464   -1.705180   -1.205808
     12          1           0       -1.568702   -1.364509    1.407747
 ---------------------------------------------------------------------

 SCF Done:  E(RHF) =  -321.687997487     A.U. after    2 cycles

 The electronic state is 1-A.
 Alpha  occ. eigenvalues --  -20.55718 -15.54097 -11.36582 -11.30780 -11.30544
 Alpha  occ. eigenvalues --  -11.27532 -11.27371  -1.50322  -1.32332  -1.08680
 Alpha  occ. eigenvalues --   -0.96887  -0.96269  -0.77925  -0.75447  -0.73418
 Alpha  occ. eigenvalues --   -0.71579  -0.66466  -0.62028  -0.61554  -0.58032
 Alpha  occ. eigenvalues --   -0.54496  -0.48542  -0.42694  -0.39430  -0.34941
 Alpha virt. eigenvalues --    0.02918   0.03607   0.03903   0.04882   0.05961
 Alpha virt. eigenvalues --    0.07529   0.08084   0.09221   0.10347   0.11540
 Alpha virt. eigenvalues --    0.11860   0.12592   0.13476   0.13892   0.14822

 Mulliken charges:
               1
     1  O   -1.258429
     2  C    1.776820
     3  C   -1.025187
     4  N    0.720866
     5  C   -0.946594
     6  C   -0.366627
     7  C    0.896364
     8  H   -0.102560
     9  H    0.212191
    10  H    0.420488
    11  H   -0.230275
    12  H   -0.097056
 Sum of Mulliken charges =   0.00000

 Dipole moment (field-independent basis, Debye):
    X=             -4.0310    Y=             -0.0717    Z=              1.5196  Tot=              4.3085

 Test job not archived.
 1\1\GINC-SE402\SP\RHF\Aug-CC-pVDZ\C5H5N1O1\OHZDE\09-Apr-2025\0\\#t hf
 aug-cc-pvdz iop(5/13=1,5/36=2,99/5=2) pseudo=read geom=check guess=(re
 ad,tcheck) scf=(maxcycle=1)\\title\\0,1\O,0,0.25591324,-1.59026327,1.9
 0905856\C,0,-0.12186483,-1.00595379,0.95745078\C,0,0.29594257,-0.86203
 845,-0.55322247\N,0,-1.12024887,-0.57595026,-0.74055247\C,0,-1.3075678
 1,-0.08561424,0.53843045\C,0,0.28545165,1.33876452,0.3160603\C,0,0.984
 73693,0.49184272,-0.41512472\H,0,0.76947778,-1.64176596,-1.14909637\H,
 0,-1.45141602,-0.0598643,-1.54456278\H,0,-1.14207388,1.0905687,0.68742

 Normal termination of Gaussian 16 at Wed Apr  9 03:46:21 2025.
