 Gaussian 16, Revision C.01,

 ----------------------------------------------------------------------
 #t hf aug-cc-pvdz symm=none int=(grid=ultrafine) guess=(read,tcheck) s
 table=(opt,rrhf)
 ----------------------------------------------------------------------
 -----
 title
 -----
 Symbolic Z-matrix:
 Charge =  0 Multiplicity = 1

 SCF Done:  E(RHF) =  -322.743404926     A.U. after   14 cycles
 Normal termination of Gaussian 16 at Wed Apr  9 03:33:18 2025.
 Gaussian 16:  ES64L-G16RevC.01  3-Jul-2019

 ----------------------------------------------------------------------
 #t hf aug-cc-pvdz iop(5/13=1,5/36=2,99/5=2) pseudo=read geom=check gue
 ss=(read,tcheck) scf=(maxcycle=1)
 ----------------------------------------------------------------------
 -----
 title
 -----
 Structure from the checkpoint file:  "Grambow2020_wb97xd3_007010_reverse_mol2.chk"
 Charge =  0 Multiplicity = 1

                         Standard orientation:
 ---------------------------------------------------------------------
 Center     Atomic      Atomic             Coordinates (Angstroms)
 Number     Number       Type             X           Y           Z
 ---------------------------------------------------------------------
      1          6           0        2.441609   -1.615633    0.000432
      2          6           0        1.393109   -0.557582    0.041065
      3          6           0        1.624493    0.748065   -0.061092
      4          6           0        0.563503    1.765965   -0.014529
      5          7           0       -0.668205    1.476939    0.075991
      6          6           0       -2.479681   -1.203443    0.036311
      7          8           0       -3.422141   -0.600165   -0.067164
      8          1           0        2.429412   -2.203560    0.922038
      9          1           0        3.439377   -1.195303   -0.130660
     10          1           0        2.249557   -2.314870   -0.817659
     11          1           0        0.363091   -0.883249    0.164021
     12          1           0        2.640225    1.114233   -0.181869
     13          1           0        0.913335    2.803796   -0.062093
     14          1           0       -1.238633    2.317474    0.098479
 ---------------------------------------------------------------------

 SCF Done:  E(RHF) =  -323.066290959     A.U. after    2 cycles

 The electronic state is 1-A.
 Alpha  occ. eigenvalues --  -20.63549 -15.48770 -11.35456 -11.29084 -11.25322
 Alpha  occ. eigenvalues --  -11.23924 -11.23283  -1.59010  -1.21470  -1.08179
 Alpha  occ. eigenvalues --   -0.96751  -0.84789  -0.79199  -0.75705  -0.70632
 Alpha  occ. eigenvalues --   -0.65486  -0.61991  -0.61980  -0.59545  -0.58215
 Alpha  occ. eigenvalues --   -0.55280  -0.54131  -0.51244  -0.50053  -0.45557
 Alpha  occ. eigenvalues --   -0.36352
 Alpha virt. eigenvalues --    0.03474   0.03800   0.04521   0.05367   0.06272
 Alpha virt. eigenvalues --    0.06566   0.06785   0.08756   0.09713   0.10165
 Alpha virt. eigenvalues --    0.11205   0.12637   0.13290   0.13565   0.14079

 Mulliken charges:
               1
     1  C   -0.973471
     2  C    0.630511
     3  C    0.446384
     4  C   -1.075348
     5  N    0.759271
     6  C    0.575172
     7  O   -0.567503
     8  H    0.230477
     9  H    0.112417
    10  H    0.231953
    11  H   -0.100514
    12  H   -0.179192
    13  H   -0.210349
    14  H    0.120190
 Sum of Mulliken charges =  -0.00000

 Dipole moment (field-independent basis, Debye):
    X=              2.1708    Y=              0.6362    Z=             -0.0971  Tot=              2.2642

 Test job not archived.
 1\1\GINC-SE344\SP\RHF\Aug-CC-pVDZ\C5H7N1O1\OHZDE\09-Apr-2025\0\\#t hf
 aug-cc-pvdz iop(5/13=1,5/36=2,99/5=2) pseudo=read geom=check guess=(re
 ad,tcheck) scf=(maxcycle=1)\\title\\0,1\C,0,-2.15121261,0.88979212,0.1
 7742304\C,0,-0.75436805,0.38820315,0.04435598\C,0,0.33258915,1.0509912
 4,0.42896495\C,0,1.6983671,0.52520853,0.27999998\N,0,1.94803861,-0.629
 1674,-0.18250996\C,0,0.25503731,-3.23262182,-1.08983639\O,0,1.18715212
 ,-3.85858054,-1.13695283\H,0,-2.63394958,0.94527042,-0.80188944\H,0,-2
 .18704662,1.87717153,0.63916078\H,0,-2.74974301,0.20258007,0.78123678\

 Normal termination of Gaussian 16 at Wed Apr  9 03:33:23 2025.
