 Gaussian 16, Revision C.01,

 ----------------------------------------------------------------------
 #t hf aug-cc-pvdz symm=none int=(grid=ultrafine) guess=(read,tcheck) s
 table=(opt,rrhf)
 ----------------------------------------------------------------------
 -----
 title
 -----
 Symbolic Z-matrix:
 Charge =  0 Multiplicity = 1

 SCF Done:  E(RHF) =  -344.918779060     A.U. after   14 cycles

 1\1\GINC-SE115\Stability\RHF\Aug-CC-pVDZ\C5H10O2\OHZDE\09-Apr-2025\0\\
 #t hf aug-cc-pvdz symm=none int=(grid=ultrafine) guess=(read,tcheck) s
 table=(opt,rrhf)\\title\\0,1\C,0,-2.21433595,-1.3316288,-1.32267088\C,
 0,0.09129141,0.80722077,0.6540858\C,0,0.19011006,-0.48229422,1.4240901
 9\O,0,0.72445541,-1.47671303,1.0158992\C,0,0.93175903,0.81379738,-0.60
 575745\C,0,2.40653534,0.93839514,-0.33024007\O,0,2.87751329,1.15829224
 ,0.75139612\H,0,-2.85121448,-1.04624408,-0.48591128\H,0,-1.96915219,-0
 .44847968,-1.9122694\H,0,-2.74716355,-2.04411001,-1.95005369\H,0,-0.96

 Normal termination of Gaussian 16 at Wed Apr  9 18:37:41 2025.
 Gaussian 16:  ES64L-G16RevC.01  3-Jul-2019

 ----------------------------------------------------------------------
 #t hf aug-cc-pvdz iop(5/13=1,5/36=2,99/5=2) pseudo=read geom=check gue
 ss=(read,tcheck) scf=(maxcycle=1)
 ----------------------------------------------------------------------
 -----
 title
 -----
 Structure from the checkpoint file:  "Grambow2020_wb97xd3_007835_reverse_mol2.chk"
 Charge =  0 Multiplicity = 1

                         Standard orientation:
 ---------------------------------------------------------------------
 Center     Atomic      Atomic             Coordinates (Angstroms)
 Number     Number       Type             X           Y           Z
 ---------------------------------------------------------------------
      1          6           0        3.351992   -0.686871   -0.195252
      2          6           0       -0.065618    0.069359    1.048220
      3          6           0        0.257046    1.358027    0.340589
      4          8           0        0.347015    1.473385   -0.850886
      5          6           0       -0.495425   -1.035467    0.105743
      6          6           0       -1.883162   -0.836156   -0.442766
      7          8           0       -2.641052    0.018256   -0.074402
      8          1           0        3.572933   -0.090718    0.689628
      9          1           0        2.876915   -1.621059    0.103563
     10          1           0        4.281182   -0.908927   -0.717211
     11          1           0        0.831144   -0.213857    1.610341
     12          1           0       -0.838579    0.282085    1.791643
     13          1           0        0.437031    2.227539    1.004229
     14          1           0        2.689167   -0.128072   -0.854551
     15          1           0       -0.486034   -2.011324    0.603472
     16          1           0        0.188370   -1.121964   -0.743139
     17          1           0       -2.188825   -1.560187   -1.224877
 ---------------------------------------------------------------------

 SCF Done:  E(RHF) =  -345.275474532     A.U. after    2 cycles

 The electronic state is 1-A.
 Alpha  occ. eigenvalues --  -20.55061 -20.55039 -11.34638 -11.34617 -11.25994
 Alpha  occ. eigenvalues --  -11.25952 -11.22610  -1.48803  -1.48442  -1.09640
 Alpha  occ. eigenvalues --   -0.97226  -0.95389  -0.82830  -0.76758  -0.70562
 Alpha  occ. eigenvalues --   -0.70318  -0.65402  -0.63893  -0.58958  -0.58546
 Alpha  occ. eigenvalues --   -0.55957  -0.55812  -0.55588  -0.54535  -0.51194
 Alpha  occ. eigenvalues --   -0.50425  -0.42346  -0.42196
 Alpha virt. eigenvalues --    0.02908   0.03245   0.03773   0.04456   0.05803
 Alpha virt. eigenvalues --    0.06292   0.06516   0.07555   0.08741   0.09478
 Alpha virt. eigenvalues --    0.10861   0.11344   0.11855   0.12941   0.13607

 Mulliken charges:
               1
     1  C   -0.278210
     2  C   -0.397110
     3  C    1.064554
     4  O   -1.151947
     5  C   -0.532503
     6  C    1.074643
     7  O   -1.156252
     8  H    0.080857
     9  H    0.098903
    10  H    0.012903
    11  H    0.242517
    12  H    0.213418
    13  H    0.107730
    14  H    0.094728
    15  H    0.220649
    16  H    0.190019
    17  H    0.115098
 Sum of Mulliken charges =  -0.00000

 Dipole moment (field-independent basis, Debye):
    X=              1.8481    Y=             -2.5046    Z=              2.0683  Tot=              3.7372

 Test job not archived.
 1\1\GINC-SE115\SP\RHF\Aug-CC-pVDZ\C5H10O2\OHZDE\09-Apr-2025\0\\#t hf a
 ug-cc-pvdz iop(5/13=1,5/36=2,99/5=2) pseudo=read geom=check guess=(rea
 d,tcheck) scf=(maxcycle=1)\\title\\0,1\C,0,-2.21433595,-1.3316288,-1.3
 2267088\C,0,0.09129141,0.80722077,0.6540858\C,0,0.19011006,-0.48229422
 ,1.42409019\O,0,0.72445541,-1.47671303,1.0158992\C,0,0.93175903,0.8137
 9738,-0.60575745\C,0,2.40653534,0.93839514,-0.33024007\O,0,2.87751329,
 1.15829224,0.75139612\H,0,-2.85121448,-1.04624408,-0.48591128\H,0,-1.9
 6915219,-0.44847968,-1.9122694\H,0,-2.74716355,-2.04411001,-1.95005369

 Normal termination of Gaussian 16 at Wed Apr  9 18:37:47 2025.
