 Gaussian 16, Revision C.01,

 ----------------------------------------------------------------------
 #t hf aug-cc-pvdz symm=none int=(grid=ultrafine) guess=(read,tcheck) s
 table=(opt,rrhf)
 ----------------------------------------------------------------------
 -----
 title
 -----
 Symbolic Z-matrix:
 Charge =  0 Multiplicity = 1

 SCF Done:  E(RHF) =  -323.765969045     A.U. after   15 cycles
 Normal termination of Gaussian 16 at Wed Apr  9 19:14:07 2025.
 Gaussian 16:  ES64L-G16RevC.01  3-Jul-2019

 ----------------------------------------------------------------------
 #t hf aug-cc-pvdz iop(5/13=1,5/36=2,99/5=2) pseudo=read geom=check gue
 ss=(read,tcheck) scf=(maxcycle=1)
 ----------------------------------------------------------------------
 -----
 title
 -----
 Structure from the checkpoint file:  "Grambow2020_wb97xd3_008940_reverse_mol1.chk"
 Charge =  0 Multiplicity = 1

                         Standard orientation:
 ---------------------------------------------------------------------
 Center     Atomic      Atomic             Coordinates (Angstroms)
 Number     Number       Type             X           Y           Z
 ---------------------------------------------------------------------
      1          6           0       -2.246366   -0.747552    0.440829
      2          6           0       -1.267932   -0.016494   -0.454496
      3          6           0       -0.843636    1.414139   -0.055828
      4          7           0        0.549981    0.892153    0.106825
      5          6           0        2.604080    0.075913    0.277476
      6          6           0        0.214480   -0.311770   -0.221133
      7          8           0        1.022873   -1.255383   -0.264207
      8          1           0       -1.963785   -0.640673    1.490406
      9          1           0       -2.263136   -1.812373    0.203390
     10          1           0       -3.257021   -0.353344    0.318376
     11          1           0       -1.538133   -0.109847   -1.507853
     12          1           0       -0.934850    2.174947   -0.832474
     13          1           0       -1.279185    1.780684    0.875887
     14          1           0        2.931010    0.008403   -0.748464
     15          1           0        2.692526    1.041552    0.743046
     16          1           0        2.815967   -0.776772    0.902481
 ---------------------------------------------------------------------

 SCF Done:  E(RHF) =  -324.102344778     A.U. after    2 cycles

 The electronic state is 1-A.
 Alpha  occ. eigenvalues --  -20.50322 -15.45267 -11.36394 -11.30233 -11.25166
 Alpha  occ. eigenvalues --  -11.23910 -11.22514  -1.43842  -1.23668  -1.02877
 Alpha  occ. eigenvalues --   -0.97715  -0.90456  -0.84671  -0.68429  -0.68067
 Alpha  occ. eigenvalues --   -0.65937  -0.64973  -0.63310  -0.60213  -0.56252
 Alpha  occ. eigenvalues --   -0.54944  -0.52576  -0.50159  -0.48696  -0.41298
 Alpha  occ. eigenvalues --   -0.39641  -0.37070
 Alpha virt. eigenvalues --    0.02015   0.04139   0.04667   0.04913   0.05253
 Alpha virt. eigenvalues --    0.05634   0.05914   0.06675   0.07347   0.07735
 Alpha virt. eigenvalues --    0.11238   0.12387   0.13167   0.13691   0.14378

 Mulliken charges:
               1
     1  C   -0.245017
     2  C   -0.249413
     3  C   -0.053523
     4  N    0.590331
     5  C   -0.097514
     6  C    0.146184
     7  O   -1.387151
     8  H    0.180714
     9  H    0.194042
    10  H    0.179997
    11  H    0.082235
    12  H   -0.019504
    13  H   -0.005878
    14  H    0.242377
    15  H    0.195401
    16  H    0.246720
 Sum of Mulliken charges =  -0.00000

 Dipole moment (field-independent basis, Debye):
    X=              1.3737    Y=              0.9662    Z=              0.3392  Tot=              1.7134

 Test job not archived.
 1\1\GINC-SE036\SP\RHF\Aug-CC-pVDZ\C5H9N1O1\OHZDE\09-Apr-2025\0\\#t hf
 aug-cc-pvdz iop(5/13=1,5/36=2,99/5=2) pseudo=read geom=check guess=(re
 ad,tcheck) scf=(maxcycle=1)\\title\\0,1\C,0,2.19079926,-0.52861042,0.2
 3515734\C,0,1.12132464,0.44509143,-0.21374974\C,0,0.28665965,0.0863469
 8,-1.46287352\N,0,-0.91559595,0.03532985,-0.57232741\C,0,-2.66920699,0
 .02885439,0.78395291\C,0,-0.23443112,0.33145757,0.48496669\O,0,-0.7431
 5658,0.43690559,1.61449732\H,0,1.80816253,-1.55157689,0.23125079\H,0,2
 .52106435,-0.29651507,1.24884357\H,0,3.05868387,-0.48708277,-0.4258040

 Normal termination of Gaussian 16 at Wed Apr  9 19:14:12 2025.
