 Gaussian 16, Revision C.01,

 ----------------------------------------------------------------------
 #t hf aug-cc-pvdz symm=none int=(grid=ultrafine) guess=(read,tcheck) s
 table=(opt,rrhf)
 ----------------------------------------------------------------------
 -----
 title
 -----
 Symbolic Z-matrix:
 Charge =  0 Multiplicity = 1

 SCF Done:  E(RHF) =  -322.495036213     A.U. after   18 cycles
 Normal termination of Gaussian 16 at Wed Apr  9 18:33:50 2025.
 Gaussian 16:  ES64L-G16RevC.01  3-Jul-2019

 ----------------------------------------------------------------------
 #t hf aug-cc-pvdz iop(5/13=1,5/36=2,99/5=2) pseudo=read geom=check gue
 ss=(read,tcheck) scf=(maxcycle=1)
 ----------------------------------------------------------------------
 -----
 title
 -----
 Structure from the checkpoint file:  "Grambow2020_wb97xd3_007718_reverse_mol1.chk"
 Charge =  0 Multiplicity = 1

                         Standard orientation:
 ---------------------------------------------------------------------
 Center     Atomic      Atomic             Coordinates (Angstroms)
 Number     Number       Type             X           Y           Z
 ---------------------------------------------------------------------
      1          6           0       -2.240691    0.448525   -0.093946
      2          7           0       -1.543758   -0.744426   -0.077902
      3          6           0       -0.309286   -0.486617    0.092213
      4          8           0        0.750229   -1.259966   -0.090875
      5          6           0        1.786807   -0.335057    0.028919
      6          6           0        1.406191    1.025983   -0.379158
      7          6           0        0.174025    0.889282    0.496690
      8          1           0       -2.228277    0.999198   -1.031223
      9          1           0       -3.192538    0.468049    0.430404
     10          1           0       -0.996056    1.362767    0.335034
     11          1           0        2.637781   -0.664159    0.605626
     12          1           0        1.164714    1.152286   -1.441426
     13          1           0        2.130656    1.771116   -0.061735
     14          1           0        0.385917    0.948751    1.567332
 ---------------------------------------------------------------------

 SCF Done:  E(RHF) =  -322.827477611     A.U. after    2 cycles

 The electronic state is 1-A.
 Alpha  occ. eigenvalues --  -20.62106 -15.51114 -11.35500 -11.31337 -11.29602
 Alpha  occ. eigenvalues --  -11.27396 -11.27291  -1.56826  -1.27349  -1.11825
 Alpha  occ. eigenvalues --   -0.98005  -0.92280  -0.85157  -0.76508  -0.73149
 Alpha  occ. eigenvalues --   -0.72463  -0.65456  -0.63817  -0.60928  -0.59118
 Alpha  occ. eigenvalues --   -0.57452  -0.55604  -0.50439  -0.48467  -0.42019
 Alpha  occ. eigenvalues --   -0.23350
 Alpha virt. eigenvalues --    0.01347   0.03333   0.03916   0.04211   0.04598
 Alpha virt. eigenvalues --    0.05824   0.06433   0.07412   0.09543   0.10937
 Alpha virt. eigenvalues --    0.11616   0.12429   0.13114   0.13861   0.14218

 Mulliken charges:
               1
     1  C   -0.245649
     2  N    0.963041
     3  C   -0.089192
     4  O   -1.545005
     5  C    0.966864
     6  C   -0.190865
     7  C   -0.551623
     8  H    0.101609
     9  H   -0.051601
    10  H    0.500990
    11  H   -0.108186
    12  H    0.072596
    13  H    0.106214
    14  H    0.070808
 Sum of Mulliken charges =   0.00000

 Dipole moment (field-independent basis, Debye):
    X=              1.6541    Y=              2.9255    Z=              0.4924  Tot=              3.3966

 Test job not archived.
 1\1\GINC-SE112\SP\RHF\Aug-CC-pVDZ\C5H7N1O1\OHZDE\09-Apr-2025\0\\#t hf
 aug-cc-pvdz iop(5/13=1,5/36=2,99/5=2) pseudo=read geom=check guess=(re
 ad,tcheck) scf=(maxcycle=1)\\title\\0,1\C,0,2.07009447,0.72247857,0.50
 474939\N,0,1.67898349,-0.59871114,0.60768183\C,0,0.49775038,-0.7054252
 8,0.14656992\O,0,-0.37689742,-1.69116886,0.27872188\C,0,-1.5306689,-1.
 10300899,-0.23817225\C,0,-1.57094919,0.35712314,-0.06434365\C,0,-0.163
 59429,0.41231385,-0.63032789\H,0,1.70837854,1.39209509,1.28105897\H,0,
 3.09255504,0.90836072,0.18637737\H,0,0.79756921,1.19659604,-0.34664343

 Normal termination of Gaussian 16 at Wed Apr  9 18:33:54 2025.
