 Gaussian 16, Revision C.01,

 ----------------------------------------------------------------------
 #t hf aug-cc-pvdz symm=none int=(grid=ultrafine) guess=(read,tcheck) s
 table=(opt,rrhf)
 ----------------------------------------------------------------------
 -----
 title
 -----
 Symbolic Z-matrix:
 Charge =  0 Multiplicity = 1

 SCF Done:  E(RHF) =  -338.631966245     A.U. after   15 cycles
 Normal termination of Gaussian 16 at Wed Apr  9 17:49:32 2025.
 Gaussian 16:  ES64L-G16RevC.01  3-Jul-2019

 ----------------------------------------------------------------------
 #t hf aug-cc-pvdz iop(5/13=1,5/36=2,99/5=2) pseudo=read geom=check gue
 ss=(read,tcheck) scf=(maxcycle=1)
 ----------------------------------------------------------------------
 -----
 title
 -----
 Structure from the checkpoint file:  "Grambow2020_wb97xd3_006835_forward_mol1.chk"
 Charge =  0 Multiplicity = 1

                         Standard orientation:
 ---------------------------------------------------------------------
 Center     Atomic      Atomic             Coordinates (Angstroms)
 Number     Number       Type             X           Y           Z
 ---------------------------------------------------------------------
      1          7           0       -2.405575   -0.513568    0.005264
      2          6           0       -1.091526   -0.074545   -0.036198
      3          6           0       -0.640442    1.200429   -0.036811
      4          7           0        0.780840    1.192194    0.116142
      5          6           0        1.176748   -0.079598    0.138505
      6          8           0        2.310357   -0.613251   -0.162377
      7          6           0        0.060401   -0.972164    0.123641
      8          1           0       -3.093593    0.186966   -0.218048
      9          1           0       -2.566319   -1.368444   -0.501287
     10          1           0       -1.177695    2.134289   -0.069849
     11          1           0        1.375283    1.928288   -0.225030
     12          1           0        1.303421   -1.404533   -0.533698
     13          1           0        0.018112   -1.765677    0.862265
 ---------------------------------------------------------------------

 SCF Done:  E(RHF) =  -338.980018906     A.U. after    2 cycles

 The electronic state is 1-A.
 Alpha  occ. eigenvalues --  -20.53541 -15.55285 -15.51518 -11.36725 -11.28666
 Alpha  occ. eigenvalues --  -11.25741 -11.22023  -1.47528  -1.30009  -1.21911
 Alpha  occ. eigenvalues --   -1.06074  -0.98028  -0.84370  -0.83012  -0.75570
 Alpha  occ. eigenvalues --   -0.70297  -0.68675  -0.67287  -0.61998  -0.60059
 Alpha  occ. eigenvalues --   -0.56391  -0.54322  -0.51143  -0.45787  -0.37918
 Alpha  occ. eigenvalues --   -0.30278
 Alpha virt. eigenvalues --    0.02827   0.03726   0.04588   0.05744   0.06294
 Alpha virt. eigenvalues --    0.06839   0.09406   0.10240   0.10494   0.11484
 Alpha virt. eigenvalues --    0.12175   0.13312   0.13979   0.14206   0.15791

 Mulliken charges:
               1
     1  N    0.718679
     2  C   -0.810282
     3  C    0.109770
     4  N    0.596559
     5  C    0.427496
     6  O   -1.411579
     7  C   -0.257127
     8  H    0.061361
     9  H    0.093930
    10  H   -0.212668
    11  H    0.112154
    12  H    0.578186
    13  H   -0.006479
 Sum of Mulliken charges =  -0.00000

 Dipole moment (field-independent basis, Debye):
    X=             -2.6340    Y=              1.4648    Z=             -1.0047  Tot=              3.1769

 Test job not archived.
 1\1\GINC-SE041\SP\RHF\Aug-CC-pVDZ\C4H6N2O1\OHZDE\09-Apr-2025\0\\#t hf
 aug-cc-pvdz iop(5/13=1,5/36=2,99/5=2) pseudo=read geom=check guess=(re
 ad,tcheck) scf=(maxcycle=1)\\title\\0,1\N,0,-2.02202857,0.70999611,-0.
 28960031\C,0,-0.76825874,0.14198742,-0.1264665\C,0,-0.40100517,-1.1404
 0326,-0.34925537\N,0,1.02124336,-1.24241343,-0.24773623\C,0,1.48778308
 ,-0.04403065,0.09999572\O,0,2.57193259,0.29216603,0.7098946\C,0,0.4434
 3281,0.93137905,0.13212441\H,0,-2.77986233,0.05073686,-0.36067738\H,0,
 -2.22661171,1.44321786,0.36901738\H,0,-0.98830646,-1.99908351,-0.63134

 Normal termination of Gaussian 16 at Wed Apr  9 17:49:36 2025.
