 Gaussian 16, Revision C.01,

 ----------------------------------------------------------------------
 #t hf aug-cc-pvdz symm=none int=(grid=ultrafine) guess=(read,tcheck) s
 table=(opt,rrhf)
 ----------------------------------------------------------------------
 -----
 title
 -----
 Symbolic Z-matrix:
 Charge =  0 Multiplicity = 1

 SCF Done:  E(RHF) =  -317.552214037     A.U. after   15 cycles
 Normal termination of Gaussian 16 at Wed Apr  9 18:46:22 2025.
 Gaussian 16:  ES64L-G16RevC.01  3-Jul-2019

 ----------------------------------------------------------------------
 #t hf aug-cc-pvdz iop(5/13=1,5/36=2,99/5=2) pseudo=read geom=check gue
 ss=(read,tcheck) scf=(maxcycle=1)
 ----------------------------------------------------------------------
 -----
 title
 -----
 Structure from the checkpoint file:  "Grambow2020_wb97xd3_008057_forward_mol1.chk"
 Charge =  0 Multiplicity = 1

                         Standard orientation:
 ---------------------------------------------------------------------
 Center     Atomic      Atomic             Coordinates (Angstroms)
 Number     Number       Type             X           Y           Z
 ---------------------------------------------------------------------
      1          7           0       -2.719352   -0.159501   -0.392882
      2          6           0       -1.681928   -0.088244    0.093723
      3          6           0       -0.342431   -0.036166    0.661837
      4          6           0        0.710128   -0.985117   -0.081439
      5          7           0        1.963484   -0.550934    0.186156
      6          6           0        1.361862    0.496961   -0.514513
      7          7           0        0.387537    1.189533    0.295086
      8          1           0       -0.362453   -0.247084    1.730904
      9          1           0        0.468070   -1.988425   -0.441975
     10          1           0        0.490396   -0.231713   -1.294981
     11          1           0        1.889085    0.947702   -1.351845
     12          1           0       -0.192568    1.841231   -0.218265
 ---------------------------------------------------------------------

 SCF Done:  E(RHF) =  -317.877682158     A.U. after    2 cycles

 The electronic state is 1-A.
 Alpha  occ. eigenvalues --  -15.54904 -15.53965 -15.46051 -11.39116 -11.37903
 Alpha  occ. eigenvalues --  -11.34547 -11.30231  -1.37629  -1.26216  -1.21221
 Alpha  occ. eigenvalues --   -1.04468  -0.89901  -0.87859  -0.82863  -0.74189
 Alpha  occ. eigenvalues --   -0.69987  -0.65056  -0.63163  -0.60973  -0.60148
 Alpha  occ. eigenvalues --   -0.53742  -0.52492  -0.51618  -0.45867  -0.38395
 Alpha virt. eigenvalues --    0.02810   0.03752   0.04273   0.04757   0.05580
 Alpha virt. eigenvalues --    0.07539   0.07908   0.09457   0.10793   0.11016
 Alpha virt. eigenvalues --    0.11639   0.12700   0.13058   0.14025   0.14402

 Mulliken charges:
               1
     1  N    1.039929
     2  C   -1.659259
     3  C   -0.119811
     4  C   -0.280046
     5  N    0.520682
     6  C   -0.572589
     7  N    0.435459
     8  H    0.034540
     9  H   -0.096143
    10  H    0.541520
    11  H   -0.104669
    12  H    0.260388
 Sum of Mulliken charges =   0.00000

 Dipole moment (field-independent basis, Debye):
    X=              0.2386    Y=              0.6154    Z=             -1.3475  Tot=              1.5005

 Test job not archived.
 1\1\GINC-SE362\SP\RHF\Aug-CC-pVDZ\C4H5N3\OHZDE\09-Apr-2025\0\\#t hf au
 g-cc-pvdz iop(5/13=1,5/36=2,99/5=2) pseudo=read geom=check guess=(read
 ,tcheck) scf=(maxcycle=1)\\title\\0,1\N,0,2.47091989,-1.24469767,0.896
 8235\C,0,1.72213474,-0.66937424,0.2438051\C,0,0.72457588,0.01959542,-0
 .56236866\C,0,-0.71381522,-0.68154156,-0.54549522\N,0,-1.6513997,0.222
 87793,-0.91153315\C,0,-1.11231797,0.72416475,0.27551014\N,0,0.21914194
 ,1.24618701,0.07771408\H,0,1.07433067,0.15535445,-1.58561573\H,0,-0.85
 709303,-1.76501512,-0.57308292\H,0,-0.77162717,-0.46549876,0.88228902\

 Normal termination of Gaussian 16 at Wed Apr  9 18:46:26 2025.
