 Gaussian 16, Revision C.01,

 ----------------------------------------------------------------------
 #t hf aug-cc-pvdz symm=none int=(grid=ultrafine) guess=(read,tcheck) s
 table=(opt,rrhf)
 ----------------------------------------------------------------------
 -----
 title
 -----
 Symbolic Z-matrix:
 Charge =  0 Multiplicity = 1

 SCF Done:  E(RHF) =  -354.702972536     A.U. after   15 cycles
 Normal termination of Gaussian 16 at Wed Apr  9 03:40:13 2025.
 Gaussian 16:  ES64L-G16RevC.01  3-Jul-2019

 ----------------------------------------------------------------------
 #t hf aug-cc-pvdz iop(5/13=1,5/36=2,99/5=2) pseudo=read geom=check gue
 ss=(read,tcheck) scf=(maxcycle=1)
 ----------------------------------------------------------------------
 -----
 title
 -----
 Structure from the checkpoint file:  "Grambow2020_wb97xd3_007468_reverse_mol1.chk"
 Charge =  0 Multiplicity = 1

                         Standard orientation:
 ---------------------------------------------------------------------
 Center     Atomic      Atomic             Coordinates (Angstroms)
 Number     Number       Type             X           Y           Z
 ---------------------------------------------------------------------
      1          7           0       -2.343591   -0.460239   -0.185732
      2          6           0       -1.054029   -0.010771    0.093289
      3          6           0       -0.579925    1.327478   -0.029672
      4          7           0        0.783540    1.129579   -0.037235
      5          6           0        1.205638   -0.197927   -0.021165
      6          8           0        2.330591   -0.626696   -0.041358
      7          7           0        0.019850   -0.901913    0.048781
      8          1           0       -2.742016   -1.065393    0.515970
      9          1           0       -2.958947    0.310340   -0.399186
     10          1           0       -1.024227    0.711507    1.148362
     11          1           0        1.454477    1.876456   -0.019011
     12          1           0       -0.022718   -1.904008    0.049316
 ---------------------------------------------------------------------

 SCF Done:  E(RHF) =  -355.060451623     A.U. after    2 cycles

 The electronic state is 1-A.
 Alpha  occ. eigenvalues --  -20.51809 -15.55574 -15.54766 -15.53751 -11.39669
 Alpha  occ. eigenvalues --  -11.35658 -11.27946  -1.48152  -1.35744  -1.24748
 Alpha  occ. eigenvalues --   -1.20735  -1.04010  -0.91105  -0.86729  -0.78884
 Alpha  occ. eigenvalues --   -0.74650  -0.72577  -0.72177  -0.66217  -0.64111
 Alpha  occ. eigenvalues --   -0.56486  -0.51838  -0.48830  -0.46984  -0.40693
 Alpha  occ. eigenvalues --   -0.39075
 Alpha virt. eigenvalues --    0.02090   0.04354   0.04795   0.05346   0.05667
 Alpha virt. eigenvalues --    0.08873   0.09717   0.10570   0.11150   0.11699
 Alpha virt. eigenvalues --    0.12884   0.13009   0.14592   0.14840   0.16437

 Mulliken charges:
               1
     1  N    0.442936
     2  C   -1.096117
     3  C   -0.912383
     4  N    0.544104
     5  C    0.696827
     6  O   -1.221098
     7  N    0.565439
     8  H    0.180993
     9  H    0.232474
    10  H    0.428067
    11  H    0.085961
    12  H    0.052798
 Sum of Mulliken charges =  -0.00000

 Dipole moment (field-independent basis, Debye):
    X=             -3.6699    Y=             -1.0485    Z=              1.5946  Tot=              4.1364

 Test job not archived.
 1\1\GINC-SE340\SP\RHF\Aug-CC-pVDZ\C3H5N3O1\OHZDE\09-Apr-2025\0\\#t hf
 aug-cc-pvdz iop(5/13=1,5/36=2,99/5=2) pseudo=read geom=check guess=(re
 ad,tcheck) scf=(maxcycle=1)\\title\\0,1\N,0,2.00037736,0.03320159,0.23
 205986\C,0,0.63176564,0.14003286,-0.00946553\C,0,-0.17305584,1.2999775
 6,0.18442575\N,0,-1.43655329,0.7507589,0.19829289\C,0,-1.49663012,-0.6
 3895277,0.12220126\O,0,-2.46925669,-1.34861031,0.13457862\N,0,-0.16994
 108,-1.00295318,0.00395848\H,0,2.52625897,-0.41444897,-0.50305767\H,0,
 2.39749441,0.9281483,0.47574855\H,0,0.38840551,0.87498892,-1.02748701\

 Normal termination of Gaussian 16 at Wed Apr  9 03:40:17 2025.
