 Gaussian 16, Revision C.01,

 ----------------------------------------------------------------------
 #t hf aug-cc-pvdz symm=none int=(grid=ultrafine) guess=(read,tcheck) s
 table=(opt,rrhf)
 ----------------------------------------------------------------------
 -----
 title
 -----
 Symbolic Z-matrix:
 Charge =  0 Multiplicity = 1

 SCF Done:  E(RHF) =  -342.357880749     A.U. after   16 cycles
 Normal termination of Gaussian 16 at Wed Apr  9 03:59:38 2025.
 Gaussian 16:  ES64L-G16RevC.01  3-Jul-2019

 ----------------------------------------------------------------------
 #t hf aug-cc-pvdz iop(5/13=1,5/36=2,99/5=2) pseudo=read geom=check gue
 ss=(read,tcheck) scf=(maxcycle=1)
 ----------------------------------------------------------------------
 -----
 title
 -----
 Structure from the checkpoint file:  "Grambow2020_wb97xd3_008758_forward_mol1.chk"
 Charge =  0 Multiplicity = 1

                         Standard orientation:
 ---------------------------------------------------------------------
 Center     Atomic      Atomic             Coordinates (Angstroms)
 Number     Number       Type             X           Y           Z
 ---------------------------------------------------------------------
      1          8           0       -2.446425   -0.372277   -0.198745
      2          6           0       -1.542102    0.120027    0.553240
      3          6           0       -0.397002    0.355255   -0.249208
      4          8           0        0.616577    1.292110    0.077433
      5          6           0        1.619795    0.345050   -0.280367
      6          6           0        1.587955   -0.844721    0.610718
      7          6           0        0.618793   -0.740561   -0.546738
      8          1           0       -1.748458    0.313931    1.605472
      9          1           0       -1.614670   -0.024284   -1.063368
     10          1           0        2.471197    0.699852   -0.844011
     11          1           0        2.388660   -1.558964    0.460504
     12          1           0        1.245998   -0.737420    1.633619
     13          1           0        0.571416   -1.462077   -1.347592
 ---------------------------------------------------------------------

 SCF Done:  E(RHF) =  -342.704623346     A.U. after    2 cycles

 The electronic state is 1-A.
 Alpha  occ. eigenvalues --  -20.59222 -20.55493 -11.37114 -11.30148 -11.27788
 Alpha  occ. eigenvalues --  -11.26000 -11.24726  -1.52270  -1.48986  -1.14410
 Alpha  occ. eigenvalues --   -1.01275  -0.87739  -0.82983  -0.79986  -0.73584
 Alpha  occ. eigenvalues --   -0.68395  -0.66261  -0.65294  -0.60208  -0.56775
 Alpha  occ. eigenvalues --   -0.53775  -0.50659  -0.49145  -0.46631  -0.40528
 Alpha  occ. eigenvalues --   -0.31813
 Alpha virt. eigenvalues --    0.03403   0.03506   0.04329   0.04641   0.05874
 Alpha virt. eigenvalues --    0.06697   0.06828   0.09494   0.10223   0.11728
 Alpha virt. eigenvalues --    0.13017   0.13513   0.13929   0.14328   0.14595

 Mulliken charges:
               1
     1  O   -1.223883
     2  C    1.128114
     3  C    0.101785
     4  O   -1.560087
     5  C    1.228974
     6  C    0.100657
     7  C    0.124498
     8  H    0.063336
     9  H    0.664635
    10  H   -0.132312
    11  H   -0.092766
    12  H   -0.135415
    13  H   -0.267537
 Sum of Mulliken charges =  -0.00000

 Dipole moment (field-independent basis, Debye):
    X=              1.0870    Y=             -1.3837    Z=              0.9000  Tot=              1.9764

 Test job not archived.
 1\1\GINC-SE402\SP\RHF\Aug-CC-pVDZ\C5H6O2\OHZDE\09-Apr-2025\0\\#t hf au
 g-cc-pvdz iop(5/13=1,5/36=2,99/5=2) pseudo=read geom=check guess=(read
 ,tcheck) scf=(maxcycle=1)\\title\\0,1\O,0,2.07161321,0.9412422,-1.5013
 5171\C,0,1.69981453,0.8143768,-0.28837389\C,0,0.8247239,-0.29928213,-0
 .22137112\O,0,0.57692151,-1.03797452,0.96381251\C,0,-0.81908452,-1.047
 61353,0.6766478\C,0,-1.38758359,0.32613215,0.69187678\C,0,-0.66104356,
 -0.17812559,-0.53600348\H,0,2.08712071,1.48554383,0.47772205\H,0,1.509
 12478,-0.17233598,-1.56491212\H,0,-1.36260938,-1.96701657,0.84321212\H

 Normal termination of Gaussian 16 at Wed Apr  9 03:59:42 2025.
