 Gaussian 16, Revision C.01,

 ----------------------------------------------------------------------
 #t hf aug-cc-pvdz symm=none int=(grid=ultrafine) guess=(read,tcheck) s
 table=(opt,rrhf)
 ----------------------------------------------------------------------
 -----
 title
 -----
 Symbolic Z-matrix:
 Charge =  0 Multiplicity = 1

 SCF Done:  E(RHF) =  -232.996088929     A.U. after   13 cycles
 Normal termination of Gaussian 16 at Wed Apr  9 03:15:37 2025.
 Gaussian 16:  ES64L-G16RevC.01  3-Jul-2019

 ----------------------------------------------------------------------
 #t hf aug-cc-pvdz iop(5/13=1,5/36=2,99/5=2) pseudo=read geom=check gue
 ss=(read,tcheck) scf=(maxcycle=1)
 ----------------------------------------------------------------------
 -----
 title
 -----
 Structure from the checkpoint file:  "Grambow2020_b97d3_006954_reverse_mol2.chk"
 Charge =  0 Multiplicity = 1

                         Standard orientation:
 ---------------------------------------------------------------------
 Center     Atomic      Atomic             Coordinates (Angstroms)
 Number     Number       Type             X           Y           Z
 ---------------------------------------------------------------------
      1          6           0        1.039085    1.504544   -0.203801
      2          6           0        1.122010    0.132358    0.435171
      3          6           0        1.174077   -1.103038   -0.436784
      4          6           0       -0.036215   -0.848169    0.440163
      5          6           0       -1.372879   -0.565491   -0.162433
      6          6           0       -2.097242    0.545935    0.040264
      7          1           0        0.617609    2.247775    0.489312
      8          1           0        0.406471    1.486996   -1.099726
      9          1           0        2.041908    1.847892   -0.498970
     10          1           0        1.746224    0.096577    1.331206
     11          1           0        1.048120   -0.947206   -1.509489
     12          1           0        1.850133   -1.916697   -0.173317
     13          1           0       -0.089585   -1.487953    1.326618
     14          1           0       -1.786957   -1.360727   -0.792113
     15          1           0       -3.079965    0.677717   -0.414579
     16          1           0       -1.726984    1.358786    0.665583
 ---------------------------------------------------------------------

 SCF Done:  E(RHF) =  -233.250860270     A.U. after    2 cycles

 The electronic state is 1-A.
 Alpha  occ. eigenvalues --  -11.24333 -11.23988 -11.23935 -11.23263 -11.23053
 Alpha  occ. eigenvalues --  -11.22564  -1.15218  -1.03105  -0.96245  -0.84439
 Alpha  occ. eigenvalues --   -0.79572  -0.72998  -0.67878  -0.63899  -0.61079
 Alpha  occ. eigenvalues --   -0.56904  -0.55493  -0.54327  -0.50674  -0.49189
 Alpha  occ. eigenvalues --   -0.43021  -0.40825  -0.36000
 Alpha virt. eigenvalues --    0.03624   0.03849   0.03932   0.04169   0.05888
 Alpha virt. eigenvalues --    0.06159   0.06564   0.06753   0.07618   0.09471
 Alpha virt. eigenvalues --    0.11657   0.12085   0.13709   0.14283   0.14621

 Mulliken charges:
               1
     1  C   -0.669139
     2  C    0.286776
     3  C    0.135843
     4  C    0.390006
     5  C    0.258591
     6  C   -0.114121
     7  H    0.224915
     8  H    0.217037
     9  H    0.108995
    10  H   -0.163212
    11  H   -0.066197
    12  H   -0.137531
    13  H   -0.120271
    14  H   -0.183500
    15  H   -0.109877
    16  H   -0.058315
 Sum of Mulliken charges =  -0.00000

 Dipole moment (field-independent basis, Debye):
    X=              0.2974    Y=             -0.0442    Z=              0.0654  Tot=              0.3077

 Test job not archived.
 1\1\GINC-SE162\SP\RHF\Aug-CC-pVDZ\C6H10\OHZDE\09-Apr-2025\0\\#t hf aug
 -cc-pvdz iop(5/13=1,5/36=2,99/5=2) pseudo=read geom=check guess=(read,
 tcheck) scf=(maxcycle=1)\\title\\0,1\C,0,1.69077684,-0.31296299,0.0265
 8084\C,0,0.39707889,-1.06819724,0.25900635\C,0,-0.5391568,-1.33358358,
 -0.8995503\C,0,-0.9664914,-0.40335854,0.21887137\C,0,-1.17897915,1.052
 70077,-0.03497981\C,0,-0.5267176,2.05183351,0.57930483\H,0,2.06178602,
 0.14730477,0.95445239\H,0,1.55571216,0.48667483,-0.71201817\H,0,2.4683
 6721,-0.99628458,-0.34636754\H,0,0.48102859,-1.88012375,0.98531946\H,0

 Normal termination of Gaussian 16 at Wed Apr  9 03:15:42 2025.
