 Gaussian 16, Revision C.01,

 ----------------------------------------------------------------------
 #t hf aug-cc-pvdz symm=none int=(grid=ultrafine) guess=(read,tcheck) s
 table=(opt,rrhf)
 ----------------------------------------------------------------------
 -----
 title
 -----
 Symbolic Z-matrix:
 Charge =  0 Multiplicity = 1

 SCF Done:  E(RHF) =  -353.488047125     A.U. after   16 cycles
 Normal termination of Gaussian 16 at Wed Apr  9 17:14:08 2025.
 Gaussian 16:  ES64L-G16RevC.01  3-Jul-2019

 ----------------------------------------------------------------------
 #t hf aug-cc-pvdz iop(5/13=1,5/36=2,99/5=2) pseudo=read geom=check gue
 ss=(read,tcheck) scf=(maxcycle=1)
 ----------------------------------------------------------------------
 -----
 title
 -----
 Structure from the checkpoint file:  "Grambow2020_wb97xd3_006536_forward_mol1.chk"
 Charge =  0 Multiplicity = 1

                         Standard orientation:
 ---------------------------------------------------------------------
 Center     Atomic      Atomic             Coordinates (Angstroms)
 Number     Number       Type             X           Y           Z
 ---------------------------------------------------------------------
      1          8           0       -2.147136    0.067547    0.000787
      2          6           0       -0.893062    0.231670   -0.000590
      3          7           0       -0.376692   -1.026944   -0.000655
      4          7           0        0.883967   -1.308342    0.000020
      5          6           0        1.678274   -0.250916    0.000074
      6          6           0        1.154125    1.053776   -0.000013
      7          7           0       -0.133206    1.334232   -0.000573
      8          1           0       -1.655502   -1.198818    0.001244
      9          1           0        2.742088   -0.441050    0.002077
     10          1           0        1.835991    1.899692    0.002014
 ---------------------------------------------------------------------

 SCF Done:  E(RHF) =  -353.838069364     A.U. after    2 cycles

 The electronic state is 1-A.
 Alpha  occ. eigenvalues --  -20.55233 -15.61994 -15.58869 -15.54732 -11.39961
 Alpha  occ. eigenvalues --  -11.34855 -11.30272  -1.51976  -1.40739  -1.28966
 Alpha  occ. eigenvalues --   -1.15888  -1.01592  -0.96246  -0.84052  -0.77486
 Alpha  occ. eigenvalues --   -0.71260  -0.70243  -0.65273  -0.62932  -0.60054
 Alpha  occ. eigenvalues --   -0.56684  -0.52455  -0.50084  -0.48245  -0.39323
 Alpha virt. eigenvalues --    0.00139   0.02635   0.04138   0.05392   0.07991
 Alpha virt. eigenvalues --    0.08710   0.09843   0.10080   0.10958   0.11125
 Alpha virt. eigenvalues --    0.12927   0.13356   0.13447   0.14026   0.15695

 Mulliken charges:
               1
     1  O   -1.245408
     2  C    0.575069
     3  N   -0.130155
     4  N    0.000619
     5  C   -0.095615
     6  C   -0.163469
     7  N    0.710841
     8  H    0.535283
     9  H   -0.104968
    10  H   -0.082196
 Sum of Mulliken charges =  -0.00000

 Dipole moment (field-independent basis, Debye):
    X=              3.9083    Y=              0.4062    Z=              0.0029  Tot=              3.9293

 Test job not archived.
 1\1\GINC-SE229\SP\RHF\Aug-CC-pVDZ\C3H3N3O1\OHZDE\09-Apr-2025\0\\#t hf
 aug-cc-pvdz iop(5/13=1,5/36=2,99/5=2) pseudo=read geom=check guess=(re
 ad,tcheck) scf=(maxcycle=1)\\title\\0,1\O,0,2.32989536,-0.74256674,0.2
 4336897\C,0,1.08891424,-0.53700365,0.11165382\N,0,0.95867826,0.8171472
 ,0.10394729\N,0,-0.1608642,1.45108569,-0.01091964\C,0,-1.22075145,0.66
 855762,-0.12651708\C,0,-1.09632289,-0.73195122,-0.11978789\N,0,0.04887
 158,-1.37270111,-0.00212345\H,0,2.22538123,0.61184849,0.23890839\H,0,-
 2.17922301,1.15820027,-0.22366475\H,0,-1.98863111,-1.34453454,-0.21490

 Normal termination of Gaussian 16 at Wed Apr  9 17:14:11 2025.
