 Gaussian 16, Revision C.01,

 ----------------------------------------------------------------------
 #t hf aug-cc-pvdz symm=none int=(grid=ultrafine) guess=(read,tcheck) s
 table=(opt,rrhf)
 ----------------------------------------------------------------------
 -----
 title
 -----
 Symbolic Z-matrix:
 Charge =  0 Multiplicity = 1

 SCF Done:  E(RHF) =  -323.728461067     A.U. after   16 cycles
 Normal termination of Gaussian 16 at Wed Apr  9 17:54:47 2025.
 Gaussian 16:  ES64L-G16RevC.01  3-Jul-2019

 ----------------------------------------------------------------------
 #t hf aug-cc-pvdz iop(5/13=1,5/36=2,99/5=2) pseudo=read geom=check gue
 ss=(read,tcheck) scf=(maxcycle=1)
 ----------------------------------------------------------------------
 -----
 title
 -----
 Structure from the checkpoint file:  "Grambow2020_wb97xd3_006870_forward_mol1.chk"
 Charge =  0 Multiplicity = 1

                         Standard orientation:
 ---------------------------------------------------------------------
 Center     Atomic      Atomic             Coordinates (Angstroms)
 Number     Number       Type             X           Y           Z
 ---------------------------------------------------------------------
      1          6           0        2.646335    0.169543    0.008470
      2          7           0        0.976060    0.230456   -0.834944
      3          6           0        1.044401   -0.293196    0.745991
      4          6           0        0.041990   -0.658675   -0.299309
      5          6           0       -1.354200   -0.143856   -0.021985
      6          8           0       -2.266674   -0.930320    0.033582
      7          6           0       -1.562389    1.341515    0.106611
      8          1           0        3.051660    0.343117    1.010581
      9          1           0        2.855500    1.048789   -0.584876
     10          1           0        3.091232   -0.721593   -0.420793
     11          1           0        1.508492   -1.193946    1.138494
     12          1           0        0.752558    0.441321    1.484683
     13          1           0        0.014655   -1.709752   -0.610485
     14          1           0       -2.443025    1.529961    0.717432
     15          1           0       -0.687794    1.858728    0.497250
     16          1           0       -1.739122    1.740752   -0.895003
 ---------------------------------------------------------------------

 SCF Done:  E(RHF) =  -324.063847011     A.U. after    2 cycles

 The electronic state is 1-A.
 Alpha  occ. eigenvalues --  -20.52841 -15.51132 -11.33412 -11.30926 -11.30713
 Alpha  occ. eigenvalues --  -11.27327 -11.23614  -1.46836  -1.25771  -1.02145
 Alpha  occ. eigenvalues --   -0.98805  -0.92187  -0.86383  -0.75093  -0.69415
 Alpha  occ. eigenvalues --   -0.65590  -0.63915  -0.61963  -0.60462  -0.59015
 Alpha  occ. eigenvalues --   -0.57509  -0.54928  -0.53210  -0.49961  -0.45243
 Alpha  occ. eigenvalues --   -0.41071  -0.38383
 Alpha virt. eigenvalues --    0.02645   0.03727   0.03866   0.04365   0.05691
 Alpha virt. eigenvalues --    0.05741   0.06814   0.06944   0.07853   0.10907
 Alpha virt. eigenvalues --    0.11724   0.12579   0.12994   0.13244   0.13874

 Mulliken charges:
               1
     1  C   -0.303025
     2  N    0.504376
     3  C    0.019165
     4  C   -0.463591
     5  C    1.104802
     6  O   -1.419681
     7  C   -0.423819
     8  H    0.145369
     9  H    0.140560
    10  H    0.167964
    11  H    0.104323
    12  H   -0.055032
    13  H   -0.089969
    14  H    0.150880
    15  H    0.139696
    16  H    0.277982
 Sum of Mulliken charges =  -0.00000

 Dipole moment (field-independent basis, Debye):
    X=              3.7432    Y=              0.9926    Z=              2.2132  Tot=              4.4603

 Test job not archived.
 1\1\GINC-SE226\SP\RHF\Aug-CC-pVDZ\C5H9N1O1\OHZDE\09-Apr-2025\0\\#t hf
 aug-cc-pvdz iop(5/13=1,5/36=2,99/5=2) pseudo=read geom=check guess=(re
 ad,tcheck) scf=(maxcycle=1)\\title\\0,1\C,0,1.75447296,-0.0975958,-1.5
 0113\N,0,-0.06041743,0.21459673,-1.16410818\C,0,0.81888829,-0.63522348
 ,-0.03147247\C,0,-0.6451159,-0.72588392,-0.3134804\C,0,-1.52259386,-0.
 22059171,0.81168844\O,0,-2.34941974,-0.95988934,1.28499512\C,0,-1.3761
 0531,1.21132948,1.25254047\H,0,2.68374656,-0.15876686,-0.92549882\H,0,
 1.72291755,0.87746579,-1.96711513\H,0,1.72082931,-0.89603255,-2.234403

 Normal termination of Gaussian 16 at Wed Apr  9 17:54:52 2025.
