 Gaussian 16, Revision C.01,

 ----------------------------------------------------------------------
 #t hf aug-cc-pvdz symm=none int=(grid=ultrafine) guess=(read,tcheck) s
 table=(opt,rrhf)
 ----------------------------------------------------------------------
 -----
 title
 -----
 Symbolic Z-matrix:
 Charge =  0 Multiplicity = 1

 SCF Done:  E(RHF) =  -306.865753624     A.U. after   15 cycles

 1\1\GINC-SE141\Stability\RHF\Aug-CC-pVDZ\C4H10O2\OHZDE\09-Apr-2025\0\\
 #t hf aug-cc-pvdz symm=none int=(grid=ultrafine) guess=(read,tcheck) s
 table=(opt,rrhf)\\title\\0,1\C,0,-1.66062393,-0.66275551,0.01195957\C,
 0,-0.46036572,0.22652714,-0.29595323\C,0,0.59420892,-0.38823414,-1.006
 81163\O,0,1.11758718,0.25492816,-2.08265032\C,0,0.0584328,0.83753995,1
 .47070917\O,0,1.26871892,1.25115817,1.57680445\H,0,-2.24501614,-0.8665
 3111,-0.89790761\H,0,-1.34588753,-1.62920713,0.43088413\H,0,-2.3290115
 9,-0.18027135,0.73858111\H,0,-0.71980322,1.1816017,-0.76393977\H,0,0.7

 Normal termination of Gaussian 16 at Wed Apr  9 16:04:35 2025.
 Gaussian 16:  ES64L-G16RevC.01  3-Jul-2019

 ----------------------------------------------------------------------
 #t hf aug-cc-pvdz iop(5/13=1,5/36=2,99/5=2) pseudo=read geom=check gue
 ss=(read,tcheck) scf=(maxcycle=1)
 ----------------------------------------------------------------------
 -----
 title
 -----
 Structure from the checkpoint file:  "Grambow2020_b97d3_007105_forward_mol1.chk"
 Charge =  0 Multiplicity = 1

                         Standard orientation:
 ---------------------------------------------------------------------
 Center     Atomic      Atomic             Coordinates (Angstroms)
 Number     Number       Type             X           Y           Z
 ---------------------------------------------------------------------
      1          6           0       -0.017087    2.042542    0.122947
      2          6           0       -0.159844    0.591425   -0.324417
      3          6           0       -1.129831   -0.171436    0.363002
      4          8           0       -2.004769   -0.917891   -0.359702
      5          6           0        1.645559   -0.083152   -0.102941
      6          8           0        1.747732   -1.358046    0.003515
      7          1           0       -0.880154    2.642838   -0.202104
      8          1           0        0.050599    2.119267    1.217532
      9          1           0        0.887389    2.496814   -0.304921
     10          1           0       -0.283153    0.466688   -1.405028
     11          1           0       -1.409210    0.075529    1.390884
     12          1           0       -0.218980   -1.584967    1.081522
     13          1           0       -2.516501   -1.490576    0.244103
     14          1           0        1.947905    0.366981   -1.068483
     15          1           0        1.905103    0.556049    0.770531
     16          1           0        0.540522   -1.717408    0.773911
 ---------------------------------------------------------------------

 SCF Done:  E(RHF) =  -307.186644902     A.U. after    2 cycles

 The electronic state is 1-A.
 Alpha  occ. eigenvalues --  -20.62550 -20.48747 -11.38558 -11.31347 -11.25221
 Alpha  occ. eigenvalues --  -11.24455  -1.53271  -1.39720  -1.08926  -0.95048
 Alpha  occ. eigenvalues --   -0.86589  -0.80907  -0.77287  -0.67303  -0.66663
 Alpha  occ. eigenvalues --   -0.62336  -0.60280  -0.58238  -0.56710  -0.55656
 Alpha  occ. eigenvalues --   -0.54744  -0.52097  -0.44141  -0.36943  -0.33854
 Alpha virt. eigenvalues --    0.02113   0.03346   0.03804   0.04855   0.05887
 Alpha virt. eigenvalues --    0.06530   0.06714   0.07666   0.08012   0.09142
 Alpha virt. eigenvalues --    0.10715   0.11884   0.13399   0.13980   0.15071

 Mulliken charges:
               1
     1  C   -0.254028
     2  C   -0.626627
     3  C    1.047933
     4  O   -1.224029
     5  C    0.810461
     6  O   -1.294276
     7  H    0.126907
     8  H    0.207705
     9  H    0.140871
    10  H    0.045898
    11  H    0.066404
    12  H    0.167084
    13  H    0.359714
    14  H    0.146697
    15  H    0.175186
    16  H    0.104100
 Sum of Mulliken charges =  -0.00000

 Dipole moment (field-independent basis, Debye):
    X=             -4.0443    Y=              2.7395    Z=              1.4192  Tot=              5.0867

 Test job not archived.
 1\1\GINC-SE141\SP\RHF\Aug-CC-pVDZ\C4H10O2\OHZDE\09-Apr-2025\0\\#t hf a
 ug-cc-pvdz iop(5/13=1,5/36=2,99/5=2) pseudo=read geom=check guess=(rea
 d,tcheck) scf=(maxcycle=1)\\title\\0,1\C,0,-1.66062393,-0.66275551,0.0
 1195957\C,0,-0.46036572,0.22652714,-0.29595323\C,0,0.59420892,-0.38823
 414,-1.00681163\O,0,1.11758718,0.25492816,-2.08265032\C,0,0.0584328,0.
 83753995,1.47070917\O,0,1.26871892,1.25115817,1.57680445\H,0,-2.245016
 14,-0.86653111,-0.89790761\H,0,-1.34588753,-1.62920713,0.43088413\H,0,
 -2.32901159,-0.18027135,0.73858111\H,0,-0.71980322,1.1816017,-0.763939

 Normal termination of Gaussian 16 at Wed Apr  9 16:04:41 2025.
