 Gaussian 16, Revision C.01,

 ----------------------------------------------------------------------
 #t hf aug-cc-pvdz symm=none int=(grid=ultrafine) guess=(read,tcheck) s
 table=(opt,rrhf)
 ----------------------------------------------------------------------
 -----
 title
 -----
 Symbolic Z-matrix:
 Charge =  0 Multiplicity = 1

 SCF Done:  E(RHF) =  -345.851090503     A.U. after   16 cycles

 1\1\GINC-SE117\Stability\RHF\Aug-CC-pVDZ\C5H12O2\OHZDE\09-Apr-2025\0\\
 #t hf aug-cc-pvdz symm=none int=(grid=ultrafine) guess=(read,tcheck) s
 table=(opt,rrhf)\\title\\0,1\C,0,-1.72933451,-0.67836875,1.17438775\O,
 0,-0.39939338,-0.24373316,1.01596442\C,0,-0.18216554,0.55826704,-0.141
 29237\C,0,-0.37164776,2.0323244,0.19332703\C,0,1.23145866,0.29428856,-
 0.59938732\C,0,1.03957154,-1.61538423,-1.29265835\O,0,1.85765766,-1.24
 074247,-0.01702402\H,0,-2.41909358,0.16475247,1.29180497\H,0,-1.764516
 91,-1.28396862,2.07887404\H,0,-2.0460405,-1.28559237,0.31931339\H,0,-0

 Normal termination of Gaussian 16 at Wed Apr  9 18:44:08 2025.
 Gaussian 16:  ES64L-G16RevC.01  3-Jul-2019

 ----------------------------------------------------------------------
 #t hf aug-cc-pvdz iop(5/13=1,5/36=2,99/5=2) pseudo=read geom=check gue
 ss=(read,tcheck) scf=(maxcycle=1)
 ----------------------------------------------------------------------
 -----
 title
 -----
 Structure from the checkpoint file:  "Grambow2020_wb97xd3_008011_forward_mol1.chk"
 Charge =  0 Multiplicity = 1

                         Standard orientation:
 ---------------------------------------------------------------------
 Center     Atomic      Atomic             Coordinates (Angstroms)
 Number     Number       Type             X           Y           Z
 ---------------------------------------------------------------------
      1          6           0       -1.541313    1.664758    0.119484
      2          8           0       -0.751989    0.669154   -0.487549
      3          6           0       -0.551175   -0.487871    0.319051
      4          6           0       -1.638088   -1.519370    0.044553
      5          6           0        0.807900   -1.039999   -0.035830
      6          6           0        2.008434    0.398430    0.772832
      7          8           0        1.860372    0.164355   -0.763446
      8          1           0       -2.552490    1.302914    0.336273
      9          1           0       -1.612585    2.492727   -0.584414
     10          1           0       -1.078887    2.017378    1.047922
     11          1           0       -0.541086   -0.194611    1.370664
     12          1           0       -1.669340   -1.771702   -1.016224
     13          1           0       -2.615706   -1.131691    0.335335
     14          1           0       -1.459394   -2.430322    0.619597
     15          1           0        0.760476   -1.556910   -1.006726
     16          1           0        1.204727   -1.714834    0.710443
     17          1           0        2.054324    1.484460    0.917915
     18          1           0        3.002231   -0.005990    0.977458
     19          1           0        1.126121    0.744824   -1.020829
 ---------------------------------------------------------------------

 SCF Done:  E(RHF) =  -346.217721765     A.U. after    2 cycles

 The electronic state is 1-A.
 Alpha  occ. eigenvalues --  -20.57112 -20.56246 -11.33888 -11.30479 -11.29246
 Alpha  occ. eigenvalues --  -11.24140 -11.20135  -1.48730  -1.44724  -1.08108
 Alpha  occ. eigenvalues --   -0.95505  -0.93709  -0.85170  -0.82093  -0.70501
 Alpha  occ. eigenvalues --   -0.69849  -0.65832  -0.63202  -0.61574  -0.59510
 Alpha  occ. eigenvalues --   -0.58296  -0.57007  -0.54371  -0.52498  -0.51609
 Alpha  occ. eigenvalues --   -0.48877  -0.46934  -0.43392  -0.26512
 Alpha virt. eigenvalues --    0.03214   0.03449   0.03884   0.04611   0.05938
 Alpha virt. eigenvalues --    0.06140   0.06499   0.07110   0.07391   0.09084
 Alpha virt. eigenvalues --    0.09235   0.09761   0.12896   0.12971   0.13225

 Mulliken charges:
               1
     1  C    0.145587
     2  O   -1.522048
     3  C    0.774546
     4  C   -0.506602
     5  C    0.344351
     6  C    0.186584
     7  O   -1.174317
     8  H    0.179765
     9  H   -0.027896
    10  H    0.184003
    11  H    0.255604
    12  H    0.220107
    13  H    0.112094
    14  H    0.231751
    15  H   -0.000239
    16  H    0.222027
    17  H   -0.147704
    18  H   -0.072488
    19  H    0.594875
 Sum of Mulliken charges =   0.00000

 Dipole moment (field-independent basis, Debye):
    X=             -3.2362    Y=             -0.7433    Z=             -0.0845  Tot=              3.3216

 Test job not archived.
 1\1\GINC-SE117\SP\RHF\Aug-CC-pVDZ\C5H12O2\OHZDE\09-Apr-2025\0\\#t hf a
 ug-cc-pvdz iop(5/13=1,5/36=2,99/5=2) pseudo=read geom=check guess=(rea
 d,tcheck) scf=(maxcycle=1)\\title\\0,1\C,0,-1.72933451,-0.67836875,1.1
 7438775\O,0,-0.39939338,-0.24373316,1.01596442\C,0,-0.18216554,0.55826
 704,-0.14129237\C,0,-0.37164776,2.0323244,0.19332703\C,0,1.23145866,0.
 29428856,-0.59938732\C,0,1.03957154,-1.61538423,-1.29265835\O,0,1.8576
 5766,-1.24074247,-0.01702402\H,0,-2.41909358,0.16475247,1.29180497\H,0
 ,-1.76451691,-1.28396862,2.07887404\H,0,-2.0460405,-1.28559237,0.31931

 Normal termination of Gaussian 16 at Wed Apr  9 18:44:17 2025.
