 Gaussian 16, Revision C.01,

 ----------------------------------------------------------------------
 #t hf aug-cc-pvdz symm=none int=(grid=ultrafine) guess=(read,tcheck) s
 table=(opt,rrhf)
 ----------------------------------------------------------------------
 -----
 title
 -----
 Symbolic Z-matrix:
 Charge =  0 Multiplicity = 1

 SCF Done:  E(RHF) =  -338.596842761     A.U. after   16 cycles
 Normal termination of Gaussian 16 at Wed Apr  9 17:50:33 2025.
 Gaussian 16:  ES64L-G16RevC.01  3-Jul-2019

 ----------------------------------------------------------------------
 #t hf aug-cc-pvdz iop(5/13=1,5/36=2,99/5=2) pseudo=read geom=check gue
 ss=(read,tcheck) scf=(maxcycle=1)
 ----------------------------------------------------------------------
 -----
 title
 -----
 Structure from the checkpoint file:  "Grambow2020_wb97xd3_006844_reverse_mol1.chk"
 Charge =  0 Multiplicity = 1

                         Standard orientation:
 ---------------------------------------------------------------------
 Center     Atomic      Atomic             Coordinates (Angstroms)
 Number     Number       Type             X           Y           Z
 ---------------------------------------------------------------------
      1          7           0        2.270380   -0.483615    0.025258
      2          6           0        0.939895   -0.007955   -0.092382
      3          6           0        0.405572    1.212322    0.228857
      4          7           0       -0.922571    1.240915   -0.010643
      5          6           0       -1.398245    0.031151   -0.580505
      6          8           0       -1.371107   -1.038794    0.683084
      7          6           0       -0.160969   -0.760222   -0.584251
      8          1           0        2.956757    0.198817   -0.257505
      9          1           0        2.491994   -0.809529    0.955250
     10          1           0        0.929198    2.081428    0.610598
     11          1           0       -1.469443    2.080856   -0.017108
     12          1           0       -2.027790   -1.661618    0.358264
     13          1           0       -0.064047   -1.732469   -1.046800
 ---------------------------------------------------------------------

 SCF Done:  E(RHF) =  -338.942387336     A.U. after    2 cycles

 The electronic state is 1-A.
 Alpha  occ. eigenvalues --  -20.56840 -15.52327 -15.50119 -11.30785 -11.30292
 Alpha  occ. eigenvalues --  -11.25372 -11.24855  -1.44012  -1.27973  -1.19331
 Alpha  occ. eigenvalues --   -1.04418  -0.97651  -0.83273  -0.80036  -0.74493
 Alpha  occ. eigenvalues --   -0.70433  -0.67207  -0.67012  -0.61049  -0.59607
 Alpha  occ. eigenvalues --   -0.56947  -0.52080  -0.46881  -0.44598  -0.35763
 Alpha  occ. eigenvalues --   -0.32230
 Alpha virt. eigenvalues --    0.02834   0.03926   0.04520   0.05358   0.05639
 Alpha virt. eigenvalues --    0.06013   0.08041   0.09982   0.10569   0.11494
 Alpha virt. eigenvalues --    0.12580   0.13197   0.14140   0.14662   0.15330

 Mulliken charges:
               1
     1  N    0.770541
     2  C   -1.249750
     3  C   -0.119740
     4  N    0.646221
     5  C   -0.676838
     6  O   -1.057634
     7  C    1.049156
     8  H    0.183598
     9  H    0.255724
    10  H   -0.161904
    11  H    0.027735
    12  H    0.416466
    13  H   -0.083572
 Sum of Mulliken charges =   0.00000

 Dipole moment (field-independent basis, Debye):
    X=              2.3420    Y=              1.3583    Z=              1.1952  Tot=              2.9595

 Test job not archived.
 1\1\GINC-SE229\SP\RHF\Aug-CC-pVDZ\C4H6N2O1\OHZDE\09-Apr-2025\0\\#t hf
 aug-cc-pvdz iop(5/13=1,5/36=2,99/5=2) pseudo=read geom=check guess=(re
 ad,tcheck) scf=(maxcycle=1)\\title\\0,1\N,0,-1.9600917,0.81469502,-0.2
 2446561\C,0,-0.69901482,0.1666644,-0.21958543\C,0,-0.38591841,-1.15721
 195,-0.05498563\N,0,0.94991053,-1.34919326,-0.08409261\C,0,1.6661284,-
 0.14938753,-0.33316107\O,0,1.54112048,0.68851257,1.08967852\C,0,0.5568
 1756,0.81198616,-0.38140165\H,0,-2.66206235,0.30177676,-0.73528361\H,0
 ,-2.30547105,1.01262297,0.70384209\H,0,-1.07289004,-1.98670287,0.06859

 Normal termination of Gaussian 16 at Wed Apr  9 17:50:37 2025.
