 Gaussian 16, Revision C.01,

 ----------------------------------------------------------------------
 #t hf aug-cc-pvdz symm=none int=(grid=ultrafine) guess=(read,tcheck) s
 table=(opt,rrhf)
 ----------------------------------------------------------------------
 -----
 title
 -----
 Symbolic Z-matrix:
 Charge =  0 Multiplicity = 1

 SCF Done:  E(RHF) =  -345.854034305     A.U. after   16 cycles

 1\1\GINC-SE100\Stability\RHF\Aug-CC-pVDZ\C5H12O2\OHZDE\09-Apr-2025\0\\
 #t hf aug-cc-pvdz symm=none int=(grid=ultrafine) guess=(read,tcheck) s
 table=(opt,rrhf)\\title\\0,1\C,0,2.65499908,0.39608325,-0.68208837\O,0
 ,1.26601754,0.54453848,-0.83778766\C,0,0.53591839,-0.58972834,-0.42777
 311\C,0,-0.92606945,-0.2463091,-0.46758809\C,0,-1.86832757,-1.2631613,
 0.10277076\C,0,-0.94718571,0.9846687,1.20380143\O,0,-1.19704847,1.5009
 2177,-0.24265523\H,0,3.03209778,-0.44896932,-1.27102612\H,0,3.122689,1
 .312631,-1.03781593\H,0,2.91767805,0.23963477,0.37047332\H,0,0.7042787

 Normal termination of Gaussian 16 at Wed Apr  9 19:19:30 2025.
 Gaussian 16:  ES64L-G16RevC.01  3-Jul-2019

 ----------------------------------------------------------------------
 #t hf aug-cc-pvdz iop(5/13=1,5/36=2,99/5=2) pseudo=read geom=check gue
 ss=(read,tcheck) scf=(maxcycle=1)
 ----------------------------------------------------------------------
 -----
 title
 -----
 Structure from the checkpoint file:  "Grambow2020_wb97xd3_009274_reverse_mol1.chk"
 Charge =  0 Multiplicity = 1

                         Standard orientation:
 ---------------------------------------------------------------------
 Center     Atomic      Atomic             Coordinates (Angstroms)
 Number     Number       Type             X           Y           Z
 ---------------------------------------------------------------------
      1          6           0        2.738277   -0.047879    0.215397
      2          8           0        1.458006    0.110211   -0.342693
      3          6           0        0.524672   -0.835030    0.129667
      4          6           0       -0.832491   -0.454669   -0.390300
      5          6           0       -1.996446   -1.233972    0.143593
      6          6           0       -1.128916    1.189551    0.841758
      7          8           0       -0.950358    1.296578   -0.700269
      8          1           0        3.151475   -1.037760   -0.013881
      9          1           0        3.380941    0.714338   -0.222031
     10          1           0        2.711052    0.081336    1.303480
     11          1           0        0.773091   -1.828660   -0.285986
     12          1           0        0.523083   -0.876639    1.220798
     13          1           0       -0.817134   -0.586781   -1.483870
     14          1           0       -2.932781   -0.730432   -0.095934
     15          1           0       -1.934896   -1.361238    1.221912
     16          1           0       -2.019894   -2.207393   -0.365195
     17          1           0       -2.186031    1.431955    0.978028
     18          1           0       -0.540079    2.006047    1.274581
     19          1           0       -0.000585    1.432906   -0.828897
 ---------------------------------------------------------------------

 SCF Done:  E(RHF) =  -346.220560637     A.U. after    2 cycles

 The electronic state is 1-A.
 Alpha  occ. eigenvalues --  -20.56604 -20.56467 -11.34583 -11.30107 -11.29406
 Alpha  occ. eigenvalues --  -11.24144 -11.19701  -1.49022  -1.44343  -1.08585
 Alpha  occ. eigenvalues --   -0.98156  -0.90460  -0.85068  -0.81371  -0.70695
 Alpha  occ. eigenvalues --   -0.68763  -0.67876  -0.64183  -0.61575  -0.58827
 Alpha  occ. eigenvalues --   -0.56980  -0.56302  -0.55279  -0.52086  -0.50778
 Alpha  occ. eigenvalues --   -0.48972  -0.46447  -0.43558  -0.26385
 Alpha virt. eigenvalues --    0.03181   0.03465   0.03937   0.04573   0.05890
 Alpha virt. eigenvalues --    0.06054   0.06372   0.07129   0.08061   0.08833
 Alpha virt. eigenvalues --    0.09365   0.09690   0.11761   0.13068   0.14060

 Mulliken charges:
               1
     1  C    0.130981
     2  O   -1.294934
     3  C    0.903566
     4  C    0.104334
     5  C   -0.204274
     6  C    0.109679
     7  O   -1.279639
     8  H    0.188193
     9  H   -0.026070
    10  H    0.176563
    11  H    0.127719
    12  H    0.201327
    13  H   -0.122048
    14  H    0.226142
    15  H    0.293290
    16  H    0.186239
    17  H   -0.062144
    18  H   -0.174214
    19  H    0.515291
 Sum of Mulliken charges =  -0.00000

 Dipole moment (field-independent basis, Debye):
    X=              2.0571    Y=             -2.5210    Z=             -0.6175  Tot=              3.3119

 Test job not archived.
 1\1\GINC-SE100\SP\RHF\Aug-CC-pVDZ\C5H12O2\OHZDE\09-Apr-2025\0\\#t hf a
 ug-cc-pvdz iop(5/13=1,5/36=2,99/5=2) pseudo=read geom=check guess=(rea
 d,tcheck) scf=(maxcycle=1)\\title\\0,1\C,0,2.65499908,0.39608325,-0.68
 208837\O,0,1.26601754,0.54453848,-0.83778766\C,0,0.53591839,-0.5897283
 4,-0.42777311\C,0,-0.92606945,-0.2463091,-0.46758809\C,0,-1.86832757,-
 1.2631613,0.10277076\C,0,-0.94718571,0.9846687,1.20380143\O,0,-1.19704
 847,1.50092177,-0.24265523\H,0,3.03209778,-0.44896932,-1.27102612\H,0,
 3.122689,1.312631,-1.03781593\H,0,2.91767805,0.23963477,0.37047332\H,0

 Normal termination of Gaussian 16 at Wed Apr  9 19:19:38 2025.
