 Gaussian 16, Revision C.01,

 ----------------------------------------------------------------------
 #t hf aug-cc-pvdz symm=none int=(grid=ultrafine) guess=(read,tcheck) s
 table=(opt,rrhf)
 ----------------------------------------------------------------------
 -----
 title
 -----
 Symbolic Z-matrix:
 Charge =  0 Multiplicity = 1

 SCF Done:  E(RHF) =  -306.574254559     A.U. after   16 cycles
 Normal termination of Gaussian 16 at Wed Apr  9 18:54:51 2025.
 Gaussian 16:  ES64L-G16RevC.01  3-Jul-2019

 ----------------------------------------------------------------------
 #t hf aug-cc-pvdz iop(5/13=1,5/36=2,99/5=2) pseudo=read geom=check gue
 ss=(read,tcheck) scf=(maxcycle=1)
 ----------------------------------------------------------------------
 -----
 title
 -----
 Structure from the checkpoint file:  "Grambow2020_wb97xd3_008217_reverse_mol1.chk"
 Charge =  0 Multiplicity = 1

                         Standard orientation:
 ---------------------------------------------------------------------
 Center     Atomic      Atomic             Coordinates (Angstroms)
 Number     Number       Type             X           Y           Z
 ---------------------------------------------------------------------
      1          6           0        1.053563   -0.948366   -0.511100
      2          8           0        1.625628    0.317034   -0.219583
      3          6           0        0.651615    0.944251    0.577054
      4          6           0       -0.584482    1.359408   -0.154693
      5          6           0       -1.527771    0.452400   -0.372462
      6          6           0       -1.344646   -0.928301    0.207854
      7          6           0        0.053340   -1.223442    0.635189
      8          1           0        0.567108   -0.928394   -1.500647
      9          1           0        1.856727   -1.687228   -0.531463
     10          1           0        1.117808    1.749762    1.146376
     11          1           0       -0.672376    2.378590   -0.512012
     12          1           0       -2.430760    0.684858   -0.927243
     13          1           0       -2.078753   -1.116592    0.996801
     14          1           0       -1.539698   -1.685131   -0.571043
     15          1           0        0.365214    0.132162    1.364844
 ---------------------------------------------------------------------

 SCF Done:  E(RHF) =  -306.890253770     A.U. after    2 cycles

 The electronic state is 1-A.
 Alpha  occ. eigenvalues --  -20.55661 -11.31665 -11.28814 -11.27129 -11.26084
 Alpha  occ. eigenvalues --  -11.25203 -11.24779  -1.48499  -1.13155  -1.03561
 Alpha  occ. eigenvalues --   -0.94702  -0.93263  -0.76901  -0.75117  -0.70373
 Alpha  occ. eigenvalues --   -0.68534  -0.64091  -0.60221  -0.59376  -0.57756
 Alpha  occ. eigenvalues --   -0.54837  -0.51772  -0.48646  -0.43880  -0.38904
 Alpha  occ. eigenvalues --   -0.33521
 Alpha virt. eigenvalues --    0.03080   0.03588   0.04233   0.04388   0.05832
 Alpha virt. eigenvalues --    0.05977   0.06770   0.07282   0.08693   0.10326
 Alpha virt. eigenvalues --    0.11825   0.12230   0.13803   0.14087   0.14485

 Mulliken charges:
               1
     1  C    0.646910
     2  O   -1.274345
     3  C    0.109880
     4  C    0.558085
     5  C    0.180461
     6  C   -0.373977
     7  C   -0.755633
     8  H    0.129008
     9  H    0.022038
    10  H   -0.068168
    11  H   -0.132105
    12  H   -0.122719
    13  H    0.143959
    14  H    0.337928
    15  H    0.598675
 Sum of Mulliken charges =  -0.00000

 Dipole moment (field-independent basis, Debye):
    X=             -2.0916    Y=              1.0425    Z=             -1.1244  Tot=              2.5934

 Test job not archived.
 1\1\GINC-SE173\SP\RHF\Aug-CC-pVDZ\C6H8O1\OHZDE\09-Apr-2025\0\\#t hf au
 g-cc-pvdz iop(5/13=1,5/36=2,99/5=2) pseudo=read geom=check guess=(read
 ,tcheck) scf=(maxcycle=1)\\title\\0,1\C,0,-1.37142477,-0.36743355,-0.7
 5056588\O,0,-1.03905076,-1.55131424,-0.04244662\C,0,-0.09342358,-1.116
 39732,0.90273569\C,0,1.23936296,-0.74928773,0.33295148\C,0,1.39414223,
 0.45940679,-0.19143614\C,0,0.24447834,1.43276703,-0.1049353\C,0,-1.063
 69247,0.79513149,0.22094495\H,0,-0.78711356,-0.30417437,-1.6837425\H,0
 ,-2.43206352,-0.41056641,-1.00471011\H,0,-0.03992852,-1.84101144,1.716

 Normal termination of Gaussian 16 at Wed Apr  9 18:54:56 2025.
