 Gaussian 16, Revision C.01,

 ----------------------------------------------------------------------
 #t hf aug-cc-pvdz symm=none int=(grid=ultrafine) guess=(read,tcheck) s
 table=(opt,rrhf)
 ----------------------------------------------------------------------
 -----
 title
 -----
 Symbolic Z-matrix:
 Charge =  0 Multiplicity = 1

 SCF Done:  E(RHF) =  -337.559578376     A.U. after   15 cycles
 Normal termination of Gaussian 16 at Wed Apr  9 03:58:24 2025.
 Gaussian 16:  ES64L-G16RevC.01  3-Jul-2019

 ----------------------------------------------------------------------
 #t hf aug-cc-pvdz iop(5/13=1,5/36=2,99/5=2) pseudo=read geom=check gue
 ss=(read,tcheck) scf=(maxcycle=1)
 ----------------------------------------------------------------------
 -----
 title
 -----
 Structure from the checkpoint file:  "Grambow2020_wb97xd3_008694_reverse_mol2.chk"
 Charge =  0 Multiplicity = 1

                         Standard orientation:
 ---------------------------------------------------------------------
 Center     Atomic      Atomic             Coordinates (Angstroms)
 Number     Number       Type             X           Y           Z
 ---------------------------------------------------------------------
      1          8           0       -2.592516   -0.399853   -0.008207
      2          6           0       -1.739617    0.438429    0.007053
      3          6           0       -0.272322    0.143271    0.001319
      4          6           0        0.811733    1.148190   -0.003283
      5          7           0        1.948515    0.572525   -0.003796
      6          6           0        1.647802   -0.840224    0.001635
      7          7           0        0.219826   -1.035261    0.003387
      8          1           0       -1.994128    1.517474    0.028727
      9          1           0        0.699417    2.227226   -0.007126
     10          1           0        2.085140   -1.325573   -0.876474
     11          1           0        2.085738   -1.319154    0.883048
 ---------------------------------------------------------------------

 SCF Done:  E(RHF) =  -337.896190902     A.U. after    2 cycles

 The electronic state is 1-A.
 Alpha  occ. eigenvalues --  -20.57368 -15.54449 -15.53392 -11.36735 -11.31141
 Alpha  occ. eigenvalues --  -11.31091 -11.30882  -1.50617  -1.34987  -1.20600
 Alpha  occ. eigenvalues --   -1.04631  -0.92844  -0.85215  -0.79716  -0.75655
 Alpha  occ. eigenvalues --   -0.68514  -0.67890  -0.66812  -0.61144  -0.57024
 Alpha  occ. eigenvalues --   -0.53169  -0.50902  -0.49125  -0.45992  -0.44577
 Alpha virt. eigenvalues --    0.01106   0.02760   0.04280   0.04859   0.05413
 Alpha virt. eigenvalues --    0.07750   0.08763   0.08986   0.10233   0.10578
 Alpha virt. eigenvalues --    0.12727   0.13473   0.14197   0.14419   0.15005

 Mulliken charges:
               1
     1  O   -1.196555
     2  C    1.354389
     3  C   -0.686176
     4  C   -0.738553
     5  N    0.656580
     6  C   -0.382082
     7  N    0.839856
     8  H    0.126096
     9  H   -0.123954
    10  H    0.074946
    11  H    0.075454
 Sum of Mulliken charges =  -0.00000

 Dipole moment (field-independent basis, Debye):
    X=              0.8920    Y=              2.7541    Z=              0.0321  Tot=              2.8952

 Test job not archived.
 1\1\GINC-SE338\SP\RHF\Aug-CC-pVDZ\C4H4N2O1\OHZDE\09-Apr-2025\0\\#t hf
 aug-cc-pvdz iop(5/13=1,5/36=2,99/5=2) pseudo=read geom=check guess=(re
 ad,tcheck) scf=(maxcycle=1)\\title\\0,1\O,0,-2.61059611,-1.21865008,-0
 .13700412\C,0,-2.00113485,-0.18971919,-0.15261245\C,0,-0.51194108,-0.0
 9434183,-0.03723451\C,0,0.28002682,1.15322825,-0.07483879\N,0,1.520908
 67,0.89345566,0.05320351\C,0,1.58672396,-0.5437528,0.18133054\N,0,0.25
 934326,-1.10108738,0.11354454\H,0,-2.52032712,0.78472071,-0.25503162\H
 ,0,-0.09991076,2.16241629,-0.19372664\H,0,2.20609863,-0.96862516,-0.61

 Normal termination of Gaussian 16 at Wed Apr  9 03:58:28 2025.
