 Gaussian 16, Revision C.01,

 ----------------------------------------------------------------------
 #t hf aug-cc-pvdz symm=none int=(grid=ultrafine) guess=(read,tcheck) s
 table=(opt,rrhf)
 ----------------------------------------------------------------------
 -----
 title
 -----
 Symbolic Z-matrix:
 Charge =  0 Multiplicity = 1

 SCF Done:  E(RHF) =  -304.559985374     A.U. after   15 cycles
 Normal termination of Gaussian 16 at Wed Apr  9 17:10:07 2025.
 Gaussian 16:  ES64L-G16RevC.01  3-Jul-2019

 ----------------------------------------------------------------------
 #t hf aug-cc-pvdz iop(5/13=1,5/36=2,99/5=2) pseudo=read geom=check gue
 ss=(read,tcheck) scf=(maxcycle=1)
 ----------------------------------------------------------------------
 -----
 title
 -----
 Structure from the checkpoint file:  "Grambow2020_wb97xd3_006274_forward_mol1.chk"
 Charge =  0 Multiplicity = 1

                         Standard orientation:
 ---------------------------------------------------------------------
 Center     Atomic      Atomic             Coordinates (Angstroms)
 Number     Number       Type             X           Y           Z
 ---------------------------------------------------------------------
      1          8           0        2.402304    0.470526   -0.346561
      2          6           0        1.844904   -0.117064    0.453765
      3          8           0        0.243905   -0.975721    0.065086
      4          6           0       -0.704021   -0.133489   -0.488347
      5          6           0       -1.328149    0.963675    0.332526
      6          6           0       -2.125648   -0.256380   -0.050832
      7          1           0        1.054551   -0.603697    1.145191
      8          1           0       -0.532330    0.087419   -1.538215
      9          1           0       -1.031438    1.046388    1.370996
     10          1           0       -1.554412    1.907364   -0.146313
     11          1           0       -2.321396   -0.979335    0.729938
     12          1           0       -2.907161   -0.157022   -0.792462
 ---------------------------------------------------------------------

 SCF Done:  E(RHF) =  -304.868364589     A.U. after    2 cycles

 The electronic state is 1-A.
 Alpha  occ. eigenvalues --  -20.66179 -20.51727 -11.43865 -11.27776 -11.22875
 Alpha  occ. eigenvalues --  -11.22352  -1.61225  -1.40857  -1.12492  -0.89633
 Alpha  occ. eigenvalues --   -0.82417  -0.79609  -0.75157  -0.68938  -0.66378
 Alpha  occ. eigenvalues --   -0.65005  -0.62057  -0.54020  -0.52087  -0.49386
 Alpha  occ. eigenvalues --   -0.47800  -0.40037  -0.35457
 Alpha virt. eigenvalues --    0.03700   0.04331   0.04787   0.04913   0.06596
 Alpha virt. eigenvalues --    0.06851   0.08503   0.08861   0.11118   0.11508
 Alpha virt. eigenvalues --    0.12706   0.13770   0.14365   0.15299   0.15749

 Mulliken charges:
               1
     1  O   -0.683607
     2  C    0.600840
     3  O   -1.602288
     4  C    1.390333
     5  C   -0.006587
     6  C    0.072038
     7  H    0.786275
     8  H   -0.112934
     9  H   -0.124262
    10  H   -0.101276
    11  H   -0.103544
    12  H   -0.114987
 Sum of Mulliken charges =  -0.00000

 Dipole moment (field-independent basis, Debye):
    X=              0.6248    Y=              1.0099    Z=              1.2552  Tot=              1.7279

 Test job not archived.
 1\1\GINC-SE112\SP\RHF\Aug-CC-pVDZ\C4H6O2\OHZDE\09-Apr-2025\0\\#t hf au
 g-cc-pvdz iop(5/13=1,5/36=2,99/5=2) pseudo=read geom=check guess=(read
 ,tcheck) scf=(maxcycle=1)\\title\\0,1\O,0,2.5476926,-1.56179531,0.5386
 5952\C,0,2.34879462,-0.73714404,-0.22085856\O,0,1.19702838,0.66595395,
 0.17450475\C,0,-0.05555899,0.24247961,0.58181535\C,0,-0.9879062,-0.436
 86371,-0.38584\C,0,-1.26195703,0.96801502,0.08608683\H,0,1.88702621,0.
 08202799,-0.89559279\H,0,-0.08457531,-0.11099207,1.60880942\H,0,-0.654
 47203,-0.55140614,-1.4100465\H,0,-1.61629133,-1.24087163,-0.02565222\H

 Normal termination of Gaussian 16 at Wed Apr  9 17:10:10 2025.
