 Gaussian 16, Revision C.01,

 ----------------------------------------------------------------------
 #t hf aug-cc-pvdz symm=none int=(grid=ultrafine) guess=(read,tcheck) s
 table=(opt,rrhf)
 ----------------------------------------------------------------------
 -----
 title
 -----
 Symbolic Z-matrix:
 Charge =  0 Multiplicity = 1

 SCF Done:  E(RHF) =  -283.566523545     A.U. after   15 cycles
 Normal termination of Gaussian 16 at Wed Apr  9 15:44:39 2025.
 Gaussian 16:  ES64L-G16RevC.01  3-Jul-2019

 ----------------------------------------------------------------------
 #t hf aug-cc-pvdz iop(5/13=1,5/36=2,99/5=2) pseudo=read geom=check gue
 ss=(read,tcheck) scf=(maxcycle=1)
 ----------------------------------------------------------------------
 -----
 title
 -----
 Structure from the checkpoint file:  "Grambow2020_b97d3_006731_reverse_mol2.chk"
 Charge =  0 Multiplicity = 1

                         Standard orientation:
 ---------------------------------------------------------------------
 Center     Atomic      Atomic             Coordinates (Angstroms)
 Number     Number       Type             X           Y           Z
 ---------------------------------------------------------------------
      1          6           0        1.639335   -0.207729   -0.712893
      2          6           0        0.346830    1.033506    0.285889
      3          8           0       -1.014626    0.951519   -0.130822
      4          6           0       -1.332924   -0.389356   -0.186320
      5          7           0       -0.458562   -1.260336    0.118535
      6          6           0        0.781659   -0.557659    0.400194
      7          1           0        0.899561    1.648884   -0.444105
      8          1           0        2.569884    0.199102   -0.245122
      9          1           0        0.438640    1.465361    1.289856
     10          1           0       -2.353561   -0.578459   -0.509445
     11          1           0        1.163007   -0.797261    1.404426
 ---------------------------------------------------------------------

 SCF Done:  E(RHF) =  -283.850583167     A.U. after    2 cycles

 The electronic state is 1-A.
 Alpha  occ. eigenvalues --  -20.60369 -15.50587 -11.35825 -11.34176 -11.30310
 Alpha  occ. eigenvalues --  -11.27948  -1.53216  -1.24635  -1.09537  -0.92258
 Alpha  occ. eigenvalues --   -0.87180  -0.78336  -0.73635  -0.69498  -0.64656
 Alpha  occ. eigenvalues --   -0.62510  -0.58615  -0.55273  -0.51013  -0.48861
 Alpha  occ. eigenvalues --   -0.42064  -0.37785
 Alpha virt. eigenvalues --    0.03029   0.04198   0.04424   0.04617   0.06460
 Alpha virt. eigenvalues --    0.08061   0.09682   0.09807   0.10784   0.11772
 Alpha virt. eigenvalues --    0.13162   0.13382   0.13597   0.14855   0.15998

 Mulliken charges:
               1
     1  C   -0.339207
     2  C    0.557557
     3  O   -1.258618
     4  C    0.557737
     5  N    0.632315
     6  C   -0.652682
     7  H    0.119485
     8  H    0.168473
     9  H    0.152488
    10  H    0.062246
    11  H    0.000206
 Sum of Mulliken charges =  -0.00000

 Dipole moment (field-independent basis, Debye):
    X=              0.1461    Y=              2.2397    Z=              2.2785  Tot=              3.1983

 Test job not archived.
 1\1\GINC-SE037\SP\RHF\Aug-CC-pVDZ\C4H5N1O1\OHZDE\09-Apr-2025\0\\#t hf
 aug-cc-pvdz iop(5/13=1,5/36=2,99/5=2) pseudo=read geom=check guess=(re
 ad,tcheck) scf=(maxcycle=1)\\title\\0,1\C,0,-1.34683179,0.74484363,0.5
 7640196\C,0,-0.27142611,-0.2650016,-0.84926127\O,0,1.035527,0.24864144
 ,-1.09820906\C,0,1.62867842,0.43856044,0.13241764\N,0,0.99096811,0.149
 59819,1.19349239\C,0,-0.34286007,-0.27392083,0.80263691\H,0,-1.0032952
 2,0.37123872,-1.37524481\H,0,-2.30001884,0.18229919,0.41758784\H,0,-0.
 36851452,-1.30573328,-1.18141899\H,0,2.6349781,0.84505812,0.0692578\H,

 Normal termination of Gaussian 16 at Wed Apr  9 15:44:43 2025.
