 Gaussian 16, Revision C.01,

 ----------------------------------------------------------------------
 #t hf aug-cc-pvdz symm=none int=(grid=ultrafine) guess=(read,tcheck) s
 table=(opt,rrhf)
 ----------------------------------------------------------------------
 -----
 title
 -----
 Symbolic Z-matrix:
 Charge =  0 Multiplicity = 1

 SCF Done:  E(RHF) =  -152.509450294     A.U. after   11 cycles
 Normal termination of Gaussian 16 at Wed Apr  9 03:09:06 2025.
 Gaussian 16:  ES64L-G16RevC.01  3-Jul-2019

 ----------------------------------------------------------------------
 #t hf aug-cc-pvdz iop(5/13=1,5/36=2,99/5=2) pseudo=read geom=check gue
 ss=(read,tcheck) scf=(maxcycle=1)
 ----------------------------------------------------------------------
 -----
 title
 -----
 Structure from the checkpoint file:  "Grambow2020_b97d3_006637_forward_mol2.chk"
 Charge =  0 Multiplicity = 1

                         Standard orientation:
 ---------------------------------------------------------------------
 Center     Atomic      Atomic             Coordinates (Angstroms)
 Number     Number       Type             X           Y           Z
 ---------------------------------------------------------------------
      1          6           0       -0.683176   -0.000172    0.000023
      2          6           0       -1.907202    0.000494   -0.000003
      3          6           0        0.683164    0.000109   -0.000026
      4          6           0        1.907207   -0.000450    0.000005
      5          1           0       -2.977402   -0.001567   -0.000016
      6          1           0        2.977440    0.001676    0.000022
 ---------------------------------------------------------------------

 SCF Done:  E(RHF) =  -152.661729426     A.U. after    2 cycles

 The electronic state is 1-A.
 Alpha  occ. eigenvalues --  -11.28313 -11.28231 -11.27707 -11.27705  -1.09170
 Alpha  occ. eigenvalues --   -1.02174  -0.86448  -0.74220  -0.71847  -0.50068
 Alpha  occ. eigenvalues --   -0.50068  -0.37665  -0.37665
 Alpha virt. eigenvalues --    0.03328   0.03477   0.07495   0.07495   0.08678
 Alpha virt. eigenvalues --    0.10743   0.10743   0.11479   0.12610   0.12611
 Alpha virt. eigenvalues --    0.13793   0.16086   0.19432   0.19432   0.20522

 Mulliken charges:
               1
     1  C    0.929554
     2  C   -0.438169
     3  C    0.929576
     4  C   -0.438296
     5  H   -0.491397
     6  H   -0.491268
 Sum of Mulliken charges =   0.00000

 Dipole moment (field-independent basis, Debye):
    X=              0.0000    Y=              0.0001    Z=              0.0000  Tot=              0.0001

 Test job not archived.
 1\1\GINC-SE036\SP\RHF\Aug-CC-pVDZ\C4H2\OHZDE\09-Apr-2025\0\\#t hf aug-
 cc-pvdz iop(5/13=1,5/36=2,99/5=2) pseudo=read geom=check guess=(read,t
 check) scf=(maxcycle=1)\\title\\0,1\C,0,0.67594456,-0.0070501,-0.08929
 58\C,0,1.88685817,-0.01983396,0.08892675\C,0,-0.67590841,0.0070537,-0.
 28723765\C,0,-1.8868554,0.01983288,-0.46535704\H,0,2.94597868,-0.03077
 146,0.24214793\H,0,-2.94601761,0.03076894,-0.61851865\\Version=ES64L-G
 16RevC.01\State=1-A\HF=-152.6617294\RMSD=4.950e-02\Dipole=-0.0000193,-
 0.000001,0.0000345\Quadrupole=7.3034755,-3.7687291,-3.5347463,-0.11543

 Normal termination of Gaussian 16 at Wed Apr  9 03:09:08 2025.
