 Gaussian 16, Revision C.01,

 ----------------------------------------------------------------------
 #t hf aug-cc-pvdz symm=none int=(grid=ultrafine) guess=(read,tcheck) s
 table=(opt,rrhf)
 ----------------------------------------------------------------------
 -----
 title
 -----
 Symbolic Z-matrix:
 Charge =  0 Multiplicity = 1

 SCF Done:  E(RHF) =  -281.615887319     A.U. after   15 cycles
 Normal termination of Gaussian 16 at Wed Apr  9 03:07:36 2025.
 Gaussian 16:  ES64L-G16RevC.01  3-Jul-2019

 ----------------------------------------------------------------------
 #t hf aug-cc-pvdz iop(5/13=1,5/36=2,99/5=2) pseudo=read geom=check gue
 ss=(read,tcheck) scf=(maxcycle=1)
 ----------------------------------------------------------------------
 -----
 title
 -----
 Structure from the checkpoint file:  "Grambow2020_b97d3_006581_forward_mol1.chk"
 Charge =  0 Multiplicity = 1

                         Standard orientation:
 ---------------------------------------------------------------------
 Center     Atomic      Atomic             Coordinates (Angstroms)
 Number     Number       Type             X           Y           Z
 ---------------------------------------------------------------------
      1          8           0       -0.471739   -1.119738    0.002423
      2          6           0       -1.291631   -0.132694   -0.125833
      3          7           0       -0.715028    1.027653   -0.006282
      4          6           0        0.848514    0.044062    0.389531
      5          8           0        1.782281    0.087018   -0.340393
      6          1           0       -2.360266   -0.321978   -0.306194
      7          1           0       -1.229065    1.908608   -0.009250
      8          1           0        0.768897    0.013344    1.480982
 ---------------------------------------------------------------------

 SCF Done:  E(RHF) =  -281.890502462     A.U. after    2 cycles

 The electronic state is 1-A.
 Alpha  occ. eigenvalues --  -20.56900 -20.56468 -15.52700 -11.44395 -11.38434
 Alpha  occ. eigenvalues --   -1.52172  -1.48473  -1.21739  -0.90298  -0.84445
 Alpha  occ. eigenvalues --   -0.77944  -0.69198  -0.68255  -0.60787  -0.59543
 Alpha  occ. eigenvalues --   -0.58657  -0.46887  -0.44950  -0.43077
 Alpha virt. eigenvalues --    0.02669   0.04236   0.04781   0.08281   0.09733
 Alpha virt. eigenvalues --    0.10172   0.10460   0.11945   0.13200   0.14924
 Alpha virt. eigenvalues --    0.15264   0.15853   0.17579   0.18443   0.20325

 Mulliken charges:
               1
     1  O   -1.121995
     2  C    0.330643
     3  N    0.352471
     4  C    1.117414
     5  O   -1.038654
     6  H    0.115776
     7  H    0.003324
     8  H    0.241022
 Sum of Mulliken charges =   0.00000

 Dipole moment (field-independent basis, Debye):
    X=             -3.4438    Y=              1.4634    Z=              1.8387  Tot=              4.1692

 Test job not archived.
 1\1\GINC-SE249\SP\RHF\Aug-CC-pVDZ\C2H3N1O2\OHZDE\09-Apr-2025\0\\#t hf
 aug-cc-pvdz iop(5/13=1,5/36=2,99/5=2) pseudo=read geom=check guess=(re
 ad,tcheck) scf=(maxcycle=1)\\title\\0,1\O,0,-0.44000654,0.23904167,-1.
 21202624\C,0,-1.01950568,-0.21194544,-0.15196911\N,0,-0.24521939,-0.20
 609271,0.89379165\C,0,1.1018249,0.38614888,-0.29090336\O,0,1.57342038,
 1.4672654,-0.16705425\H,0,-2.06190085,-0.56069277,-0.19808234\H,0,-0.5
 2235535,-0.59539906,1.79488079\H,0,1.53880753,-0.58027097,-0.56224713\
 \Version=ES64L-G16RevC.01\State=1-A\HF=-281.8905025\RMSD=1.248e-02\Dip

 Normal termination of Gaussian 16 at Wed Apr  9 03:07:39 2025.
