 Gaussian 16, Revision C.01,

 ----------------------------------------------------------------------
 #t hf aug-cc-pvdz symm=none int=(grid=ultrafine) guess=(read,tcheck) s
 table=(opt,rrhf)
 ----------------------------------------------------------------------
 -----
 title
 -----
 Symbolic Z-matrix:
 Charge =  0 Multiplicity = 1

 SCF Done:  E(RHF) =  -320.200107211     A.U. after   21 cycles
 Normal termination of Gaussian 16 at Wed Apr  9 19:19:45 2025.
 Gaussian 16:  ES64L-G16RevC.01  3-Jul-2019

 ----------------------------------------------------------------------
 #t hf aug-cc-pvdz iop(5/13=1,5/36=2,99/5=2) pseudo=read geom=check gue
 ss=(read,tcheck) scf=(maxcycle=1)
 ----------------------------------------------------------------------
 -----
 title
 -----
 Structure from the checkpoint file:  "Grambow2020_wb97xd3_009368_forward_mol1.chk"
 Charge =  0 Multiplicity = 1

                         Standard orientation:
 ---------------------------------------------------------------------
 Center     Atomic      Atomic             Coordinates (Angstroms)
 Number     Number       Type             X           Y           Z
 ---------------------------------------------------------------------
      1          6           0        2.790747   -0.150946   -0.186390
      2          6           0        1.601063   -0.101611   -0.010835
      3          6           0        0.217222   -0.012232    0.205433
      4          6           0       -0.662798   -1.140606    0.163468
      5          8           0       -1.828548   -1.116826   -0.162867
      6          7           0       -1.491628    1.350381   -0.303148
      7          6           0       -0.404679    1.331666    0.262677
      8          1           0        3.843185   -0.207363   -0.338264
      9          1           0       -0.193932   -2.064691    0.549537
     10          1           0        0.171202    2.196363    0.607583
 ---------------------------------------------------------------------

 SCF Done:  E(RHF) =  -320.510403410     A.U. after    2 cycles

 The electronic state is 1-A.
 Alpha  occ. eigenvalues --  -20.54239 -15.62414 -11.35007 -11.34561 -11.30341
 Alpha  occ. eigenvalues --  -11.27278 -11.26601  -1.47583  -1.30339  -1.10834
 Alpha  occ. eigenvalues --   -1.01631  -0.88341  -0.80811  -0.77384  -0.72506
 Alpha  occ. eigenvalues --   -0.67438  -0.65489  -0.64265  -0.59760  -0.53554
 Alpha  occ. eigenvalues --   -0.47395  -0.44509  -0.42413  -0.33269
 Alpha virt. eigenvalues --   -0.05212   0.02814   0.03446   0.04636   0.07014
 Alpha virt. eigenvalues --    0.08324   0.08617   0.09382   0.09787   0.10866
 Alpha virt. eigenvalues --    0.11031   0.12761   0.13827   0.14626   0.15193

 Mulliken charges:
               1
     1  C    0.015910
     2  C    0.618259
     3  C    0.210541
     4  C    0.856102
     5  O   -1.221469
     6  N    0.850923
     7  C   -1.048358
     8  H   -0.381376
     9  H    0.113492
    10  H   -0.014024
 Sum of Mulliken charges =  -0.00000

 Dipole moment (field-independent basis, Debye):
    X=              4.3922    Y=              1.4193    Z=              1.5004  Tot=              4.8535

 Test job not archived.
 1\1\GINC-SE219\SP\RHF\Aug-CC-pVDZ\C5H3N1O1\OHZDE\09-Apr-2025\0\\#t hf
 aug-cc-pvdz iop(5/13=1,5/36=2,99/5=2) pseudo=read geom=check guess=(re
 ad,tcheck) scf=(maxcycle=1)\\title\\0,1\C,0,2.33884383,0.10876678,0.45
 807628\C,0,1.1614024,0.0915947,0.20920183\C,0,-0.20637012,0.04524144,-
 0.10196416\C,0,-1.13156472,1.07930214,0.2503999\O,0,-2.3092277,0.92488
 027,0.4855524\N,0,-1.88127378,-1.44721321,-0.15501882\C,0,-0.77104326,
 -1.22209198,-0.62264612\H,0,3.38010111,0.13715044,0.67910085\H,0,-0.68
 25487,2.08898118,0.20856383\H,0,-0.14597106,-1.91582776,-1.19388598\\V

 Normal termination of Gaussian 16 at Wed Apr  9 19:19:48 2025.
