 Gaussian 16, Revision C.01,

 ----------------------------------------------------------------------
 #t hf aug-cc-pvdz symm=none int=(grid=ultrafine) guess=(read,tcheck) s
 table=(opt,rrhf)
 ----------------------------------------------------------------------
 -----
 title
 -----
 Symbolic Z-matrix:
 Charge =  0 Multiplicity = 1

 SCF Done:  E(RHF) =  -271.022411119     A.U. after   15 cycles

 1\1\GINC-SE163\Stability\RHF\Aug-CC-pVDZ\C5H12O1\OHZDE\09-Apr-2025\0\\
 #t hf aug-cc-pvdz symm=none int=(grid=ultrafine) guess=(read,tcheck) s
 table=(opt,rrhf)\\title\\0,1\C,0,-1.86539338,0.85530581,0.56595858\C,0
 ,-1.20240942,-0.28749221,-0.17623838\C,0,-0.32733951,-1.13710142,0.491
 73779\O,0,0.0519233,-2.36899305,0.00858564\C,0,1.7745966,0.10623094,0.
 46527892\C,0,1.83984139,0.91944315,-0.65415214\H,0,-2.18014736,1.64853
 553,-0.12594815\H,0,-2.75528447,0.5168578,1.11890111\H,0,-1.16633001,1
 .30056094,1.28696338\H,0,-1.7888219,-0.73187815,-0.99022164\H,0,-0.333

 Normal termination of Gaussian 16 at Wed Apr  9 15:50:10 2025.
 Gaussian 16:  ES64L-G16RevC.01  3-Jul-2019

 ----------------------------------------------------------------------
 #t hf aug-cc-pvdz iop(5/13=1,5/36=2,99/5=2) pseudo=read geom=check gue
 ss=(read,tcheck) scf=(maxcycle=1)
 ----------------------------------------------------------------------
 -----
 title
 -----
 Structure from the checkpoint file:  "Grambow2020_b97d3_006801_reverse_mol1.chk"
 Charge =  0 Multiplicity = 1

                         Standard orientation:
 ---------------------------------------------------------------------
 Center     Atomic      Atomic             Coordinates (Angstroms)
 Number     Number       Type             X           Y           Z
 ---------------------------------------------------------------------
      1          6           0        1.705654   -1.458355    0.247691
      2          6           0        1.161592   -0.214736   -0.425956
      3          6           0        0.572100    0.788452    0.335547
      4          8           0        0.359495    2.067281   -0.127302
      5          6           0       -1.703473   -0.035260    0.664145
      6          6           0       -2.088743   -0.827324   -0.404919
      7          1           0        1.758119   -2.300390   -0.456043
      8          1           0        2.716680   -1.291334    0.650345
      9          1           0        1.054192   -1.759661    1.079317
     10          1           0        1.689374    0.106524   -1.332689
     11          1           0        0.022158   -0.826908   -1.239885
     12          1           0        0.536705    0.754093    1.418991
     13          1           0        0.507840    2.065474   -1.092367
     14          1           0       -1.438123   -0.493614    1.616143
     15          1           0       -1.916317    1.030757    0.675965
     16          1           0       -2.667790   -0.396527   -1.224390
     17          1           0       -0.828214   -1.036802   -1.298538
     18          1           0       -2.193363   -1.906526   -0.277484
 ---------------------------------------------------------------------

 SCF Done:  E(RHF) =  -271.317539320     A.U. after    2 cycles

 The electronic state is 1-A.
 Alpha  occ. eigenvalues --  -20.57671 -11.30829 -11.24275 -11.24167 -11.23767
 Alpha  occ. eigenvalues --  -11.22870  -1.47957  -1.06466  -1.01789  -0.92112
 Alpha  occ. eigenvalues --   -0.82646  -0.79053  -0.68681  -0.64835  -0.63340
 Alpha  occ. eigenvalues --   -0.62990  -0.58467  -0.56775  -0.55500  -0.54231
 Alpha  occ. eigenvalues --   -0.52347  -0.51482  -0.50358  -0.33822  -0.29983
 Alpha virt. eigenvalues --    0.03189   0.03638   0.03933   0.04527   0.05894
 Alpha virt. eigenvalues --    0.06529   0.06612   0.06963   0.07236   0.09584
 Alpha virt. eigenvalues --    0.10051   0.11012   0.12693   0.13271   0.13723

 Mulliken charges:
               1
     1  C   -0.459615
     2  C   -0.660582
     3  C    1.469516
     4  O   -1.443044
     5  C   -0.023478
     6  C   -0.344100
     7  H    0.159616
     8  H    0.185961
     9  H    0.187807
    10  H   -0.070487
    11  H    0.699846
    12  H    0.017826
    13  H    0.332364
    14  H   -0.051050
    15  H   -0.005702
    16  H    0.055770
    17  H   -0.122208
    18  H    0.071560
 Sum of Mulliken charges =  -0.00000

 Dipole moment (field-independent basis, Debye):
    X=              0.9705    Y=             -0.5126    Z=             -0.6996  Tot=              1.3015

 Test job not archived.
 1\1\GINC-SE163\SP\RHF\Aug-CC-pVDZ\C5H12O1\OHZDE\09-Apr-2025\0\\#t hf a
 ug-cc-pvdz iop(5/13=1,5/36=2,99/5=2) pseudo=read geom=check guess=(rea
 d,tcheck) scf=(maxcycle=1)\\title\\0,1\C,0,-1.86539338,0.85530581,0.56
 595858\C,0,-1.20240942,-0.28749221,-0.17623838\C,0,-0.32733951,-1.1371
 0142,0.49173779\O,0,0.0519233,-2.36899305,0.00858564\C,0,1.7745966,0.1
 0623094,0.46527892\C,0,1.83984139,0.91944315,-0.65415214\H,0,-2.180147
 36,1.64853553,-0.12594815\H,0,-2.75528447,0.5168578,1.11890111\H,0,-1.
 16633001,1.30056094,1.28696338\H,0,-1.7888219,-0.73187815,-0.99022164\

 Normal termination of Gaussian 16 at Wed Apr  9 15:50:16 2025.
