 Gaussian 16, Revision C.01,

 ----------------------------------------------------------------------
 #t hf aug-cc-pvdz symm=none int=(grid=ultrafine) guess=(read,tcheck) s
 table=(opt,rrhf)
 ----------------------------------------------------------------------
 -----
 title
 -----
 Symbolic Z-matrix:
 Charge =  0 Multiplicity = 1

 SCF Done:  E(RHF) =  -343.721979957     A.U. after   14 cycles
 Normal termination of Gaussian 16 at Wed Apr  9 03:27:51 2025.
 Gaussian 16:  ES64L-G16RevC.01  3-Jul-2019

 ----------------------------------------------------------------------
 #t hf aug-cc-pvdz iop(5/13=1,5/36=2,99/5=2) pseudo=read geom=check gue
 ss=(read,tcheck) scf=(maxcycle=1)
 ----------------------------------------------------------------------
 -----
 title
 -----
 Structure from the checkpoint file:  "Grambow2020_wb97xd3_006672_reverse_mol2.chk"
 Charge =  0 Multiplicity = 1

                         Standard orientation:
 ---------------------------------------------------------------------
 Center     Atomic      Atomic             Coordinates (Angstroms)
 Number     Number       Type             X           Y           Z
 ---------------------------------------------------------------------
      1          6           0        1.292229    1.709078    0.224845
      2          6           0        0.904296    0.467040   -0.010091
      3          8           0       -2.240203    0.631742   -0.964689
      4          6           0        1.156986   -0.606833   -1.056077
      5          6           0        0.262193   -1.589590   -0.248381
      6          6           0       -0.005778   -0.459620    0.745430
      7          8           0       -0.692466   -0.341627    1.718992
      8          1           0       -1.680120    1.391223   -0.790507
      9          1           0        0.933163    2.230169    1.105596
     10          1           0        1.973921    2.236795   -0.432164
     11          1           0       -2.532006    0.344667   -0.095976
     12          1           0        0.760282   -0.360980   -2.040610
     13          1           0        2.200027   -0.906586   -1.154530
     14          1           0       -0.636143   -1.938007   -0.756667
     15          1           0        0.782676   -2.438645    0.196084
 ---------------------------------------------------------------------

 SCF Done:  E(RHF) =  -344.075082397     A.U. after    2 cycles

 The electronic state is 1-A.
 Alpha  occ. eigenvalues --  -20.55342 -20.54642 -11.34425 -11.26666 -11.26004
 Alpha  occ. eigenvalues --  -11.25345 -11.24938  -1.48280  -1.43648  -1.16042
 Alpha  occ. eigenvalues --   -1.02802  -0.88802  -0.85625  -0.70709  -0.70601
 Alpha  occ. eigenvalues --   -0.68306  -0.66399  -0.66076  -0.59980  -0.57946
 Alpha  occ. eigenvalues --   -0.55205  -0.52148  -0.51914  -0.51287  -0.49247
 Alpha  occ. eigenvalues --   -0.40805  -0.39613
 Alpha virt. eigenvalues --    0.03078   0.03519   0.04196   0.04460   0.05974
 Alpha virt. eigenvalues --    0.06374   0.06621   0.07174   0.08181   0.09760
 Alpha virt. eigenvalues --    0.11265   0.12460   0.13096   0.13777   0.14734

 Mulliken charges:
               1
     1  C    0.115362
     2  C    0.614447
     3  O   -0.845671
     4  C   -0.435558
     5  C   -0.160689
     6  C    0.929500
     7  O   -1.450950
     8  H    0.450202
     9  H   -0.117847
    10  H   -0.095677
    11  H    0.419602
    12  H    0.136567
    13  H    0.117536
    14  H    0.158659
    15  H    0.164518
 Sum of Mulliken charges =  -0.00000

 Dipole moment (field-independent basis, Debye):
    X=              2.5270    Y=              0.5874    Z=             -1.1388  Tot=              2.8333

 Test job not archived.
 1\1\GINC-SE184\SP\RHF\Aug-CC-pVDZ\C5H8O2\OHZDE\09-Apr-2025\0\\#t hf au
 g-cc-pvdz iop(5/13=1,5/36=2,99/5=2) pseudo=read geom=check guess=(read
 ,tcheck) scf=(maxcycle=1)\\title\\0,1\C,0,-1.58100195,-1.34225245,-0.0
 2924644\C,0,-0.38484662,-0.79176425,0.09125522\O,0,-0.77766307,2.43080
 112,-0.44449494\C,0,0.59667047,-0.47791173,1.20895799\C,0,1.60991468,0
 .05414605,0.15582519\C,0,0.56704326,-0.22789667,-0.92545763\O,0,0.5102
 1071,-0.0435648,-2.10701509\H,0,-1.49188565,1.79121386,-0.40377975\H,0
 ,-2.03288675,-1.44425904,-1.00984875\H,0,-2.1370286,-1.71164698,0.8247

 Normal termination of Gaussian 16 at Wed Apr  9 03:27:57 2025.
