 Gaussian 16, Revision C.01,

 ----------------------------------------------------------------------
 #t hf aug-cc-pvdz symm=none int=(grid=ultrafine) guess=(read,tcheck) s
 table=(opt,rrhf)
 ----------------------------------------------------------------------
 -----
 title
 -----
 Symbolic Z-matrix:
 Charge =  0 Multiplicity = 1

 SCF Done:  E(RHF) =  -286.766922523     A.U. after   16 cycles
 Normal termination of Gaussian 16 at Wed Apr  9 18:12:51 2025.
 Gaussian 16:  ES64L-G16RevC.01  3-Jul-2019

 ----------------------------------------------------------------------
 #t hf aug-cc-pvdz iop(5/13=1,5/36=2,99/5=2) pseudo=read geom=check gue
 ss=(read,tcheck) scf=(maxcycle=1)
 ----------------------------------------------------------------------
 -----
 title
 -----
 Structure from the checkpoint file:  "Grambow2020_wb97xd3_007182_forward_mol1.chk"
 Charge =  0 Multiplicity = 1

                         Standard orientation:
 ---------------------------------------------------------------------
 Center     Atomic      Atomic             Coordinates (Angstroms)
 Number     Number       Type             X           Y           Z
 ---------------------------------------------------------------------
      1          6           0       -2.419086   -0.781652    0.074237
      2          6           0       -1.153232    0.007334   -0.044629
      3          6           0       -1.054481    1.341944   -0.049202
      4          6           0        1.205802    1.393905    0.106323
      5          6           0        1.181574    0.057442   -0.001400
      6          6           0        2.495426   -0.666090    0.025539
      7          7           0        0.022944   -0.689414   -0.071724
      8          1           0       -2.404884   -1.413741    0.964784
      9          1           0       -3.279034   -0.118464    0.134229
     10          1           0       -2.552978   -1.429117   -0.796214
     11          1           0       -1.878411    2.019510    0.119645
     12          1           0       -0.123199    1.866265   -0.411543
     13          1           0        2.650354   -1.221110   -0.902860
     14          1           0        3.311693    0.045567    0.135975
     15          1           0        2.530270   -1.366382    0.863508
     16          1           0        0.049558   -1.673934   -0.270663
 ---------------------------------------------------------------------

 SCF Done:  E(RHF) =  -287.069137531     A.U. after    2 cycles

 The electronic state is 1-A.
 Alpha  occ. eigenvalues --  -15.54268 -11.29424 -11.27328 -11.25492 -11.25382
 Alpha  occ. eigenvalues --  -11.25105 -11.22830  -1.29086  -1.08455  -1.04021
 Alpha  occ. eigenvalues --   -0.98536  -0.91432  -0.82669  -0.78252  -0.70461
 Alpha  occ. eigenvalues --   -0.64003  -0.61403  -0.59912  -0.59274  -0.58280
 Alpha  occ. eigenvalues --   -0.55699  -0.54644  -0.53975  -0.40718  -0.35697
 Alpha  occ. eigenvalues --   -0.33455
 Alpha virt. eigenvalues --    0.02555   0.03618   0.04349   0.04528   0.05005
 Alpha virt. eigenvalues --    0.05867   0.06202   0.07592   0.08868   0.09455
 Alpha virt. eigenvalues --    0.10845   0.11419   0.12789   0.13366   0.14018

 Mulliken charges:
               1
     1  C   -0.531509
     2  C   -0.211197
     3  C    0.028696
     4  C   -0.590341
     5  C   -0.459306
     6  C   -0.415409
     7  N    0.959608
     8  H    0.236027
     9  H    0.151624
    10  H    0.207281
    11  H   -0.261061
    12  H    0.232071
    13  H    0.202264
    14  H    0.167903
    15  H    0.231169
    16  H    0.052179
 Sum of Mulliken charges =  -0.00000

 Dipole moment (field-independent basis, Debye):
    X=             -1.6891    Y=             -4.0686    Z=             -0.5246  Tot=              4.4364

 Test job not archived.
 1\1\GINC-SE135\SP\RHF\Aug-CC-pVDZ\C6H9N1\OHZDE\09-Apr-2025\0\\#t hf au
 g-cc-pvdz iop(5/13=1,5/36=2,99/5=2) pseudo=read geom=check guess=(read
 ,tcheck) scf=(maxcycle=1)\\title\\0,1\C,0,-2.3971097,-0.31828576,0.123
 48811\C,0,-1.042505,0.30984483,0.0259708\C,0,-0.76879751,1.61437106,0.
 14535995\C,0,1.48229241,1.36017344,0.20657943\C,0,1.27873616,0.0556018
 ,-0.02790133\C,0,2.48589775,-0.82938589,-0.12784834\N,0,0.03012563,-0.
 52561285,-0.1191397\H,0,-2.43910594,-1.03361975,0.94771366\H,0,-3.1598
 4088,0.44020102,0.28431694\H,0,-2.64183149,-0.85204246,-0.79848625\H,0

 Normal termination of Gaussian 16 at Wed Apr  9 18:12:56 2025.
