 Gaussian 16, Revision C.01,

 ----------------------------------------------------------------------
 #t hf aug-cc-pvdz symm=none int=(grid=ultrafine) guess=(read,tcheck) s
 table=(opt,rrhf)
 ----------------------------------------------------------------------
 -----
 title
 -----
 Symbolic Z-matrix:
 Charge =  0 Multiplicity = 1

 SCF Done:  E(RHF) =  -304.586919052     A.U. after   18 cycles
 Normal termination of Gaussian 16 at Wed Apr  9 03:16:29 2025.
 Gaussian 16:  ES64L-G16RevC.01  3-Jul-2019

 ----------------------------------------------------------------------
 #t hf aug-cc-pvdz iop(5/13=1,5/36=2,99/5=2) pseudo=read geom=check gue
 ss=(read,tcheck) scf=(maxcycle=1)
 ----------------------------------------------------------------------
 -----
 title
 -----
 Structure from the checkpoint file:  "Grambow2020_b97d3_007010_reverse_mol1.chk"
 Charge =  0 Multiplicity = 1

                         Standard orientation:
 ---------------------------------------------------------------------
 Center     Atomic      Atomic             Coordinates (Angstroms)
 Number     Number       Type             X           Y           Z
 ---------------------------------------------------------------------
      1          8           0       -1.735547   -1.178479    0.069180
      2          6           0       -1.872892    0.124283   -0.049980
      3          6           0       -0.753518    1.061305    0.165785
      4          6           0        0.447414    0.451302   -0.497184
      5          6           0        1.555991    0.056266    0.292548
      6          8           0        2.621758   -0.455907   -0.093952
      7          1           0       -0.756213   -1.325807    0.239127
      8          1           0       -2.866405    0.404202   -0.406698
      9          1           0       -1.054578    2.068955   -0.163290
     10          1           0       -0.545139    1.122276    1.259048
     11          1           0        0.450300    0.320356   -1.578756
     12          1           0        1.420380    0.326165    1.381729
 ---------------------------------------------------------------------

 SCF Done:  E(RHF) =  -304.894558233     A.U. after    2 cycles

 The electronic state is 1-A.
 Alpha  occ. eigenvalues --  -20.70175 -20.44725 -11.47091 -11.30188 -11.28308
 Alpha  occ. eigenvalues --  -11.19610  -1.61363  -1.36949  -1.12525  -0.98726
 Alpha  occ. eigenvalues --   -0.90235  -0.78282  -0.76534  -0.75037  -0.66578
 Alpha  occ. eigenvalues --   -0.62392  -0.62132  -0.60090  -0.54486  -0.51913
 Alpha  occ. eigenvalues --   -0.47323  -0.34720  -0.27807
 Alpha virt. eigenvalues --   -0.00654   0.00948   0.03177   0.03461   0.04794
 Alpha virt. eigenvalues --    0.06408   0.06890   0.09329   0.10164   0.11128
 Alpha virt. eigenvalues --    0.11425   0.13678   0.13831   0.14530   0.15484

 Mulliken charges:
               1
     1  O   -1.308090
     2  C    1.344118
     3  C   -0.679657
     4  C    0.297008
     5  C    0.691148
     6  O   -1.312214
     7  H    0.553048
     8  H    0.129957
     9  H    0.144531
    10  H    0.316941
    11  H   -0.242322
    12  H    0.065531
 Sum of Mulliken charges =  -0.00000

 Dipole moment (field-independent basis, Debye):
    X=            -10.1034    Y=              1.6475    Z=              1.2531  Tot=             10.3132

 Test job not archived.
 1\1\GINC-SE106\SP\RHF\Aug-CC-pVDZ\C4H6O2\OHZDE\09-Apr-2025\0\\#t hf au
 g-cc-pvdz iop(5/13=1,5/36=2,99/5=2) pseudo=read geom=check guess=(read
 ,tcheck) scf=(maxcycle=1)\\title\\0,1\O,0,-1.99602508,0.09153316,0.444
 01705\C,0,-1.4358097,-0.13330973,-0.72468048\C,0,0.01222248,0.03474558
 ,-0.95385993\C,0,0.70433972,-0.54892172,0.24371118\C,0,1.45994987,0.29
 597822,1.09451734\O,0,2.09357194,-0.02313581,2.11640341\H,0,-1.2342069
 2,0.29610551,1.06648482\H,0,-2.14439842,-0.53481822,-1.45225447\H,0,0.
 27447897,-0.37995618,-1.94053651\H,0,0.24438251,1.12448919,-0.98423504

 Normal termination of Gaussian 16 at Wed Apr  9 03:16:34 2025.
