 Gaussian 16, Revision C.01,

 ----------------------------------------------------------------------
 #t hf aug-cc-pvdz symm=none int=(grid=ultrafine) guess=(read,tcheck) s
 table=(opt,rrhf)
 ----------------------------------------------------------------------
 -----
 title
 -----
 Symbolic Z-matrix:
 Charge =  0 Multiplicity = 1

 SCF Done:  E(RHF) =  -374.585528157     A.U. after   16 cycles
 Normal termination of Gaussian 16 at Wed Apr  9 18:20:02 2025.
 Gaussian 16:  ES64L-G16RevC.01  3-Jul-2019

 ----------------------------------------------------------------------
 #t hf aug-cc-pvdz iop(5/13=1,5/36=2,99/5=2) pseudo=read geom=check gue
 ss=(read,tcheck) scf=(maxcycle=1)
 ----------------------------------------------------------------------
 -----
 title
 -----
 Structure from the checkpoint file:  "Grambow2020_wb97xd3_007333_reverse_mol2.chk"
 Charge =  0 Multiplicity = 1

                         Standard orientation:
 ---------------------------------------------------------------------
 Center     Atomic      Atomic             Coordinates (Angstroms)
 Number     Number       Type             X           Y           Z
 ---------------------------------------------------------------------
      1          7           0       -2.032947   -0.949105   -0.071057
      2          6           0       -0.818992   -0.346434    0.019972
      3          6           0       -0.870108    1.164888   -0.140333
      4          8           0        0.037637    1.871160    0.174844
      5          6           0        1.515064   -0.434868    0.357782
      6          8           0        2.271253   -0.338785   -0.568216
      7          7           0        0.241895   -0.983651    0.269670
      8          1           0       -2.068586   -1.952875   -0.073818
      9          1           0       -2.822837   -0.450697   -0.435203
     10          1           0       -1.813343    1.576181   -0.553671
     11          1           0        1.815225   -0.203833    1.394852
 ---------------------------------------------------------------------

 SCF Done:  E(RHF) =  -374.953417348     A.U. after    2 cycles

 The electronic state is 1-A.
 Alpha  occ. eigenvalues --  -20.59686 -20.52467 -15.55832 -15.51151 -11.38525
 Alpha  occ. eigenvalues --  -11.37094 -11.35917  -1.53192  -1.47033  -1.31146
 Alpha  occ. eigenvalues --   -1.21618  -0.98563  -0.92295  -0.81008  -0.78098
 Alpha  occ. eigenvalues --   -0.75792  -0.72002  -0.68263  -0.66133  -0.61465
 Alpha  occ. eigenvalues --   -0.57366  -0.55472  -0.50340  -0.45116  -0.44368
 Alpha  occ. eigenvalues --   -0.41895
 Alpha virt. eigenvalues --    0.01664   0.03720   0.03948   0.05001   0.05770
 Alpha virt. eigenvalues --    0.09123   0.09245   0.10281   0.11414   0.12119
 Alpha virt. eigenvalues --    0.12644   0.13182   0.14647   0.15481   0.16430

 Mulliken charges:
               1
     1  N    0.746575
     2  C   -1.934930
     3  C    1.347341
     4  O   -1.089996
     5  C    0.785578
     6  O   -1.062017
     7  N    0.835352
     8  H    0.001964
     9  H    0.157943
    10  H    0.091148
    11  H    0.121042
 Sum of Mulliken charges =  -0.00000

 Dipole moment (field-independent basis, Debye):
    X=             -6.3653    Y=             -0.1486    Z=              0.4601  Tot=              6.3836

 Test job not archived.
 1\1\GINC-SE113\SP\RHF\Aug-CC-pVDZ\C3H4N2O2\OHZDE\09-Apr-2025\0\\#t hf
 aug-cc-pvdz iop(5/13=1,5/36=2,99/5=2) pseudo=read geom=check guess=(re
 ad,tcheck) scf=(maxcycle=1)\\title\\0,1\N,0,-1.79266546,-0.23255135,-0
 .29984133\C,0,-0.46066998,-0.09371625,-0.07246872\C,0,-0.0449979,1.321
 58464,0.29704839\O,0,1.01414164,1.56846765,0.78636538\C,0,1.71545152,-
 0.99241381,0.09061101\O,0,2.51622597,-0.81874974,-0.78524709\N,0,0.343
 16238,-1.06640915,-0.11244897\H,0,-2.12884412,-1.11421789,-0.64404979\
 H,0,-2.37393035,0.57390221,-0.42907656\H,0,-0.79571026,2.11360343,0.09

 Normal termination of Gaussian 16 at Wed Apr  9 18:20:06 2025.
