 Gaussian 16, Revision C.01,

 ----------------------------------------------------------------------
 #t hf aug-cc-pvdz symm=none int=(grid=ultrafine) guess=(read,tcheck) s
 table=(opt,rrhf)
 ----------------------------------------------------------------------
 -----
 title
 -----
 Symbolic Z-matrix:
 Charge =  0 Multiplicity = 1

 SCF Done:  E(RHF) =  -304.522800020     A.U. after   15 cycles
 Normal termination of Gaussian 16 at Wed Apr  9 03:14:50 2025.
 Gaussian 16:  ES64L-G16RevC.01  3-Jul-2019

 ----------------------------------------------------------------------
 #t hf aug-cc-pvdz iop(5/13=1,5/36=2,99/5=2) pseudo=read geom=check gue
 ss=(read,tcheck) scf=(maxcycle=1)
 ----------------------------------------------------------------------
 -----
 title
 -----
 Structure from the checkpoint file:  "Grambow2020_b97d3_006921_reverse_mol2.chk"
 Charge =  0 Multiplicity = 1

                         Standard orientation:
 ---------------------------------------------------------------------
 Center     Atomic      Atomic             Coordinates (Angstroms)
 Number     Number       Type             X           Y           Z
 ---------------------------------------------------------------------
      1          8           0        2.744484   -0.391285    0.264495
      2          6           0       -0.019883   -0.372711   -0.542086
      3          6           0        0.035733    1.164519   -0.522816
      4          6           0       -0.442364    0.432588    0.682433
      5          8           0       -1.827204   -0.123898    0.593052
      6          6           0       -1.366234   -0.771989   -0.500942
      7          1           0        3.206027   -0.213198   -0.574339
      8          1           0        1.034080    1.586824   -0.389297
      9          1           0       -0.643469    1.744990   -1.151746
     10          1           0       -0.005025    0.433891    1.676548
     11          1           0       -2.046379   -1.401186   -1.078000
     12          1           0        1.873012   -0.744299   -0.043074
 ---------------------------------------------------------------------

 SCF Done:  E(RHF) =  -304.831973216     A.U. after    2 cycles

 The electronic state is 1-A.
 Alpha  occ. eigenvalues --  -20.62463 -20.52594 -11.38768 -11.31974 -11.29645
 Alpha  occ. eigenvalues --  -11.22251  -1.55105  -1.39930  -1.16369  -0.97071
 Alpha  occ. eigenvalues --   -0.86879  -0.77208  -0.69979  -0.68823  -0.67167
 Alpha  occ. eigenvalues --   -0.65674  -0.57724  -0.55952  -0.55234  -0.49390
 Alpha  occ. eigenvalues --   -0.46474  -0.40721  -0.34584
 Alpha virt. eigenvalues --    0.02784   0.03535   0.04549   0.05053   0.05412
 Alpha virt. eigenvalues --    0.06850   0.08025   0.09212   0.10775   0.11608
 Alpha virt. eigenvalues --    0.12806   0.13212   0.14348   0.15105   0.15860

 Mulliken charges:
               1
     1  O   -1.001029
     2  C   -0.536292
     3  C    0.052024
     4  C    1.104768
     5  O   -1.303833
     6  C    0.828395
     7  H    0.282054
     8  H   -0.034622
     9  H   -0.107413
    10  H   -0.093224
    11  H    0.047599
    12  H    0.761573
 Sum of Mulliken charges =  -0.00000

 Dipole moment (field-independent basis, Debye):
    X=             -2.6293    Y=              0.8886    Z=             -1.9687  Tot=              3.4027

 Test job not archived.
 1\1\GINC-SE036\SP\RHF\Aug-CC-pVDZ\C4H6O2\OHZDE\09-Apr-2025\0\\#t hf au
 g-cc-pvdz iop(5/13=1,5/36=2,99/5=2) pseudo=read geom=check guess=(read
 ,tcheck) scf=(maxcycle=1)\\title\\0,1\O,0,0.27325811,-1.66880503,-2.00
 988903\C,0,0.53744726,-0.07767932,0.37572794\C,0,-0.9886106,-0.1693287
 4,0.54686202\C,0,-0.39855216,1.00158227,-0.1586337\O,0,0.25052023,2.02
 405719,0.71811996\C,0,1.01095191,0.99318213,1.15214631\H,0,0.18212555,
 -2.5688423,-1.64932384\H,0,-1.48680123,-0.86278566,-0.13415795\H,0,-1.
 43467268,-0.07895036,1.54017698\H,0,-0.56215026,1.30788495,-1.18768509

 Normal termination of Gaussian 16 at Wed Apr  9 03:14:55 2025.
