 Gaussian 16, Revision C.01,

 ----------------------------------------------------------------------
 #t hf aug-cc-pvdz symm=none int=(grid=ultrafine) guess=(read,tcheck) s
 table=(opt,rrhf)
 ----------------------------------------------------------------------
 -----
 title
 -----
 Symbolic Z-matrix:
 Charge =  0 Multiplicity = 1

 SCF Done:  E(RHF) =  -337.413736783     A.U. after   16 cycles
 Normal termination of Gaussian 16 at Wed Apr  9 04:05:01 2025.
 Gaussian 16:  ES64L-G16RevC.01  3-Jul-2019

 ----------------------------------------------------------------------
 #t hf aug-cc-pvdz iop(5/13=1,5/36=2,99/5=2) pseudo=read geom=check gue
 ss=(read,tcheck) scf=(maxcycle=1)
 ----------------------------------------------------------------------
 -----
 title
 -----
 Structure from the checkpoint file:  "Grambow2020_wb97xd3_009180_forward_mol1.chk"
 Charge =  0 Multiplicity = 1

                         Standard orientation:
 ---------------------------------------------------------------------
 Center     Atomic      Atomic             Coordinates (Angstroms)
 Number     Number       Type             X           Y           Z
 ---------------------------------------------------------------------
      1          8           0        1.203776   -0.773136    0.863041
      2          6           0        0.817718   -0.438792   -0.308644
      3          6           0        0.840308    0.984465   -0.630090
      4          6           0       -0.251738    1.407709    0.046314
      5          7           0       -1.110144    0.480737    0.664808
      6          6           0       -1.273441   -0.610992   -0.170995
      7          7           0       -0.245980   -1.134371   -0.765592
      8          1           0        1.643700    1.586678   -1.017862
      9          1           0       -0.448638    2.456135    0.232713
     10          1           0        0.123568   -0.270278    1.239996
     11          1           0       -2.253046   -1.066349   -0.273197
 ---------------------------------------------------------------------

 SCF Done:  E(RHF) =  -337.750035305     A.U. after    2 cycles

 The electronic state is 1-A.
 Alpha  occ. eigenvalues --  -20.59442 -15.52175 -15.50297 -11.42485 -11.35287
 Alpha  occ. eigenvalues --  -11.31122 -11.26513  -1.54250  -1.33155  -1.19949
 Alpha  occ. eigenvalues --   -1.09316  -0.91956  -0.88512  -0.77660  -0.74869
 Alpha  occ. eigenvalues --   -0.72263  -0.69623  -0.66445  -0.61896  -0.58043
 Alpha  occ. eigenvalues --   -0.53401  -0.49284  -0.47290  -0.44589  -0.38159
 Alpha virt. eigenvalues --    0.03232   0.03325   0.04383   0.04615   0.06776
 Alpha virt. eigenvalues --    0.08145   0.08249   0.08862   0.09742   0.09947
 Alpha virt. eigenvalues --    0.12103   0.12741   0.13804   0.14307   0.15481

 Mulliken charges:
               1
     1  O   -1.365443
     2  C    0.152203
     3  C    0.622499
     4  C   -0.452932
     5  N    0.391309
     6  C   -0.742474
     7  N    0.775680
     8  H   -0.069430
     9  H   -0.089741
    10  H    0.841669
    11  H   -0.063339
 Sum of Mulliken charges =  -0.00000

 Dipole moment (field-independent basis, Debye):
    X=              0.5324    Y=              1.7025    Z=             -0.9846  Tot=              2.0375

 Test job not archived.
 1\1\GINC-SE038\SP\RHF\Aug-CC-pVDZ\C4H4N2O1\OHZDE\09-Apr-2025\0\\#t hf
 aug-cc-pvdz iop(5/13=1,5/36=2,99/5=2) pseudo=read geom=check guess=(re
 ad,tcheck) scf=(maxcycle=1)\\title\\0,1\O,0,1.00003332,-0.76271226,1.3
 8016542\C,0,1.00041493,-0.64099332,0.10782196\C,0,1.07074369,0.7154964
 9,-0.42555039\C,0,-0.19666401,1.13327758,-0.20564361\N,0,-1.17241666,0
 .23377759,0.26070547\C,0,-1.01489988,-0.97944892,-0.38765692\N,0,0.168
 875,-1.48964216,-0.5343783\H,0,1.93248286,1.32415504,-0.63864032\H,0,-
 0.48343864,2.17557235,-0.26961362\H,0,-0.1625546,-0.3095755,1.31039891

 Normal termination of Gaussian 16 at Wed Apr  9 04:05:06 2025.
