 Gaussian 16, Revision C.01,

 ----------------------------------------------------------------------
 #t hf aug-cc-pvdz symm=none int=(grid=ultrafine) guess=(read,tcheck) s
 table=(opt,rrhf)
 ----------------------------------------------------------------------
 -----
 title
 -----
 Symbolic Z-matrix:
 Charge =  0 Multiplicity = 1

 SCF Done:  E(RHF) =  -310.089025013     A.U. after   15 cycles

 1\1\GINC-SE083\Stability\RHF\Aug-CC-pVDZ\C6H14O1\OHZDE\09-Apr-2025\0\\
 #t hf aug-cc-pvdz symm=none int=(grid=ultrafine) guess=(read,tcheck) s
 table=(opt,rrhf)\\title\\0,1\C,0,2.42041821,-1.44730814,-0.49242542\O,
 0,2.02886421,-0.55656457,0.53808084\C,0,1.56203195,0.62494333,0.100928
 23\C,0,-0.66002554,0.41701705,0.04973725\C,0,-1.10145563,1.8259294,0.3
 6725717\C,0,-1.26020484,-0.09368093,-1.2534955\C,0,-0.81311264,-0.5709
 1557,1.17417011\H,0,3.05052775,-0.93148766,-1.21941445\H,0,1.54133824,
 -1.85245248,-1.00340842\H,0,2.9674095,-2.2636194,-0.02249492\H,0,0.565

 Normal termination of Gaussian 16 at Wed Apr  9 03:59:27 2025.
 Gaussian 16:  ES64L-G16RevC.01  3-Jul-2019

 ----------------------------------------------------------------------
 #t hf aug-cc-pvdz iop(5/13=1,5/36=2,99/5=2) pseudo=read geom=check gue
 ss=(read,tcheck) scf=(maxcycle=1)
 ----------------------------------------------------------------------
 -----
 title
 -----
 Structure from the checkpoint file:  "Grambow2020_wb97xd3_008658_forward_mol1.chk"
 Charge =  0 Multiplicity = 1

                         Standard orientation:
 ---------------------------------------------------------------------
 Center     Atomic      Atomic             Coordinates (Angstroms)
 Number     Number       Type             X           Y           Z
 ---------------------------------------------------------------------
      1          6           0       -2.585747    0.532811   -0.165207
      2          8           0       -1.797273   -0.580811    0.217987
      3          6           0       -0.852849   -0.923693   -0.673916
      4          6           0        1.021881    0.073209    0.015261
      5          6           0        2.071282   -0.914860   -0.435505
      6          6           0        1.280014    1.473162   -0.525980
      7          6           0        0.737506    0.076131    1.492731
      8          1           0       -2.929764    0.416696   -1.194669
      9          1           0       -2.007492    1.458462   -0.082632
     10          1           0       -3.432341    0.579085    0.518558
     11          1           0       -0.007223   -0.106715   -0.880193
     12          1           0       -0.396633   -1.858814   -0.344940
     13          1           0        1.948345   -1.885427    0.047394
     14          1           0        3.076316   -0.548561   -0.198463
     15          1           0        2.028754   -1.067640   -1.518012
     16          1           0        0.481752    2.164561   -0.248234
     17          1           0        1.368595    1.475758   -1.615062
     18          1           0        2.216455    1.867235   -0.116064
     19          1           0       -0.184729    0.614708    1.722109
     20          1           0        1.551835    0.571459    2.034268
     21          1           0        0.631788   -0.934880    1.887745
 ---------------------------------------------------------------------

 SCF Done:  E(RHF) =  -310.426884236     A.U. after    2 cycles

 The electronic state is 1-A.
 Alpha  occ. eigenvalues --  -20.56207 -11.28105 -11.27783 -11.26866 -11.23641
 Alpha  occ. eigenvalues --  -11.23184 -11.22752  -1.48990  -1.10695  -0.97229
 Alpha  occ. eigenvalues --   -0.94796  -0.94595  -0.85464  -0.75374  -0.67907
 Alpha  occ. eigenvalues --   -0.66707  -0.63782  -0.61710  -0.61236  -0.59477
 Alpha  occ. eigenvalues --   -0.55417  -0.55217  -0.53586  -0.52949  -0.50330
 Alpha  occ. eigenvalues --   -0.49561  -0.49243  -0.44853  -0.28605
 Alpha virt. eigenvalues --    0.03489   0.03628   0.03765   0.04342   0.05835
 Alpha virt. eigenvalues --    0.06128   0.06311   0.06640   0.06764   0.08796
 Alpha virt. eigenvalues --    0.09349   0.09669   0.09954   0.10836   0.12428

 Mulliken charges:
               1
     1  C    0.237438
     2  O   -1.181763
     3  C    0.303539
     4  C   -2.530156
     5  C    0.057299
     6  C   -0.050776
     7  C    0.192713
     8  H    0.177441
     9  H    0.114938
    10  H    0.026747
    11  H    1.017887
    12  H    0.020669
    13  H    0.108766
    14  H    0.221060
    15  H    0.217982
    16  H    0.162370
    17  H    0.146296
    18  H    0.151488
    19  H    0.240735
    20  H    0.221843
    21  H    0.143483
 Sum of Mulliken charges =  -0.00000

 Dipole moment (field-independent basis, Debye):
    X=              1.0490    Y=              1.4106    Z=              0.7844  Tot=              1.9249

 Test job not archived.
 1\1\GINC-SE083\SP\RHF\Aug-CC-pVDZ\C6H14O1\OHZDE\09-Apr-2025\0\\#t hf a
 ug-cc-pvdz iop(5/13=1,5/36=2,99/5=2) pseudo=read geom=check guess=(rea
 d,tcheck) scf=(maxcycle=1)\\title\\0,1\C,0,2.42041821,-1.44730814,-0.4
 9242542\O,0,2.02886421,-0.55656457,0.53808084\C,0,1.56203195,0.6249433
 3,0.10092823\C,0,-0.66002554,0.41701705,0.04973725\C,0,-1.10145563,1.8
 259294,0.36725717\C,0,-1.26020484,-0.09368093,-1.2534955\C,0,-0.813112
 64,-0.57091557,1.17417011\H,0,3.05052775,-0.93148766,-1.21941445\H,0,1
 .54133824,-1.85245248,-1.00340842\H,0,2.9674095,-2.2636194,-0.02249492

 Normal termination of Gaussian 16 at Wed Apr  9 03:59:37 2025.
