 Gaussian 16, Revision C.01,

 ----------------------------------------------------------------------
 #t hf aug-cc-pvdz symm=none int=(grid=ultrafine) guess=(read,tcheck) s
 table=(opt,rrhf)
 ----------------------------------------------------------------------
 -----
 title
 -----
 Symbolic Z-matrix:
 Charge =  0 Multiplicity = 1

 SCF Done:  E(RHF) =  -317.685280018     A.U. after   15 cycles
 Normal termination of Gaussian 16 at Wed Apr  9 19:14:44 2025.
 Gaussian 16:  ES64L-G16RevC.01  3-Jul-2019

 ----------------------------------------------------------------------
 #t hf aug-cc-pvdz iop(5/13=1,5/36=2,99/5=2) pseudo=read geom=check gue
 ss=(read,tcheck) scf=(maxcycle=1)
 ----------------------------------------------------------------------
 -----
 title
 -----
 Structure from the checkpoint file:  "Grambow2020_wb97xd3_008976_reverse_mol2.chk"
 Charge =  0 Multiplicity = 1

                         Standard orientation:
 ---------------------------------------------------------------------
 Center     Atomic      Atomic             Coordinates (Angstroms)
 Number     Number       Type             X           Y           Z
 ---------------------------------------------------------------------
      1          7           0       -2.289361    0.034930   -0.077607
      2          6           0       -0.900351    0.035514   -0.007887
      3          6           0       -0.160219   -1.170536   -0.006205
      4          7           0        1.141701   -1.252315    0.005186
      5          6           0        1.944575   -0.129845    0.008493
      6          7           0        1.214372    1.020766    0.003674
      7          6           0       -0.136019    1.162255   -0.002713
      8          1           0       -2.725308   -0.797758    0.282744
      9          1           0       -2.740967    0.867553    0.262486
     10          1           0       -0.711615   -2.112996   -0.012180
     11          1           0        1.761663    1.867090    0.006111
     12          1           0       -0.538675    2.168116   -0.008062
 ---------------------------------------------------------------------

 SCF Done:  E(RHF) =  -318.005561274     A.U. after    2 cycles

 The electronic state is 1-A.
 Alpha  occ. eigenvalues --  -15.57087 -15.53062 -15.49246 -11.31079 -11.30520
 Alpha  occ. eigenvalues --  -11.29810 -11.25967  -1.32388  -1.24186  -1.20552
 Alpha  occ. eigenvalues --   -1.06212  -0.93147  -0.91534  -0.80338  -0.77410
 Alpha  occ. eigenvalues --   -0.70725  -0.69708  -0.68725  -0.62767  -0.61389
 Alpha  occ. eigenvalues --   -0.54891  -0.47431  -0.46254  -0.35360  -0.35001
 Alpha virt. eigenvalues --    0.01965   0.03148   0.04016   0.04825   0.06039
 Alpha virt. eigenvalues --    0.07525   0.09138   0.09321   0.10880   0.11029
 Alpha virt. eigenvalues --    0.11626   0.12435   0.12725   0.13269   0.14226

 Mulliken charges:
               1
     1  N    0.643398
     2  C   -0.720945
     3  C   -0.606829
     4  N    0.801365
     5  C   -0.806759
     6  N    0.640222
     7  C    0.084014
     8  H    0.050294
     9  H    0.047667
    10  H   -0.107658
    11  H    0.176105
    12  H   -0.200873
 Sum of Mulliken charges =  -0.00000

 Dipole moment (field-independent basis, Debye):
    X=             -5.8783    Y=              3.5787    Z=              1.0257  Tot=              6.9580

 Test job not archived.
 1\1\GINC-SE173\SP\RHF\Aug-CC-pVDZ\C4H5N3\OHZDE\09-Apr-2025\0\\#t hf au
 g-cc-pvdz iop(5/13=1,5/36=2,99/5=2) pseudo=read geom=check guess=(read
 ,tcheck) scf=(maxcycle=1)\\title\\0,1\N,0,-1.9518272,-0.09644705,0.151
 94407\C,0,-0.5696661,0.02953615,0.0626796\C,0,0.06205702,1.29448283,0.
 11915233\N,0,1.3513918,1.49145337,0.09403271\C,0,2.24908812,0.44621001
 ,0.01552781\N,0,1.62246938,-0.76289775,-0.03479971\C,0,0.28997996,-1.0
 2325694,-0.01738735\H,0,-2.46567957,0.71316391,-0.15425477\H,0,-2.3353
 4078,-0.94557351,-0.22854957\H,0,-0.56938604,2.18276481,0.18652607\H,0

 Normal termination of Gaussian 16 at Wed Apr  9 19:14:49 2025.
