 Gaussian 16, Revision C.01,

 ----------------------------------------------------------------------
 #t hf aug-cc-pvdz symm=none int=(grid=ultrafine) guess=(read,tcheck) s
 table=(opt,rrhf)
 ----------------------------------------------------------------------
 -----
 title
 -----
 Symbolic Z-matrix:
 Charge =  0 Multiplicity = 1

 SCF Done:  E(RHF) =  -357.220296699     A.U. after   16 cycles
 Normal termination of Gaussian 16 at Wed Apr  9 03:59:22 2025.
 Gaussian 16:  ES64L-G16RevC.01  3-Jul-2019

 ----------------------------------------------------------------------
 #t hf aug-cc-pvdz iop(5/13=1,5/36=2,99/5=2) pseudo=read geom=check gue
 ss=(read,tcheck) scf=(maxcycle=1)
 ----------------------------------------------------------------------
 -----
 title
 -----
 Structure from the checkpoint file:  "Grambow2020_wb97xd3_008757_reverse_mol2.chk"
 Charge =  0 Multiplicity = 1

                         Standard orientation:
 ---------------------------------------------------------------------
 Center     Atomic      Atomic             Coordinates (Angstroms)
 Number     Number       Type             X           Y           Z
 ---------------------------------------------------------------------
      1          8           0        2.013677   -1.225516   -0.006281
      2          6           0        2.011484   -0.026404    0.010774
      3          6           0        0.796740    0.767572   -0.003168
      4          7           0       -0.162642    1.412534   -0.002967
      5          8           0       -1.154242    2.059172   -0.004207
      6          6           0       -2.355817   -1.269005    0.010260
      7          6           0       -1.292820   -1.815927   -0.007150
      8          1           0        2.939240    0.565402    0.037648
      9          1           0       -3.300949   -0.778512    0.025636
     10          1           0       -0.332785   -2.281284   -0.022903
 ---------------------------------------------------------------------

 SCF Done:  E(RHF) =  -357.567023486     A.U. after    2 cycles

 The electronic state is 1-A.
 Alpha  occ. eigenvalues --  -20.60766 -20.59950 -15.72497 -11.42332 -11.33557
 Alpha  occ. eigenvalues --  -11.24600 -11.24210  -1.62326  -1.54087  -1.29459
 Alpha  occ. eigenvalues --   -1.03084  -0.99758  -0.80318  -0.78016  -0.76026
 Alpha  occ. eigenvalues --   -0.74116  -0.73527  -0.70588  -0.68404  -0.59585
 Alpha  occ. eigenvalues --   -0.49885  -0.43555  -0.42521  -0.41597  -0.41500
 Alpha virt. eigenvalues --    0.02286   0.02547   0.04590   0.05093   0.06622
 Alpha virt. eigenvalues --    0.09179   0.10070   0.11219   0.11565   0.12174
 Alpha virt. eigenvalues --    0.12509   0.13390   0.13570   0.13950   0.14285

 Mulliken charges:
               1
     1  O   -1.009155
     2  C    1.287808
     3  C   -0.573611
     4  N    1.488059
     5  O   -1.328636
     6  C    0.147801
     7  C    0.227225
     8  H    0.148111
     9  H   -0.236290
    10  H   -0.151313
 Sum of Mulliken charges =  -0.00000

 Dipole moment (field-independent basis, Debye):
    X=              2.9471    Y=              0.6618    Z=              0.0488  Tot=              3.0209

 Test job not archived.
 1\1\GINC-SE252\SP\RHF\Aug-CC-pVDZ\C4H3N1O2\OHZDE\09-Apr-2025\0\\#t hf
 aug-cc-pvdz iop(5/13=1,5/36=2,99/5=2) pseudo=read geom=check guess=(re
 ad,tcheck) scf=(maxcycle=1)\\title\\0,1\O,0,-2.23537429,0.44456549,-0.
 39390034\C,0,-1.81485443,-0.54055233,-0.93322549\C,0,-0.43470585,-0.97
 714409,-0.82942407\N,0,0.65886076,-1.34276295,-0.74681074\O,0,1.782462
 69,-1.70358931,-0.65334393\C,0,1.69051441,1.19693991,1.37131153\C,0,0.
 54218631,1.47512166,1.18869848\H,0,-2.45051362,-1.19138679,-1.55293481
 \H,0,2.71302653,0.94623221,1.53164867\H,0,-0.4848285,1.70310418,1.0105

 Normal termination of Gaussian 16 at Wed Apr  9 03:59:25 2025.
