 Gaussian 16, Revision C.01,

 ----------------------------------------------------------------------
 #t hf aug-cc-pvdz symm=none int=(grid=ultrafine) guess=(read,tcheck) s
 table=(opt,rrhf)
 ----------------------------------------------------------------------
 -----
 title
 -----
 Symbolic Z-matrix:
 Charge =  0 Multiplicity = 1

 SCF Done:  E(RHF) =  -302.170146201     A.U. after   17 cycles
 Normal termination of Gaussian 16 at Wed Apr  9 15:43:35 2025.
 Gaussian 16:  ES64L-G16RevC.01  3-Jul-2019

 ----------------------------------------------------------------------
 #t hf aug-cc-pvdz iop(5/13=1,5/36=2,99/5=2) pseudo=read geom=check gue
 ss=(read,tcheck) scf=(maxcycle=1)
 ----------------------------------------------------------------------
 -----
 title
 -----
 Structure from the checkpoint file:  "Grambow2020_b97d3_006708_reverse_mol1.chk"
 Charge =  0 Multiplicity = 1

                         Standard orientation:
 ---------------------------------------------------------------------
 Center     Atomic      Atomic             Coordinates (Angstroms)
 Number     Number       Type             X           Y           Z
 ---------------------------------------------------------------------
      1          8           0       -0.233025   -1.481542    0.071029
      2          6           0       -1.205873   -0.699570   -0.143801
      3          6           0       -0.940220    0.671441   -0.080151
      4          6           0       -0.770262    1.942033    0.041038
      5          6           0        0.974579    0.045114    0.395709
      6          8           0        1.856644    0.148405   -0.372502
      7          1           0       -2.205854   -1.111571   -0.346104
      8          1           0        0.867558    0.022555    1.481117
 ---------------------------------------------------------------------

 SCF Done:  E(RHF) =  -302.457599093     A.U. after    2 cycles

 The electronic state is 1-A.
 Alpha  occ. eigenvalues --  -20.63444 -20.60540 -11.48004 -11.41397 -11.30812
 Alpha  occ. eigenvalues --  -11.24636  -1.57456  -1.51621  -1.08071  -0.94437
 Alpha  occ. eigenvalues --   -0.90565  -0.78675  -0.74149  -0.70179  -0.63340
 Alpha  occ. eigenvalues --   -0.62496  -0.59193  -0.49016  -0.46034  -0.41442
 Alpha  occ. eigenvalues --   -0.40541
 Alpha virt. eigenvalues --    0.01939   0.02762   0.02965   0.05002   0.07029
 Alpha virt. eigenvalues --    0.08033   0.09359   0.10059   0.10979   0.11558
 Alpha virt. eigenvalues --    0.13244   0.14240   0.14681   0.14812   0.15631

 Mulliken charges:
               1
     1  O   -1.102645
     2  C    1.066888
     3  C   -0.109588
     4  C   -0.415014
     5  C    1.045586
     6  O   -0.944498
     7  H    0.124450
     8  H    0.334821
 Sum of Mulliken charges =  -0.00000

 Dipole moment (field-independent basis, Debye):
    X=             -1.1811    Y=             -2.4520    Z=              1.6922  Tot=              3.2048

 Test job not archived.
 1\1\GINC-SE097\SP\RHF\Aug-CC-pVDZ\C4H2O2\OHZDE\09-Apr-2025\0\\#t hf au
 g-cc-pvdz iop(5/13=1,5/36=2,99/5=2) pseudo=read geom=check guess=(read
 ,tcheck) scf=(maxcycle=1)\\title\\0,1\O,0,-0.90236258,0.55397821,0.896
 96126\C,0,-1.22516979,-0.20873754,-0.06122718\C,0,-0.18831663,-0.67287
 143,-0.87597164\C,0,0.71580397,-1.06790051,-1.70331491\C,0,0.99684063,
 0.48459142,0.36534501\O,0,1.71252976,-0.00793979,1.15531717\H,0,-2.283
 43358,-0.4573799,-0.23119263\H,0,0.96908523,1.41117655,-0.20975908\\Ve
 rsion=ES64L-G16RevC.01\State=1-A\HF=-302.4575991\RMSD=1.155e-02\Dipole

 Normal termination of Gaussian 16 at Wed Apr  9 15:43:37 2025.
