 Gaussian 16, Revision C.01,

 ----------------------------------------------------------------------
 #t hf aug-cc-pvdz symm=none int=(grid=ultrafine) guess=(read,tcheck) s
 table=(opt,rrhf)
 ----------------------------------------------------------------------
 -----
 title
 -----
 Symbolic Z-matrix:
 Charge =  0 Multiplicity = 1

 SCF Done:  E(RHF) =  -376.966214767     A.U. after   13 cycles
 Normal termination of Gaussian 16 at Wed Apr  9 03:59:55 2025.
 Gaussian 16:  ES64L-G16RevC.01  3-Jul-2019

 ----------------------------------------------------------------------
 #t hf aug-cc-pvdz iop(5/13=1,5/36=2,99/5=2) pseudo=read geom=check gue
 ss=(read,tcheck) scf=(maxcycle=1)
 ----------------------------------------------------------------------
 -----
 title
 -----
 Structure from the checkpoint file:  "Grambow2020_wb97xd3_008748_reverse_mol2.chk"
 Charge =  0 Multiplicity = 1

                         Standard orientation:
 ---------------------------------------------------------------------
 Center     Atomic      Atomic             Coordinates (Angstroms)
 Number     Number       Type             X           Y           Z
 ---------------------------------------------------------------------
      1          7           0       -1.537089   -1.199510   -0.087220
      2          6           0       -0.170982   -1.181039   -0.006942
      3          8           0        0.504355   -2.186626    0.059013
      4          7           0        0.363537    0.091429   -0.037639
      5          6           0        1.726192    0.322721    0.007703
      6          6           0        2.290450    1.525675   -0.015899
      7          8           0       -2.143501    1.832959    0.041752
      8          1           0       -1.969294   -2.087101    0.088153
      9          1           0       -2.070471   -0.360563    0.067866
     10          1           0       -0.268933    0.875497   -0.091507
     11          1           0       -2.309547    2.395915    0.799946
     12          1           0        2.306678   -0.589429    0.066146
     13          1           0        3.365529    1.619983    0.023954
     14          1           0        1.704816    2.436158   -0.076665
     15          1           0       -2.504713    2.291305   -0.719166
 ---------------------------------------------------------------------

 SCF Done:  E(RHF) =  -377.352391436     A.U. after    2 cycles

 The electronic state is 1-A.
 Alpha  occ. eigenvalues --  -20.60653 -20.49051 -15.52048 -15.51171 -11.37552
 Alpha  occ. eigenvalues --  -11.27289 -11.21273  -1.49166  -1.45600  -1.26082
 Alpha  occ. eigenvalues --   -1.19668  -1.02399  -0.86466  -0.82300  -0.77823
 Alpha  occ. eigenvalues --   -0.76395  -0.72460  -0.66792  -0.63527  -0.62936
 Alpha  occ. eigenvalues --   -0.61547  -0.59035  -0.55318  -0.53012  -0.50658
 Alpha  occ. eigenvalues --   -0.43554  -0.42921  -0.33592
 Alpha virt. eigenvalues --    0.01507   0.04046   0.04096   0.04659   0.05584
 Alpha virt. eigenvalues --    0.06920   0.07991   0.09122   0.11081   0.11312
 Alpha virt. eigenvalues --    0.12688   0.14062   0.14790   0.15459   0.15976

 Mulliken charges:
               1
     1  N    0.733713
     2  C   -0.239030
     3  O   -1.198323
     4  N    0.969113
     5  C   -0.257050
     6  C    0.395352
     7  O   -1.276200
     8  H    0.217423
     9  H    0.037221
    10  H    0.121893
    11  H    0.511832
    12  H   -0.276005
    13  H   -0.096552
    14  H   -0.149137
    15  H    0.505749
 Sum of Mulliken charges =   0.00000

 Dipole moment (field-independent basis, Debye):
    X=             -4.6133    Y=              5.0448    Z=              0.3742  Tot=              6.8464

 Test job not archived.
 1\1\GINC-SE109\SP\RHF\Aug-CC-pVDZ\C3H8N2O2\OHZDE\09-Apr-2025\0\\#t hf
 aug-cc-pvdz iop(5/13=1,5/36=2,99/5=2) pseudo=read geom=check guess=(re
 ad,tcheck) scf=(maxcycle=1)\\title\\0,1\N,0,1.47308944,0.60509858,-1.3
 579901\C,0,1.27970302,0.89495608,-0.03450312\O,0,2.03049372,1.59845259
 ,0.6081793\N,0,0.13256884,0.3326326,0.48866262\C,0,-0.25392584,0.52691
 402,1.80215317\C,0,-1.34501082,0.0067546,2.35443087\O,0,-0.84377599,-1
 .39107102,-1.83514138\H,0,2.36742265,0.86210905,-1.73147253\H,0,0.9571
 5401,-0.13688229,-1.80031978\H,0,-0.43693892,-0.2421153,-0.11384043\H,

 Normal termination of Gaussian 16 at Wed Apr  9 04:00:03 2025.
