 Gaussian 16, Revision C.01,

 ----------------------------------------------------------------------
 #t hf aug-cc-pvdz symm=none int=(grid=ultrafine) guess=(read,tcheck) s
 table=(opt,rrhf)
 ----------------------------------------------------------------------
 -----
 title
 -----
 Symbolic Z-matrix:
 Charge =  0 Multiplicity = 1

 SCF Done:  E(RHF) =  -360.810114163     A.U. after   15 cycles
 Normal termination of Gaussian 16 at Wed Apr  9 17:28:40 2025.
 Gaussian 16:  ES64L-G16RevC.01  3-Jul-2019

 ----------------------------------------------------------------------
 #t hf aug-cc-pvdz iop(5/13=1,5/36=2,99/5=2) pseudo=read geom=check gue
 ss=(read,tcheck) scf=(maxcycle=1)
 ----------------------------------------------------------------------
 -----
 title
 -----
 Structure from the checkpoint file:  "Grambow2020_wb97xd3_006610_forward_mol1.chk"
 Charge =  0 Multiplicity = 1

                         Standard orientation:
 ---------------------------------------------------------------------
 Center     Atomic      Atomic             Coordinates (Angstroms)
 Number     Number       Type             X           Y           Z
 ---------------------------------------------------------------------
      1          6           0        2.060159   -0.236966   -0.904332
      2          6           0        0.966546    0.145351    0.071820
      3          8           0        1.236439   -0.163667    1.419530
      4          6           0        0.208755    1.297137   -0.100382
      5          7           0       -1.774745    0.811148   -0.238782
      6          6           0       -1.908501   -0.439834    0.077547
      7          8           0       -1.093776   -1.309096   -0.386966
      8          1           0        1.781560    0.032561   -1.923964
      9          1           0        2.242482   -1.314249   -0.886923
     10          1           0        2.998532    0.264370   -0.654159
     11          1           0       -0.050650   -0.684234   -0.321699
     12          1           0        1.205767   -1.116399    1.529034
     13          1           0       -0.026790    1.911308    0.758125
     14          1           0        0.217143    1.793130   -1.059193
     15          1           0       -2.383216    1.411022    0.306653
     16          1           0       -2.664667   -0.787566    0.795177
 ---------------------------------------------------------------------

 SCF Done:  E(RHF) =  -361.182207191     A.U. after    2 cycles

 The electronic state is 1-A.
 Alpha  occ. eigenvalues --  -20.54970 -20.53525 -15.49437 -11.34484 -11.30857
 Alpha  occ. eigenvalues --  -11.25937 -11.23569  -1.47414  -1.45162  -1.19739
 Alpha  occ. eigenvalues --   -1.06882  -0.95494  -0.82932  -0.80049  -0.75739
 Alpha  occ. eigenvalues --   -0.70556  -0.66127  -0.63785  -0.63240  -0.58910
 Alpha  occ. eigenvalues --   -0.57420  -0.55064  -0.53981  -0.50782  -0.50097
 Alpha  occ. eigenvalues --   -0.46759  -0.42920  -0.32825
 Alpha virt. eigenvalues --    0.03322   0.03935   0.04380   0.04861   0.05680
 Alpha virt. eigenvalues --    0.06019   0.06823   0.07727   0.09207   0.10599
 Alpha virt. eigenvalues --    0.11185   0.11656   0.12969   0.14000   0.14554

 Mulliken charges:
               1
     1  C   -0.257415
     2  C    0.790964
     3  O   -1.471662
     4  C   -0.071460
     5  N    0.401352
     6  C    0.153694
     7  O   -1.476444
     8  H    0.148248
     9  H    0.126806
    10  H    0.210038
    11  H    1.077129
    12  H    0.266485
    13  H    0.043875
    14  H   -0.042983
    15  H    0.064096
    16  H    0.037277
 Sum of Mulliken charges =  -0.00000

 Dipole moment (field-independent basis, Debye):
    X=             -0.1048    Y=              1.2132    Z=              0.6509  Tot=              1.3808

 Test job not archived.
 1\1\GINC-SE174\SP\RHF\Aug-CC-pVDZ\C4H9N1O2\OHZDE\09-Apr-2025\0\\#t hf
 aug-cc-pvdz iop(5/13=1,5/36=2,99/5=2) pseudo=read geom=check guess=(re
 ad,tcheck) scf=(maxcycle=1)\\title\\0,1\C,0,-1.82725834,-0.67528398,-0
 .64445894\C,0,-0.77005984,0.18909592,0.01144366\O,0,-1.0114372,1.57563
 007,-0.05112512\C,0,-0.11451811,-0.21619909,1.16752012\N,0,1.90341101,
 -0.29229762,0.83318064\C,0,2.14474173,0.25807697,-0.31649674\O,0,1.407
 70845,-0.01493238,-1.32516627\H,0,-1.57359189,-1.73250889,-0.55591516\
 H,0,-1.9159984,-0.44627567,-1.70924213\H,0,-2.8052051,-0.51071147,-0.1

 Normal termination of Gaussian 16 at Wed Apr  9 17:28:45 2025.
