 Gaussian 16, Revision C.01,

 ----------------------------------------------------------------------
 #t hf aug-cc-pvdz symm=none int=(grid=ultrafine) guess=(read,tcheck) s
 table=(opt,rrhf)
 ----------------------------------------------------------------------
 -----
 title
 -----
 Symbolic Z-matrix:
 Charge =  0 Multiplicity = 1

 SCF Done:  E(RHF) =  -308.869166245     A.U. after   17 cycles

 1\1\GINC-SE108\Stability\RHF\Aug-CC-pVDZ\C6H12O1\OHZDE\09-Apr-2025\0\\
 #t hf aug-cc-pvdz symm=none int=(grid=ultrafine) guess=(read,tcheck) s
 table=(opt,rrhf)\\title\\0,1\C,0,2.10106084,-0.15194463,-1.16827103\O,
 0,0.70451236,-0.28177074,-1.12435928\C,0,0.13947692,-0.17786696,0.1841
 7675\C,0,0.03515761,1.4857715,0.43719418\C,0,-0.74657495,1.9364015,-0.
 65052173\C,0,-1.19671657,-0.61272442,0.3965489\C,0,-1.49944376,-1.9726
 3297,0.90912488\H,0,2.59334392,-0.82858826,-0.45754882\H,0,2.44127284,
 0.87184993,-0.96337329\H,0,2.40994162,-0.41652201,-2.17880606\H,0,0.85

 Normal termination of Gaussian 16 at Wed Apr  9 18:59:18 2025.
 Gaussian 16:  ES64L-G16RevC.01  3-Jul-2019

 ----------------------------------------------------------------------
 #t hf aug-cc-pvdz iop(5/13=1,5/36=2,99/5=2) pseudo=read geom=check gue
 ss=(read,tcheck) scf=(maxcycle=1)
 ----------------------------------------------------------------------
 -----
 title
 -----
 Structure from the checkpoint file:  "Grambow2020_wb97xd3_008401_forward_mol1.chk"
 Charge =  0 Multiplicity = 1

                         Standard orientation:
 ---------------------------------------------------------------------
 Center     Atomic      Atomic             Coordinates (Angstroms)
 Number     Number       Type             X           Y           Z
 ---------------------------------------------------------------------
      1          6           0        1.839659   -1.478747    0.049429
      2          8           0        0.780354   -0.797955   -0.569865
      3          6           0       -0.142917   -0.188135    0.334578
      4          6           0        0.607828    1.265055    0.743495
      5          6           0        0.811880    1.893763   -0.505660
      6          6           0       -1.408354    0.237661   -0.152231
      7          6           0       -2.615335   -0.618287   -0.032732
      8          1           0        1.478222   -2.190373    0.803264
      9          1           0        2.559284   -0.802281    0.529445
     10          1           0        2.360620   -2.028612   -0.733410
     11          1           0       -0.243539   -0.894735    1.179138
     12          1           0        0.001415    1.804788    1.463768
     13          1           0        1.508728    0.882976    1.229249
     14          1           0        1.535662    1.506212   -1.206505
     15          1           0        0.291707    2.802186   -0.779451
     16          1           0       -1.504536    1.237962   -0.547430
     17          1           0       -3.538550   -0.040698    0.040983
     18          1           0       -2.717898   -1.297088   -0.889761
     19          1           0       -2.530520   -1.264553    0.848348
 ---------------------------------------------------------------------

 SCF Done:  E(RHF) =  -309.199541567     A.U. after    2 cycles

 The electronic state is 1-A.
 Alpha  occ. eigenvalues --  -20.54021 -11.30254 -11.27866 -11.25927 -11.24562
 Alpha  occ. eigenvalues --  -11.23654 -11.22703  -1.46014  -1.09120  -1.02281
 Alpha  occ. eigenvalues --   -0.95008  -0.89411  -0.82417  -0.76825  -0.68266
 Alpha  occ. eigenvalues --   -0.64984  -0.64409  -0.62033  -0.59893  -0.58665
 Alpha  occ. eigenvalues --   -0.55979  -0.55363  -0.52217  -0.50911  -0.49487
 Alpha  occ. eigenvalues --   -0.46761  -0.40090  -0.23030
 Alpha virt. eigenvalues --    0.02152   0.03522   0.03729   0.04066   0.04211
 Alpha virt. eigenvalues --    0.05862   0.06127   0.06311   0.06632   0.07742
 Alpha virt. eigenvalues --    0.08859   0.09233   0.10049   0.12117   0.13198

 Mulliken charges:
               1
     1  C    0.126836
     2  O   -1.350597
     3  C    0.663730
     4  C   -0.417857
     5  C    0.448529
     6  C    0.425438
     7  C   -0.752607
     8  H    0.166210
     9  H    0.134917
    10  H   -0.009774
    11  H    0.068064
    12  H    0.052527
    13  H    0.210651
    14  H   -0.053839
    15  H   -0.065138
    16  H   -0.238127
    17  H    0.157319
    18  H    0.261166
    19  H    0.172553
 Sum of Mulliken charges =  -0.00000

 Dipole moment (field-independent basis, Debye):
    X=              0.4518    Y=              0.0115    Z=              1.5163  Tot=              1.5822

 Test job not archived.
 1\1\GINC-SE108\SP\RHF\Aug-CC-pVDZ\C6H12O1\OHZDE\09-Apr-2025\0\\#t hf a
 ug-cc-pvdz iop(5/13=1,5/36=2,99/5=2) pseudo=read geom=check guess=(rea
 d,tcheck) scf=(maxcycle=1)\\title\\0,1\C,0,2.10106084,-0.15194463,-1.1
 6827103\O,0,0.70451236,-0.28177074,-1.12435928\C,0,0.13947692,-0.17786
 696,0.18417675\C,0,0.03515761,1.4857715,0.43719418\C,0,-0.74657495,1.9
 364015,-0.65052173\C,0,-1.19671657,-0.61272442,0.3965489\C,0,-1.499443
 76,-1.97263297,0.90912488\H,0,2.59334392,-0.82858826,-0.45754882\H,0,2
 .44127284,0.87184993,-0.96337329\H,0,2.40994162,-0.41652201,-2.1788060

 Normal termination of Gaussian 16 at Wed Apr  9 18:59:25 2025.
