 Gaussian 16, Revision C.01,

 ----------------------------------------------------------------------
 #t hf aug-cc-pvdz symm=none int=(grid=ultrafine) guess=(read,tcheck) s
 table=(opt,rrhf)
 ----------------------------------------------------------------------
 -----
 title
 -----
 Symbolic Z-matrix:
 Charge =  0 Multiplicity = 1

 SCF Done:  E(RHF) =  -339.874612807     A.U. after   15 cycles
 Normal termination of Gaussian 16 at Wed Apr  9 03:33:25 2025.
 Gaussian 16:  ES64L-G16RevC.01  3-Jul-2019

 ----------------------------------------------------------------------
 #t hf aug-cc-pvdz iop(5/13=1,5/36=2,99/5=2) pseudo=read geom=check gue
 ss=(read,tcheck) scf=(maxcycle=1)
 ----------------------------------------------------------------------
 -----
 title
 -----
 Structure from the checkpoint file:  "Grambow2020_wb97xd3_007005_reverse_mol2.chk"
 Charge =  0 Multiplicity = 1

                         Standard orientation:
 ---------------------------------------------------------------------
 Center     Atomic      Atomic             Coordinates (Angstroms)
 Number     Number       Type             X           Y           Z
 ---------------------------------------------------------------------
      1          6           0        0.277373   -1.085049    1.364106
      2          6           0       -0.046510   -0.382011    0.045432
      3          8           0       -0.704544   -1.253713   -0.816373
      4          6           0       -0.894105    0.857866    0.307937
      5          7           0       -2.012378    0.939769   -0.257975
      6          6           0        1.218446    0.098701   -0.574563
      7          7           0        2.197519    0.493400   -1.023090
      8          1           0        0.880308   -1.968594    1.160473
      9          1           0       -0.656426   -1.394586    1.833416
     10          1           0        0.829216   -0.428977    2.038812
     11          1           0       -1.501399   -0.788264   -1.118542
     12          1           0       -0.467561    1.604508    0.982645
     13          1           0        2.322304    2.002218    1.547092
     14          1           0       -2.516411    1.789850   -0.025905
     15          1           0        2.119110    2.244325    2.222976
 ---------------------------------------------------------------------

 SCF Done:  E(RHF) =  -340.222452983     A.U. after    2 cycles

 The electronic state is 1-A.
 Alpha  occ. eigenvalues --  -20.57061 -15.53799 -15.52263 -11.36191 -11.33231
 Alpha  occ. eigenvalues --  -11.28470 -11.26155  -1.49232  -1.26361  -1.24483
 Alpha  occ. eigenvalues --   -1.09038  -0.94351  -0.86259  -0.77251  -0.74472
 Alpha  occ. eigenvalues --   -0.72380  -0.63616  -0.62209  -0.60519  -0.58941
 Alpha  occ. eigenvalues --   -0.57678  -0.55770  -0.53341  -0.51541  -0.50785
 Alpha  occ. eigenvalues --   -0.49180  -0.47878
 Alpha virt. eigenvalues --    0.02555   0.03734   0.04554   0.05474   0.06355
 Alpha virt. eigenvalues --    0.06403   0.07621   0.07949   0.08575   0.10595
 Alpha virt. eigenvalues --    0.10965   0.12391   0.13440   0.13646   0.13765

 Mulliken charges:
               1
     1  C    0.241200
     2  C    0.437894
     3  O   -1.401744
     4  C   -0.584586
     5  N    0.791404
     6  C   -1.603745
     7  N    1.083981
     8  H    0.207737
     9  H    0.204122
    10  H    0.242624
    11  H    0.325736
    12  H   -0.066769
    13  H   -0.104575
    14  H    0.114835
    15  H    0.111884
 Sum of Mulliken charges =  -0.00000

 Dipole moment (field-independent basis, Debye):
    X=             -3.0712    Y=              1.1347    Z=              3.8389  Tot=              5.0455

 Test job not archived.
 1\1\GINC-SE364\SP\RHF\Aug-CC-pVDZ\C4H8N2O1\OHZDE\09-Apr-2025\0\\#t hf
 aug-cc-pvdz iop(5/13=1,5/36=2,99/5=2) pseudo=read geom=check guess=(re
 ad,tcheck) scf=(maxcycle=1)\\title\\0,1\C,0,0.34747945,1.49920586,-0.0
 0742809\C,0,0.45656286,0.08930362,0.57423988\O,0,0.91275912,0.14383444
 ,1.88743873\C,0,-0.89514265,-0.61237316,0.50237105\N,0,-1.39804518,-1.
 03698578,1.57208701\C,0,1.39011056,-0.712808,-0.26283651\N,0,2.0845577
 6,-1.3285219,-0.93677051\H,0,1.31867806,1.98785991,0.05290078\H,0,-0.3
 711668,2.06641209,0.58407105\H,0,0.0287761,1.47488693,-1.05051324\H,0,

 Normal termination of Gaussian 16 at Wed Apr  9 03:33:30 2025.
