 Gaussian 16, Revision C.01,

 ----------------------------------------------------------------------
 #t hf aug-cc-pvdz symm=none int=(grid=ultrafine) guess=(read,tcheck) s
 table=(opt,rrhf)
 ----------------------------------------------------------------------
 -----
 title
 -----
 Symbolic Z-matrix:
 Charge =  0 Multiplicity = 1

 SCF Done:  E(RHF) =  -338.713746719     A.U. after   15 cycles
 Normal termination of Gaussian 16 at Wed Apr  9 03:28:14 2025.
 Gaussian 16:  ES64L-G16RevC.01  3-Jul-2019

 ----------------------------------------------------------------------
 #t hf aug-cc-pvdz iop(5/13=1,5/36=2,99/5=2) pseudo=read geom=check gue
 ss=(read,tcheck) scf=(maxcycle=1)
 ----------------------------------------------------------------------
 -----
 title
 -----
 Structure from the checkpoint file:  "Grambow2020_wb97xd3_006692_reverse_mol2.chk"
 Charge =  0 Multiplicity = 1

                         Standard orientation:
 ---------------------------------------------------------------------
 Center     Atomic      Atomic             Coordinates (Angstroms)
 Number     Number       Type             X           Y           Z
 ---------------------------------------------------------------------
      1          6           0        2.477009   -0.274023    0.389572
      2          6           0        1.116785    0.212083   -0.034714
      3          6           0       -0.032549   -0.715373    0.223654
      4          7           0       -1.017248   -0.934911   -0.933714
      5          6           0       -1.374325   -0.228430    0.032670
      6          7           0       -2.398712    0.464943    0.545040
      7          8           0        0.942449    1.286086   -0.557649
      8          1           0        3.230577    0.476875    0.164725
      9          1           0        2.479683   -0.495422    1.459996
     10          1           0        2.711517   -1.206407   -0.129936
     11          1           0        0.163306   -1.583337    0.850028
     12          1           0       -2.182615    1.145588    1.250478
     13          1           0       -3.151857    0.698255   -0.080478
 ---------------------------------------------------------------------

 SCF Done:  E(RHF) =  -339.060976058     A.U. after    2 cycles

 The electronic state is 1-A.
 Alpha  occ. eigenvalues --  -20.53268 -15.55482 -15.51296 -11.33837 -11.33745
 Alpha  occ. eigenvalues --  -11.28380 -11.24566  -1.47185  -1.33302  -1.23734
 Alpha  occ. eigenvalues --   -1.03629  -0.93023  -0.84655  -0.78852  -0.74487
 Alpha  occ. eigenvalues --   -0.69843  -0.68296  -0.62552  -0.61119  -0.59243
 Alpha  occ. eigenvalues --   -0.56720  -0.55268  -0.50922  -0.44674  -0.43078
 Alpha  occ. eigenvalues --   -0.40248
 Alpha virt. eigenvalues --    0.02536   0.03805   0.04668   0.04832   0.05992
 Alpha virt. eigenvalues --    0.06725   0.09745   0.10341   0.11051   0.12152
 Alpha virt. eigenvalues --    0.12280   0.12712   0.13875   0.14512   0.14713

 Mulliken charges:
               1
     1  C   -0.493161
     2  C    1.209768
     3  C    0.177684
     4  N    0.823637
     5  C   -1.943720
     6  N    0.855932
     7  O   -1.384480
     8  H    0.121428
     9  H    0.247120
    10  H    0.287929
    11  H   -0.202769
    12  H    0.155299
    13  H    0.145332
 Sum of Mulliken charges =  -0.00000

 Dipole moment (field-independent basis, Debye):
    X=             -0.6525    Y=              0.2229    Z=              3.8435  Tot=              3.9049

 Test job not archived.
 1\1\GINC-SE403\SP\RHF\Aug-CC-pVDZ\C4H6N2O1\OHZDE\09-Apr-2025\0\\#t hf
 aug-cc-pvdz iop(5/13=1,5/36=2,99/5=2) pseudo=read geom=check guess=(re
 ad,tcheck) scf=(maxcycle=1)\\title\\0,1\C,0,-2.21648938,0.4209719,-0.1
 4715741\C,0,-0.7511887,0.48026762,0.19329006\C,0,0.08628486,-0.6761949
 1,-0.26401607\N,0,1.04762737,-1.28398701,0.76736104\C,0,1.51907342,-0.
 58290463,-0.15282324\N,0,2.65734017,-0.12359253,-0.68764896\O,0,-0.260
 34887,1.39978611,0.80230446\H,0,-2.72349753,1.30923607,0.22189358\H,0,
 -2.34765713,0.33985949,-1.22930785\H,0,-2.65986189,-0.47405091,0.29621

 Normal termination of Gaussian 16 at Wed Apr  9 03:28:18 2025.
