 Gaussian 16, Revision C.01,

 ----------------------------------------------------------------------
 #t hf aug-cc-pvdz symm=none int=(grid=ultrafine) guess=(read,tcheck) s
 table=(opt,rrhf)
 ----------------------------------------------------------------------
 -----
 title
 -----
 Symbolic Z-matrix:
 Charge =  0 Multiplicity = 1

 SCF Done:  E(RHF) =  -262.612654005     A.U. after   13 cycles
 Normal termination of Gaussian 16 at Wed Apr  9 15:55:39 2025.
 Gaussian 16:  ES64L-G16RevC.01  3-Jul-2019

 ----------------------------------------------------------------------
 #t hf aug-cc-pvdz iop(5/13=1,5/36=2,99/5=2) pseudo=read geom=check gue
 ss=(read,tcheck) scf=(maxcycle=1)
 ----------------------------------------------------------------------
 -----
 title
 -----
 Structure from the checkpoint file:  "Grambow2020_b97d3_006897_reverse_mol2.chk"
 Charge =  0 Multiplicity = 1

                         Standard orientation:
 ---------------------------------------------------------------------
 Center     Atomic      Atomic             Coordinates (Angstroms)
 Number     Number       Type             X           Y           Z
 ---------------------------------------------------------------------
      1          6           0       -2.376764   -1.192460    0.423508
      2          6           0       -2.201291   -0.435295   -0.509673
      3          7           0        0.083339    1.986361   -0.416084
      4          7           0        0.478246    2.107966    0.616548
      5          6           0        2.614104   -1.266398   -0.085014
      6          6           0        1.402605   -1.200621   -0.029210
      7          1           0       -2.534292   -1.856662    1.248910
      8          1           0       -2.043037    0.231371   -1.332671
      9          1           0        3.682327   -1.318380   -0.135190
     10          1           0        0.331975   -1.147980    0.018044
 ---------------------------------------------------------------------

 SCF Done:  E(RHF) =  -262.871074817     A.U. after    2 cycles

 The electronic state is 1-A.
 Alpha  occ. eigenvalues --  -15.62590 -15.62435 -11.26927 -11.26614 -11.25175
 Alpha  occ. eigenvalues --  -11.24853  -1.48154  -1.04219  -1.02435  -0.82441
 Alpha  occ. eigenvalues --   -0.77929  -0.76320  -0.70160  -0.68589  -0.68317
 Alpha  occ. eigenvalues --   -0.66277  -0.66239  -0.42994  -0.42799  -0.41149
 Alpha  occ. eigenvalues --   -0.41111
 Alpha virt. eigenvalues --    0.03623   0.03697   0.04430   0.06840   0.08372
 Alpha virt. eigenvalues --    0.08502   0.09981   0.10552   0.10815   0.11447
 Alpha virt. eigenvalues --    0.11607   0.12086   0.13626   0.14171   0.14571

 Mulliken charges:
               1
     1  C    0.186890
     2  C    0.207822
     3  N   -0.000457
     4  N   -0.013386
     5  C    0.029135
     6  C    0.464264
     7  H   -0.201951
     8  H   -0.179809
     9  H   -0.191782
    10  H   -0.300726
 Sum of Mulliken charges =  -0.00000

 Dipole moment (field-independent basis, Debye):
    X=             -0.2887    Y=              0.0257    Z=              0.0431  Tot=              0.2930

 Test job not archived.
 1\1\GINC-SE113\SP\RHF\Aug-CC-pVDZ\C4H4N2\OHZDE\09-Apr-2025\0\\#t hf au
 g-cc-pvdz iop(5/13=1,5/36=2,99/5=2) pseudo=read geom=check guess=(read
 ,tcheck) scf=(maxcycle=1)\\title\\0,1\C,0,2.05355825,1.42996341,0.1305
 61\C,0,2.02278143,0.54243333,-0.69784683\N,0,0.47393927,-2.35128126,-0
 .13196987\N,0,0.19587396,-2.43951149,0.94132548\C,0,-2.80066711,0.1615
 8234,0.10738098\C,0,-1.61420448,0.41515465,0.05099441\H,0,2.08447447,2
 .21029529,0.86363337\H,0,1.99198246,-0.24014512,-1.42821352\H,0,-3.845
 28344,-0.06789008,0.15675763\H,0,-0.5672948,0.64424494,-0.00144166\\Ve

 Normal termination of Gaussian 16 at Wed Apr  9 15:55:42 2025.
