 Gaussian 16, Revision C.01,

 ----------------------------------------------------------------------
 #t hf aug-cc-pvdz symm=none int=(grid=ultrafine) guess=(read,tcheck) s
 table=(opt,rrhf)
 ----------------------------------------------------------------------
 -----
 title
 -----
 Symbolic Z-matrix:
 Charge =  0 Multiplicity = 1

 SCF Done:  E(RHF) =  -302.853426964     A.U. after   15 cycles
 Normal termination of Gaussian 16 at Wed Apr  9 18:45:38 2025.
 Gaussian 16:  ES64L-G16RevC.01  3-Jul-2019

 ----------------------------------------------------------------------
 #t hf aug-cc-pvdz iop(5/13=1,5/36=2,99/5=2) pseudo=read geom=check gue
 ss=(read,tcheck) scf=(maxcycle=1)
 ----------------------------------------------------------------------
 -----
 title
 -----
 Structure from the checkpoint file:  "Grambow2020_wb97xd3_008032_reverse_mol2.chk"
 Charge =  0 Multiplicity = 1

                         Standard orientation:
 ---------------------------------------------------------------------
 Center     Atomic      Atomic             Coordinates (Angstroms)
 Number     Number       Type             X           Y           Z
 ---------------------------------------------------------------------
      1          6           0        1.679018   -1.494842   -0.040197
      2          6           0        0.625095   -0.427951   -0.340318
      3          6           0       -0.629025   -0.612193    0.524933
      4          7           0       -1.676873    0.354010    0.209930
      5          6           0       -2.811629    0.161656   -0.401509
      6          6           0        1.173568    0.917394   -0.136689
      7          7           0        1.584393    1.971280    0.055283
      8          1           0        1.988587   -1.452825    1.005071
      9          1           0        1.270367   -2.485866   -0.240912
     10          1           0        2.562383   -1.353859   -0.661611
     11          1           0        0.324735   -0.491616   -1.390330
     12          1           0       -0.360218   -0.529646    1.581652
     13          1           0       -1.038090   -1.607741    0.350897
     14          1           0       -1.464156    1.302574    0.498280
     15          1           0       -2.858424   -0.922439   -0.636855
 ---------------------------------------------------------------------

 SCF Done:  E(RHF) =  -303.164358830     A.U. after    2 cycles

 The electronic state is 1-A.
 Alpha  occ. eigenvalues --  -15.56317 -15.52463 -11.31130 -11.31093 -11.29009
 Alpha  occ. eigenvalues --  -11.27045 -11.26059  -1.28526  -1.24962  -1.12939
 Alpha  occ. eigenvalues --   -0.99422  -0.91414  -0.87974  -0.73954  -0.73466
 Alpha  occ. eigenvalues --   -0.65841  -0.63347  -0.62872  -0.60147  -0.59153
 Alpha  occ. eigenvalues --   -0.57617  -0.56170  -0.52376  -0.50582  -0.48554
 Alpha  occ. eigenvalues --   -0.36245
 Alpha virt. eigenvalues --    0.02513   0.03347   0.03669   0.04080   0.06004
 Alpha virt. eigenvalues --    0.06366   0.06868   0.07743   0.09401   0.09620
 Alpha virt. eigenvalues --    0.10036   0.11828   0.12880   0.13392   0.13842

 Mulliken charges:
               1
     1  C    0.048855
     2  C   -0.402592
     3  C   -0.474930
     4  N    0.718733
     5  C   -0.628740
     6  C   -1.642289
     7  N    1.064520
     8  H    0.250590
     9  H    0.143594
    10  H    0.151337
    11  H    0.213493
    12  H    0.161405
    13  H    0.101065
    14  H    0.254468
    15  H    0.040492
 Sum of Mulliken charges =  -0.00000

 Dipole moment (field-independent basis, Debye):
    X=              1.5609    Y=             -5.4872    Z=              0.5733  Tot=              5.7337

 Test job not archived.
 1\1\GINC-SE028\SP\RHF\Aug-CC-pVDZ\C5H8N2\OHZDE\09-Apr-2025\0\\#t hf au
 g-cc-pvdz iop(5/13=1,5/36=2,99/5=2) pseudo=read geom=check guess=(read
 ,tcheck) scf=(maxcycle=1)\\title\\0,1\C,0,1.70698036,-0.39168815,-0.87
 088698\C,0,0.4395548,-0.54648751,-0.02901264\C,0,-0.42235784,0.7228519
 7,-0.06514395\N,0,-1.60508412,0.62425994,0.78467926\C,0,-1.8524714,1.2
 2078093,1.91670936\C,0,-0.35131591,-1.69485752,-0.48509252\N,0,-0.9930
 4003,-2.56926159,-0.85914448\H,0,1.4590562,-0.18916531,-1.91381648\H,0
 ,2.30570809,0.43648284,-0.49000671\H,0,2.3100361,-1.29801231,-0.835318

 Normal termination of Gaussian 16 at Wed Apr  9 18:45:43 2025.
