 Gaussian 16, Revision C.01,

 ----------------------------------------------------------------------
 #t hf aug-cc-pvdz symm=none int=(grid=ultrafine) guess=(read,tcheck) s
 table=(opt,rrhf)
 ----------------------------------------------------------------------
 -----
 title
 -----
 Symbolic Z-matrix:
 Charge =  0 Multiplicity = 1

 SCF Done:  E(RHF) =  -344.759061648     A.U. after   14 cycles

 1\1\GINC-SE331\Stability\RHF\Aug-CC-pVDZ\C5H10O2\OHZDE\09-Apr-2025\0\\
 #t hf aug-cc-pvdz symm=none int=(grid=ultrafine) guess=(read,tcheck) s
 table=(opt,rrhf)\\title\\0,1\C,0,2.14128917,-0.07676947,-0.5580961\C,0
 ,0.831378,0.26517492,0.10994678\O,0,0.05288898,1.06212096,-0.7496466\C
 ,0,-1.21950203,1.22008729,-0.1580705\C,0,-1.68362891,-0.12972563,0.359
 16699\C,0,0.03615733,-1.01313877,0.43220288\O,0,-0.02374757,-1.9884015
 5,-0.44978868\H,0,2.6835077,0.83662909,-0.8009218\H,0,1.94593366,-0.64
 280305,-1.46733303\H,0,2.75923167,-0.68749614,0.10222957\H,0,0.9992966

 Normal termination of Gaussian 16 at Wed Apr  9 03:39:44 2025.
 Gaussian 16:  ES64L-G16RevC.01  3-Jul-2019

 ----------------------------------------------------------------------
 #t hf aug-cc-pvdz iop(5/13=1,5/36=2,99/5=2) pseudo=read geom=check gue
 ss=(read,tcheck) scf=(maxcycle=1)
 ----------------------------------------------------------------------
 -----
 title
 -----
 Structure from the checkpoint file:  "Grambow2020_wb97xd3_007411_forward_mol1.chk"
 Charge =  0 Multiplicity = 1

                         Standard orientation:
 ---------------------------------------------------------------------
 Center     Atomic      Atomic             Coordinates (Angstroms)
 Number     Number       Type             X           Y           Z
 ---------------------------------------------------------------------
      1          6           0       -2.089239   -0.590755   -0.020928
      2          6           0       -0.650992   -0.499981    0.428829
      3          8           0        0.171926   -1.213245   -0.462311
      4          6           0        1.514726   -0.967230   -0.101398
      5          6           0        1.680341    0.518589    0.162905
      6          6           0       -0.180075    0.965659    0.449953
      7          8           0       -0.510456    1.775182   -0.533996
      8          1           0       -2.402819   -1.633777   -0.053078
      9          1           0       -2.187205   -0.145265   -1.009468
     10          1           0       -2.739995   -0.049009    0.667475
     11          1           0       -0.527606   -0.911087    1.444549
     12          1           0        2.134792   -1.324548   -0.922435
     13          1           0        1.770708   -1.540161    0.800050
     14          1           0        2.134868    0.801762    1.107199
     15          1           0        2.235183    1.033714   -0.639554
     16          1           0       -0.124200    1.393443    1.465485
     17          1           0        0.765954    1.321744   -0.405929
 ---------------------------------------------------------------------

 SCF Done:  E(RHF) =  -345.119446746     A.U. after    2 cycles

 The electronic state is 1-A.
 Alpha  occ. eigenvalues --  -20.55835 -20.48620 -11.35933 -11.30475 -11.29988
 Alpha  occ. eigenvalues --  -11.26635 -11.22623  -1.49041  -1.42393  -1.06367
 Alpha  occ. eigenvalues --   -1.04977  -0.92339  -0.86602  -0.79296  -0.72313
 Alpha  occ. eigenvalues --   -0.68547  -0.67704  -0.65664  -0.61780  -0.56912
 Alpha  occ. eigenvalues --   -0.56828  -0.54454  -0.53116  -0.51642  -0.50452
 Alpha  occ. eigenvalues --   -0.44336  -0.38938  -0.36521
 Alpha virt. eigenvalues --    0.02835   0.03468   0.03897   0.04626   0.05684
 Alpha virt. eigenvalues --    0.06120   0.06674   0.07199   0.08205   0.09928
 Alpha virt. eigenvalues --    0.12006   0.12245   0.12884   0.13618   0.14309

 Mulliken charges:
               1
     1  C   -0.436862
     2  C    0.651628
     3  O   -1.468607
     4  C    0.547732
     5  C   -0.667891
     6  C    1.134469
     7  O   -1.627998
     8  H    0.175645
     9  H    0.263576
    10  H    0.205646
    11  H    0.172578
    12  H   -0.021397
    13  H    0.132431
    14  H    0.124968
    15  H    0.170428
    16  H    0.186531
    17  H    0.457124
 Sum of Mulliken charges =  -0.00000

 Dipole moment (field-independent basis, Debye):
    X=              2.5321    Y=             -1.4600    Z=              2.7000  Tot=              3.9791

 Test job not archived.
 1\1\GINC-SE331\SP\RHF\Aug-CC-pVDZ\C5H10O2\OHZDE\09-Apr-2025\0\\#t hf a
 ug-cc-pvdz iop(5/13=1,5/36=2,99/5=2) pseudo=read geom=check guess=(rea
 d,tcheck) scf=(maxcycle=1)\\title\\0,1\C,0,2.14128917,-0.07676947,-0.5
 580961\C,0,0.831378,0.26517492,0.10994678\O,0,0.05288898,1.06212096,-0
 .7496466\C,0,-1.21950203,1.22008729,-0.1580705\C,0,-1.68362891,-0.1297
 2563,0.35916699\C,0,0.03615733,-1.01313877,0.43220288\O,0,-0.02374757,
 -1.98840155,-0.44978868\H,0,2.6835077,0.83662909,-0.8009218\H,0,1.9459
 3366,-0.64280305,-1.46733303\H,0,2.75923167,-0.68749614,0.10222957\H,0

 Normal termination of Gaussian 16 at Wed Apr  9 03:39:50 2025.
