 Gaussian 16, Revision C.01,

 ----------------------------------------------------------------------
 #t hf aug-cc-pvdz symm=none int=(grid=ultrafine) guess=(read,tcheck) s
 table=(opt,rrhf)
 ----------------------------------------------------------------------
 -----
 title
 -----
 Symbolic Z-matrix:
 Charge =  0 Multiplicity = 1

 SCF Done:  E(RHF) =  -321.329301467     A.U. after   19 cycles
 Normal termination of Gaussian 16 at Wed Apr  9 03:40:47 2025.
 Gaussian 16:  ES64L-G16RevC.01  3-Jul-2019

 ----------------------------------------------------------------------
 #t hf aug-cc-pvdz iop(5/13=1,5/36=2,99/5=2) pseudo=read geom=check gue
 ss=(read,tcheck) scf=(maxcycle=1)
 ----------------------------------------------------------------------
 -----
 title
 -----
 Structure from the checkpoint file:  "Grambow2020_wb97xd3_007491_forward_mol1.chk"
 Charge =  0 Multiplicity = 1

                         Standard orientation:
 ---------------------------------------------------------------------
 Center     Atomic      Atomic             Coordinates (Angstroms)
 Number     Number       Type             X           Y           Z
 ---------------------------------------------------------------------
      1          8           0        1.593418   -1.398078   -0.137922
      2          6           0        0.954779   -0.419450    0.044310
      3          6           0        1.249848    1.013379    0.022895
      4          6           0        0.348862    1.882385   -0.041843
      5          6           0       -0.640356   -0.439682    0.440035
      6          6           0       -1.277507    0.771170   -0.105950
      7          7           0       -1.580654   -1.272686   -0.085803
      8          1           0        0.114452    2.925306   -0.148568
      9          1           0       -0.634761   -0.464940    1.535224
     10          1           0       -1.376173    0.842212   -1.184362
     11          1           0       -2.101934    1.208421    0.447548
     12          1           0       -1.498109   -1.264391   -1.102527
 ---------------------------------------------------------------------

 SCF Done:  E(RHF) =  -321.646540279     A.U. after    2 cycles

 The electronic state is 1-A.
 Alpha  occ. eigenvalues --  -20.57170 -15.54498 -11.38010 -11.32007 -11.30820
 Alpha  occ. eigenvalues --  -11.30013 -11.26838  -1.51515  -1.25064  -1.11822
 Alpha  occ. eigenvalues --   -0.97562  -0.92929  -0.84039  -0.75321  -0.72370
 Alpha  occ. eigenvalues --   -0.68236  -0.67709  -0.63596  -0.59726  -0.56745
 Alpha  occ. eigenvalues --   -0.53199  -0.50029  -0.43089  -0.41020  -0.34497
 Alpha virt. eigenvalues --   -0.02520   0.02371   0.03730   0.03837   0.04976
 Alpha virt. eigenvalues --    0.06329   0.07270   0.08929   0.09885   0.10678
 Alpha virt. eigenvalues --    0.11404   0.12998   0.14271   0.14371   0.14667

 Mulliken charges:
               1
     1  O   -1.188710
     2  C    0.959878
     3  C    0.066972
     4  C    0.458460
     5  C   -1.471263
     6  C    0.079047
     7  N    0.734531
     8  H   -0.096308
     9  H    0.090020
    10  H    0.154958
    11  H   -0.001728
    12  H    0.214143
 Sum of Mulliken charges =   0.00000

 Dipole moment (field-independent basis, Debye):
    X=             -1.8212    Y=              4.7849    Z=             -0.6352  Tot=              5.1590

 Test job not archived.
 1\1\GINC-SE150\SP\RHF\Aug-CC-pVDZ\C5H5N1O1\OHZDE\09-Apr-2025\0\\#t hf
 aug-cc-pvdz iop(5/13=1,5/36=2,99/5=2) pseudo=read geom=check guess=(re
 ad,tcheck) scf=(maxcycle=1)\\title\\0,1\O,0,0.47296102,1.24881028,2.25
 127079\C,0,0.62946569,0.69544697,1.21779275\C,0,1.67010106,-0.17560776
 ,0.6711074\C,0,1.48444988,-0.88540239,-0.34519092\C,0,-0.42701952,0.80
 39238,-0.03661374\C,0,-0.38430448,-0.45533982,-0.79993135\N,0,-1.78515
 003,0.7945988,0.06316624\H,0,1.87833474,-1.64857421,-0.99051752\H,0,-0
 .06249198,1.66459778,-0.6079871\H,0,-0.78544254,-1.34382844,-0.3230350

 Normal termination of Gaussian 16 at Wed Apr  9 03:40:51 2025.
