 Gaussian 16, Revision C.01,

 ----------------------------------------------------------------------
 #t hf aug-cc-pvdz symm=none int=(grid=ultrafine) guess=(read,tcheck) s
 table=(opt,rrhf)
 ----------------------------------------------------------------------
 -----
 title
 -----
 Symbolic Z-matrix:
 Charge =  0 Multiplicity = 1

 SCF Done:  E(RHF) =  -245.644616243     A.U. after   15 cycles
 Normal termination of Gaussian 16 at Wed Apr  9 16:28:43 2025.
 Gaussian 16:  ES64L-G16RevC.01  3-Jul-2019

 ----------------------------------------------------------------------
 #t hf aug-cc-pvdz iop(5/13=1,5/36=2,99/5=2) pseudo=read geom=check gue
 ss=(read,tcheck) scf=(maxcycle=1)
 ----------------------------------------------------------------------
 -----
 title
 -----
 Structure from the checkpoint file:  "Grambow2020_wb97xd3_006117_forward_mol1.chk"
 Charge =  0 Multiplicity = 1

                         Standard orientation:
 ---------------------------------------------------------------------
 Center     Atomic      Atomic             Coordinates (Angstroms)
 Number     Number       Type             X           Y           Z
 ---------------------------------------------------------------------
      1          6           0       -1.069339    0.560324   -0.097783
      2          6           0        0.410886    0.888318    0.241524
      3          7           0        1.243619    0.124786   -0.540092
      4          6           0        0.529027   -0.763525    0.224004
      5          8           0       -0.858613   -0.850115   -0.113423
      6          1           0       -1.788101    0.815149    0.683838
      7          1           0       -1.366134    0.963122   -1.066775
      8          1           0        0.768008    1.737618    0.826771
      9          1           0        0.322872   -0.068870    1.359983
     10          1           0        1.003489   -1.630301    0.677735
 ---------------------------------------------------------------------

 SCF Done:  E(RHF) =  -245.899463390     A.U. after    2 cycles

 The electronic state is 1-A.
 Alpha  occ. eigenvalues --  -20.57223 -15.44735 -11.38907 -11.36308 -11.31386
 Alpha  occ. eigenvalues --   -1.51779  -1.27504  -1.00544  -0.88960  -0.83464
 Alpha  occ. eigenvalues --   -0.75805  -0.70725  -0.63228  -0.60665  -0.57818
 Alpha  occ. eigenvalues --   -0.53280  -0.48823  -0.44237  -0.37348
 Alpha virt. eigenvalues --    0.02889   0.04077   0.04391   0.04652   0.06862
 Alpha virt. eigenvalues --    0.08354   0.09889   0.10595   0.11848   0.12693
 Alpha virt. eigenvalues --    0.13970   0.15067   0.15629   0.15913   0.17177

 Mulliken charges:
               1
     1  C    0.624324
     2  C   -0.847122
     3  N    0.374487
     4  C    0.605795
     5  O   -1.318735
     6  H    0.086457
     7  H    0.126094
     8  H   -0.042616
     9  H    0.397030
    10  H   -0.005713
 Sum of Mulliken charges =  -0.00000

 Dipole moment (field-independent basis, Debye):
    X=             -1.8326    Y=              1.4911    Z=              3.2393  Tot=              4.0093

 Test job not archived.
 1\1\GINC-SE173\SP\RHF\Aug-CC-pVDZ\C3H5N1O1\OHZDE\09-Apr-2025\0\\#t hf
 aug-cc-pvdz iop(5/13=1,5/36=2,99/5=2) pseudo=read geom=check guess=(re
 ad,tcheck) scf=(maxcycle=1)\\title\\0,1\C,0,-0.74177029,-0.80465594,-0
 .11470059\C,0,-0.43232947,0.71748309,-0.14807938\N,0,0.60324559,0.9589
 2541,-1.01792899\C,0,1.1224191,0.15902214,-0.0309154\O,0,0.63084414,-1
 .18454578,-0.03985345\H,0,-1.26668093,-1.1481688,0.77914037\H,0,-1.233
 91344,-1.14244863,-1.02737317\H,0,-1.0584176,1.51440869,0.25724144\H,0
 ,0.40790558,0.53040064,1.04938148\H,0,2.10896931,0.34340219,0.38742668

 Normal termination of Gaussian 16 at Wed Apr  9 16:28:46 2025.
