 Gaussian 16, Revision C.01,

 ----------------------------------------------------------------------
 #t hf aug-cc-pvdz symm=none int=(grid=ultrafine) guess=(read,tcheck) s
 table=(opt,rrhf)
 ----------------------------------------------------------------------
 -----
 title
 -----
 Symbolic Z-matrix:
 Charge =  0 Multiplicity = 1

 SCF Done:  E(RHF) =  -360.628379540     A.U. after   16 cycles
 Normal termination of Gaussian 16 at Wed Apr  9 18:31:37 2025.
 Gaussian 16:  ES64L-G16RevC.01  3-Jul-2019

 ----------------------------------------------------------------------
 #t hf aug-cc-pvdz iop(5/13=1,5/36=2,99/5=2) pseudo=read geom=check gue
 ss=(read,tcheck) scf=(maxcycle=1)
 ----------------------------------------------------------------------
 -----
 title
 -----
 Structure from the checkpoint file:  "Grambow2020_wb97xd3_007670_forward_mol1.chk"
 Charge =  0 Multiplicity = 1

                         Standard orientation:
 ---------------------------------------------------------------------
 Center     Atomic      Atomic             Coordinates (Angstroms)
 Number     Number       Type             X           Y           Z
 ---------------------------------------------------------------------
      1          6           0        2.117230    0.602284   -0.484808
      2          8           0        1.609459   -0.573847    0.107006
      3          6           0        0.533530   -0.380141    0.991639
      4          6           0       -0.847834   -0.548095    0.407047
      5          7           0       -1.774148    0.465207    0.381314
      6          8           0       -1.108626    1.449086   -0.126107
      7          6           0       -1.082623   -1.306565   -0.726846
      8          1           0        3.062958    0.333756   -0.953802
      9          1           0        1.444040    1.007551   -1.245704
     10          1           0        2.299393    1.377246    0.267749
     11          1           0        0.593668    0.588108    1.497470
     12          1           0        0.626049   -1.163496    1.751978
     13          1           0       -0.767302    0.891383   -1.224676
     14          1           0       -0.347351   -2.013338   -1.091207
     15          1           0       -0.712521   -0.072617   -1.571773
     16          1           0       -2.108376   -1.411856   -1.068609
 ---------------------------------------------------------------------

 SCF Done:  E(RHF) =  -360.999213515     A.U. after    2 cycles

 The electronic state is 1-A.
 Alpha  occ. eigenvalues --  -20.61386 -20.55792 -15.59159 -11.30562 -11.30410
 Alpha  occ. eigenvalues --  -11.29873 -11.28648  -1.54927  -1.47766  -1.16765
 Alpha  occ. eigenvalues --   -1.00696  -0.98631  -0.91141  -0.79190  -0.73445
 Alpha  occ. eigenvalues --   -0.69786  -0.69377  -0.66232  -0.65047  -0.63527
 Alpha  occ. eigenvalues --   -0.60755  -0.56262  -0.55444  -0.49368  -0.48006
 Alpha  occ. eigenvalues --   -0.44508  -0.43815  -0.34993
 Alpha virt. eigenvalues --    0.02775   0.04046   0.04094   0.04528   0.05191
 Alpha virt. eigenvalues --    0.06394   0.06620   0.07207   0.08297   0.08501
 Alpha virt. eigenvalues --    0.10098   0.11268   0.12349   0.13610   0.14275

 Mulliken charges:
               1
     1  C    0.198208
     2  O   -1.247305
     3  C    0.537381
     4  C   -1.128692
     5  N    1.465502
     6  O   -1.328868
     7  C    0.082525
     8  H   -0.032987
     9  H    0.149650
    10  H    0.171779
    11  H    0.288732
    12  H    0.130524
    13  H    0.562945
    14  H   -0.023754
    15  H    0.128207
    16  H    0.046152
 Sum of Mulliken charges =  -0.00000

 Dipole moment (field-independent basis, Debye):
    X=              1.8089    Y=             -1.6299    Z=             -0.8729  Tot=              2.5866

 Test job not archived.
 1\1\GINC-SE232\SP\RHF\Aug-CC-pVDZ\C4H9N1O2\OHZDE\09-Apr-2025\0\\#t hf
 aug-cc-pvdz iop(5/13=1,5/36=2,99/5=2) pseudo=read geom=check guess=(re
 ad,tcheck) scf=(maxcycle=1)\\title\\0,1\C,0,1.99842101,0.34804845,-0.1
 2928872\O,0,1.2656898,-0.42518697,0.79622259\C,0,0.1122653,0.19390218,
 1.31009092\C,0,-1.18521957,-0.12959297,0.61008489\N,0,-1.95985584,0.82
 50299,-0.00157926\O,0,-1.10879718,1.45254847,-0.74342264\C,0,-1.357628
 53,-1.288494,-0.12702977\H,0,2.95694591,-0.15121393,-0.26505392\H,0,1.
 49494586,0.42309785,-1.09741475\H,0,2.17391486,1.3600738,0.25162994\H,

 Normal termination of Gaussian 16 at Wed Apr  9 18:31:43 2025.
