 Gaussian 16, Revision C.01,

 ----------------------------------------------------------------------
 #t hf aug-cc-pvdz symm=none int=(grid=ultrafine) guess=(read,tcheck) s
 table=(opt,rrhf)
 ----------------------------------------------------------------------
 -----
 title
 -----
 Symbolic Z-matrix:
 Charge =  0 Multiplicity = 1

 SCF Done:  E(RHF) =  -306.571225837     A.U. after   16 cycles
 Normal termination of Gaussian 16 at Wed Apr  9 19:00:57 2025.
 Gaussian 16:  ES64L-G16RevC.01  3-Jul-2019

 ----------------------------------------------------------------------
 #t hf aug-cc-pvdz iop(5/13=1,5/36=2,99/5=2) pseudo=read geom=check gue
 ss=(read,tcheck) scf=(maxcycle=1)
 ----------------------------------------------------------------------
 -----
 title
 -----
 Structure from the checkpoint file:  "Grambow2020_wb97xd3_008436_forward_mol1.chk"
 Charge =  0 Multiplicity = 1

                         Standard orientation:
 ---------------------------------------------------------------------
 Center     Atomic      Atomic             Coordinates (Angstroms)
 Number     Number       Type             X           Y           Z
 ---------------------------------------------------------------------
      1          6           0       -0.952862    1.013327   -0.539764
      2          6           0       -1.299394   -0.434528   -0.545171
      3          6           0       -0.453183   -1.148165    0.298205
      4          8           0        1.123416   -0.850338   -0.671654
      5          6           0        1.459322    0.375141   -0.223519
      6          6           0        0.140412    0.999668    0.537073
      7          6           0       -0.259852   -0.164776    1.301462
      8          1           0       -0.650965    1.353382   -1.536977
      9          1           0       -1.780047    1.644033   -0.209454
     10          1           0       -2.031738   -0.878659   -1.210847
     11          1           0       -0.518578   -2.212586    0.466602
     12          1           0        1.715153    1.069873   -1.037133
     13          1           0        2.268206    0.395986    0.521220
     14          1           0        0.330065    1.937636    1.051760
     15          1           0       -0.126077   -0.350959    2.358346
 ---------------------------------------------------------------------

 SCF Done:  E(RHF) =  -306.891474490     A.U. after    2 cycles

 The electronic state is 1-A.
 Alpha  occ. eigenvalues --  -20.45849 -11.30452 -11.29276 -11.28060 -11.25919
 Alpha  occ. eigenvalues --  -11.25724 -11.24580  -1.36312  -1.18779  -1.01027
 Alpha  occ. eigenvalues --   -0.98654  -0.84858  -0.77451  -0.76860  -0.74140
 Alpha  occ. eigenvalues --   -0.64516  -0.62923  -0.58287  -0.56881  -0.55303
 Alpha  occ. eigenvalues --   -0.52791  -0.51921  -0.50564  -0.39847  -0.35516
 Alpha  occ. eigenvalues --   -0.29383
 Alpha virt. eigenvalues --    0.02802   0.03012   0.03473   0.03769   0.04931
 Alpha virt. eigenvalues --    0.05635   0.05733   0.06744   0.07519   0.11290
 Alpha virt. eigenvalues --    0.11831   0.12611   0.13288   0.13497   0.14032

 Mulliken charges:
               1
     1  C   -0.211269
     2  C    0.285825
     3  C    0.588572
     4  O   -1.190847
     5  C    0.757623
     6  C   -0.392987
     7  C    0.235350
     8  H    0.153983
     9  H    0.135936
    10  H   -0.071797
    11  H   -0.182264
    12  H    0.072040
    13  H    0.057205
    14  H   -0.072308
    15  H   -0.165063
 Sum of Mulliken charges =  -0.00000

 Dipole moment (field-independent basis, Debye):
    X=             -3.1861    Y=              1.3780    Z=              1.5022  Tot=              3.7824

 Test job not archived.
 1\1\GINC-SE162\SP\RHF\Aug-CC-pVDZ\C6H8O1\OHZDE\09-Apr-2025\0\\#t hf au
 g-cc-pvdz iop(5/13=1,5/36=2,99/5=2) pseudo=read geom=check guess=(read
 ,tcheck) scf=(maxcycle=1)\\title\\0,1\C,0,0.75877826,1.0943846,0.16959
 075\C,0,1.45794828,-0.21733355,0.25298947\C,0,0.63374878,-1.24573342,-
 0.1939123\O,0,-0.65015789,-1.10244779,1.16477991\C,0,-1.39919148,-0.08
 871933,0.68858634\C,0,-0.53854131,0.63778886,-0.51121469\C,0,-0.067333
 13,-0.54315844,-1.20674347\H,0,0.65475863,1.55287891,1.15962944\H,0,1.
 27541704,1.80778989,-0.47482027\H,0,2.42991207,-0.3563794,0.71413723\H

 Normal termination of Gaussian 16 at Wed Apr  9 19:01:02 2025.
