 Gaussian 16, Revision C.01,

 ----------------------------------------------------------------------
 #t hf aug-cc-pvdz symm=none int=(grid=ultrafine) guess=(read,tcheck) s
 table=(opt,rrhf)
 ----------------------------------------------------------------------
 -----
 title
 -----
 Symbolic Z-matrix:
 Charge =  0 Multiplicity = 1

 SCF Done:  E(RHF) =  -337.367011727     A.U. after   16 cycles
 Normal termination of Gaussian 16 at Wed Apr  9 19:21:48 2025.
 Gaussian 16:  ES64L-G16RevC.01  3-Jul-2019

 ----------------------------------------------------------------------
 #t hf aug-cc-pvdz iop(5/13=1,5/36=2,99/5=2) pseudo=read geom=check gue
 ss=(read,tcheck) scf=(maxcycle=1)
 ----------------------------------------------------------------------
 -----
 title
 -----
 Structure from the checkpoint file:  "Grambow2020_wb97xd3_009446_reverse_mol1.chk"
 Charge =  0 Multiplicity = 1

                         Standard orientation:
 ---------------------------------------------------------------------
 Center     Atomic      Atomic             Coordinates (Angstroms)
 Number     Number       Type             X           Y           Z
 ---------------------------------------------------------------------
      1          7           0        1.131046   -0.416137    1.144456
      2          6           0        0.697675   -0.796084    0.051338
      3          6           0       -0.723898   -1.180314   -0.319529
      4          8           0       -1.462627   -0.000687    0.000585
      5          6           0       -0.725143    1.180290    0.318224
      6          6           0        0.697277    0.796138   -0.050854
      7          7           0        1.131850    0.416762   -1.143671
      8          1           0       -1.060270   -1.995830    0.319525
      9          1           0       -0.845615   -1.429112   -1.372742
     10          1           0       -1.060572    1.994741   -0.322843
     11          1           0       -0.848258    1.431141    1.370813
 ---------------------------------------------------------------------

 SCF Done:  E(RHF) =  -337.701580793     A.U. after    2 cycles

 The electronic state is 1-A.
 Alpha  occ. eigenvalues --  -20.59021 -15.54511 -15.54454 -11.36452 -11.36443
 Alpha  occ. eigenvalues --  -11.34382 -11.34300  -1.51147  -1.36745  -1.20667
 Alpha  occ. eigenvalues --   -1.05507  -0.96285  -0.79210  -0.78794  -0.71610
 Alpha  occ. eigenvalues --   -0.70404  -0.66735  -0.64804  -0.60299  -0.58889
 Alpha  occ. eigenvalues --   -0.54754  -0.52611  -0.51117  -0.46452  -0.40504
 Alpha virt. eigenvalues --    0.02685   0.04117   0.04469   0.04713   0.05662
 Alpha virt. eigenvalues --    0.07353   0.08014   0.09289   0.10311   0.11183
 Alpha virt. eigenvalues --    0.11592   0.13471   0.13775   0.14652   0.15124

 Mulliken charges:
               1
     1  N    0.952859
     2  C   -1.602975
     3  C    0.962559
     4  O   -1.302105
     5  C    0.961869
     6  C   -1.605158
     7  N    0.953188
     8  H    0.161849
     9  H    0.177884
    10  H    0.162467
    11  H    0.177562
 Sum of Mulliken charges =   0.00000

 Dipole moment (field-independent basis, Debye):
    X=             -2.5670    Y=             -0.0010    Z=             -0.0036  Tot=              2.5670

 Test job not archived.
 1\1\GINC-SE054\SP\RHF\Aug-CC-pVDZ\C4H4N2O1\OHZDE\09-Apr-2025\0\\#t hf
 aug-cc-pvdz iop(5/13=1,5/36=2,99/5=2) pseudo=read geom=check guess=(re
 ad,tcheck) scf=(maxcycle=1)\\title\\0,1\N,0,0.95407135,-0.22720125,1.5
 6651375\C,0,0.90849535,0.5751964,0.62781319\C,0,0.94064799,0.28793816,
 -0.86298962\O,0,-0.17998486,-0.57940231,-1.04079336\C,0,-1.08004346,-0
 .73678472,0.05675266\C,0,-0.61855245,0.33864099,1.02502742\N,0,-0.5336
 9107,1.5570072,0.83684883\H,0,1.85295461,-0.25315762,-1.11101134\H,0,0
 .83119415,1.17911677,-1.47926471\H,0,-2.09327442,-0.51600897,-0.277059

 Normal termination of Gaussian 16 at Wed Apr  9 19:21:53 2025.
