 Gaussian 16, Revision C.01,

 ----------------------------------------------------------------------
 #t hf aug-cc-pvdz symm=none int=(grid=ultrafine) guess=(read,tcheck) s
 table=(opt,rrhf)
 ----------------------------------------------------------------------
 -----
 title
 -----
 Symbolic Z-matrix:
 Charge =  0 Multiplicity = 1

 SCF Done:  E(RHF) =  -309.003462241     A.U. after   13 cycles

 1\1\GINC-SE168\Stability\RHF\Aug-CC-pVDZ\C6H12O1\OHZDE\09-Apr-2025\0\\
 #t hf aug-cc-pvdz symm=none int=(grid=ultrafine) guess=(read,tcheck) s
 table=(opt,rrhf)\\title\\0,1\C,0,0.19318822,-2.0567142,-0.17814047\O,0
 ,-0.03057074,-1.62983361,-1.49660953\C,0,0.42014392,1.76512181,0.70469
 377\C,0,-0.92329095,1.48945911,0.06717247\C,0,-1.37573054,1.05083847,1
 .49455761\C,0,0.03388216,1.38926673,1.9227348\C,0,1.11051087,-1.047497
 4,-2.06698288\H,0,-0.73781319,-2.48554075,0.19099599\H,0,0.48480076,-1
 .21943992,0.46992141\H,0,0.97972755,-2.82199616,-0.13238079\H,0,1.3536

 Normal termination of Gaussian 16 at Wed Apr  9 18:58:10 2025.
 Gaussian 16:  ES64L-G16RevC.01  3-Jul-2019

 ----------------------------------------------------------------------
 #t hf aug-cc-pvdz iop(5/13=1,5/36=2,99/5=2) pseudo=read geom=check gue
 ss=(read,tcheck) scf=(maxcycle=1)
 ----------------------------------------------------------------------
 -----
 title
 -----
 Structure from the checkpoint file:  "Grambow2020_wb97xd3_008396_reverse_mol2.chk"
 Charge =  0 Multiplicity = 1

                         Standard orientation:
 ---------------------------------------------------------------------
 Center     Atomic      Atomic             Coordinates (Angstroms)
 Number     Number       Type             X           Y           Z
 ---------------------------------------------------------------------
      1          6           0       -1.675702    1.221690    0.357784
      2          8           0       -2.150123    0.231528   -0.516950
      3          6           0        1.591420   -0.950610    0.568410
      4          6           0        1.339008   -0.585991   -0.877474
      5          6           0        2.052693    0.759213   -0.537476
      6          6           0        2.199351    0.198444    0.858556
      7          6           0       -2.394065   -0.983710    0.138944
      8          1           0       -1.504653    2.123794   -0.228618
      9          1           0       -0.733341    0.918175    0.833057
     10          1           0       -2.407038    1.443874    1.146566
     11          1           0        1.361977   -1.837540    1.147246
     12          1           0        1.853930   -1.203910   -1.616021
     13          1           0        0.291349   -0.483970   -1.169451
     14          1           0        1.421669    1.646234   -0.629525
     15          1           0        2.984701    0.935170   -1.078535
     16          1           0        2.645822    0.597632    1.761241
     17          1           0       -2.758297   -1.692062   -0.604294
     18          1           0       -1.478587   -1.382800    0.596335
     19          1           0       -3.152768   -0.871034    0.925132
 ---------------------------------------------------------------------

 SCF Done:  E(RHF) =  -309.337337453     A.U. after    2 cycles

 The electronic state is 1-A.
 Alpha  occ. eigenvalues --  -20.54205 -11.27802 -11.27541 -11.23436 -11.23310
 Alpha  occ. eigenvalues --  -11.23178 -11.22878  -1.46391  -1.15287  -0.97081
 Alpha  occ. eigenvalues --   -0.90098  -0.87873  -0.87736  -0.71136  -0.68894
 Alpha  occ. eigenvalues --   -0.66552  -0.65460  -0.64506  -0.62691  -0.55541
 Alpha  occ. eigenvalues --   -0.54644  -0.53261  -0.50987  -0.47912  -0.47315
 Alpha  occ. eigenvalues --   -0.46445  -0.41682  -0.35929
 Alpha virt. eigenvalues --    0.03452   0.03508   0.03935   0.04300   0.05719
 Alpha virt. eigenvalues --    0.05742   0.05993   0.07533   0.08167   0.08852
 Alpha virt. eigenvalues --    0.09338   0.09948   0.12777   0.13143   0.13208

 Mulliken charges:
               1
     1  C    0.336175
     2  O   -1.232802
     3  C    0.196769
     4  C   -0.026429
     5  C   -0.228512
     6  C    0.146077
     7  C    0.305436
     8  H   -0.004298
     9  H    0.174523
    10  H    0.125358
    11  H   -0.156349
    12  H    0.058610
    13  H   -0.001519
    14  H    0.067631
    15  H    0.054325
    16  H   -0.132556
    17  H    0.006917
    18  H    0.172796
    19  H    0.137848
 Sum of Mulliken charges =   0.00000

 Dipole moment (field-independent basis, Debye):
    X=              0.1864    Y=             -0.1742    Z=              1.1531  Tot=              1.1810

 Test job not archived.
 1\1\GINC-SE168\SP\RHF\Aug-CC-pVDZ\C6H12O1\OHZDE\09-Apr-2025\0\\#t hf a
 ug-cc-pvdz iop(5/13=1,5/36=2,99/5=2) pseudo=read geom=check guess=(rea
 d,tcheck) scf=(maxcycle=1)\\title\\0,1\C,0,0.19318822,-2.0567142,-0.17
 814047\O,0,-0.03057074,-1.62983361,-1.49660953\C,0,0.42014392,1.765121
 81,0.70469377\C,0,-0.92329095,1.48945911,0.06717247\C,0,-1.37573054,1.
 05083847,1.49455761\C,0,0.03388216,1.38926673,1.9227348\C,0,1.11051087
 ,-1.0474974,-2.06698288\H,0,-0.73781319,-2.48554075,0.19099599\H,0,0.4
 8480076,-1.21943992,0.46992141\H,0,0.97972755,-2.82199616,-0.13238079\

 Normal termination of Gaussian 16 at Wed Apr  9 18:58:17 2025.
