 Gaussian 16, Revision C.01,

 ----------------------------------------------------------------------
 #t hf aug-cc-pvdz symm=none int=(grid=ultrafine) guess=(read,tcheck) s
 table=(opt,rrhf)
 ----------------------------------------------------------------------
 -----
 title
 -----
 Symbolic Z-matrix:
 Charge =  0 Multiplicity = 1

 SCF Done:  E(RHF) =  -322.716607172     A.U. after   14 cycles
 Normal termination of Gaussian 16 at Wed Apr  9 18:01:38 2025.
 Gaussian 16:  ES64L-G16RevC.01  3-Jul-2019

 ----------------------------------------------------------------------
 #t hf aug-cc-pvdz iop(5/13=1,5/36=2,99/5=2) pseudo=read geom=check gue
 ss=(read,tcheck) scf=(maxcycle=1)
 ----------------------------------------------------------------------
 -----
 title
 -----
 Structure from the checkpoint file:  "Grambow2020_wb97xd3_006939_forward_mol2.chk"
 Charge =  0 Multiplicity = 1

                         Standard orientation:
 ---------------------------------------------------------------------
 Center     Atomic      Atomic             Coordinates (Angstroms)
 Number     Number       Type             X           Y           Z
 ---------------------------------------------------------------------
      1          8           0        2.407462    0.163490   -0.727209
      2          6           0        1.849090   -0.715172   -0.111194
      3          7           0        0.780683   -0.529581    0.698377
      4          6           0        0.128381    0.755204    0.809947
      5          6           0       -0.891500    1.005795   -0.307102
      6          6           0       -1.976735    0.028930   -0.289732
      7          6           0       -2.848705   -0.791044   -0.242679
      8          1           0        2.181498   -1.767606   -0.143459
      9          1           0        0.308164   -1.343327    1.051109
     10          1           0        0.899678    1.523470    0.766041
     11          1           0       -0.360655    0.812067    1.783190
     12          1           0       -1.305168    2.011585   -0.199636
     13          1           0       -0.377589    0.970041   -1.270413
     14          1           0       -3.633595   -1.509369   -0.213247
 ---------------------------------------------------------------------

 SCF Done:  E(RHF) =  -323.048513402     A.U. after    2 cycles

 The electronic state is 1-A.
 Alpha  occ. eigenvalues --  -20.51667 -15.53387 -11.35988 -11.28649 -11.26765
 Alpha  occ. eigenvalues --  -11.25113 -11.24023  -1.46601  -1.25508  -1.08921
 Alpha  occ. eigenvalues --   -1.01376  -0.92482  -0.83545  -0.77064  -0.73445
 Alpha  occ. eigenvalues --   -0.68629  -0.65998  -0.64010  -0.62138  -0.58164
 Alpha  occ. eigenvalues --   -0.55031  -0.54500  -0.43444  -0.43043  -0.40648
 Alpha  occ. eigenvalues --   -0.40116
 Alpha virt. eigenvalues --    0.02901   0.03758   0.04139   0.04819   0.06179
 Alpha virt. eigenvalues --    0.06279   0.06662   0.09252   0.10044   0.10642
 Alpha virt. eigenvalues --    0.12042   0.12513   0.13094   0.13839   0.14129

 Mulliken charges:
               1
     1  O   -1.081398
     2  C    0.539673
     3  N    0.641066
     4  C   -0.646011
     5  C   -0.601788
     6  C    0.331940
     7  C    0.344772
     8  H    0.069955
     9  H    0.220319
    10  H    0.110154
    11  H    0.075468
    12  H    0.223968
    13  H    0.201753
    14  H   -0.429872
 Sum of Mulliken charges =  -0.00000

 Dipole moment (field-independent basis, Debye):
    X=             -2.1200    Y=             -1.3972    Z=              1.9416  Tot=              3.1963

 Test job not archived.
 1\1\GINC-SE112\SP\RHF\Aug-CC-pVDZ\C5H7N1O1\OHZDE\09-Apr-2025\0\\#t hf
 aug-cc-pvdz iop(5/13=1,5/36=2,99/5=2) pseudo=read geom=check guess=(re
 ad,tcheck) scf=(maxcycle=1)\\title\\0,1\O,0,-2.52792098,-0.39692801,-0
 .73850517\C,0,-2.11365605,0.51753886,-0.06364604\N,0,-1.07538092,0.429
 37081,0.79980895\C,0,-0.27929325,-0.77196557,0.90776361\C,0,0.82156795
 ,-0.85609016,-0.15608787\C,0,1.77813371,0.2416177,-0.04508822\C,0,2.54
 070875,1.15713551,0.07824162\H,0,-2.56877525,1.52337299,-0.08144376\H,
 0,-0.7243078,1.27936553,1.20494056\H,0,-0.94850449,-1.62431789,0.79502

 Normal termination of Gaussian 16 at Wed Apr  9 18:01:42 2025.
