 Gaussian 16, Revision C.01,

 ----------------------------------------------------------------------
 #t hf aug-cc-pvdz symm=none int=(grid=ultrafine) guess=(read,tcheck) s
 table=(opt,rrhf)
 ----------------------------------------------------------------------
 -----
 title
 -----
 Symbolic Z-matrix:
 Charge =  0 Multiplicity = 1

 SCF Done:  E(RHF) =  -343.542945565     A.U. after   16 cycles
 Normal termination of Gaussian 16 at Wed Apr  9 18:14:46 2025.
 Gaussian 16:  ES64L-G16RevC.01  3-Jul-2019

 ----------------------------------------------------------------------
 #t hf aug-cc-pvdz iop(5/13=1,5/36=2,99/5=2) pseudo=read geom=check gue
 ss=(read,tcheck) scf=(maxcycle=1)
 ----------------------------------------------------------------------
 -----
 title
 -----
 Structure from the checkpoint file:  "Grambow2020_wb97xd3_007227_reverse_mol1.chk"
 Charge =  0 Multiplicity = 1

                         Standard orientation:
 ---------------------------------------------------------------------
 Center     Atomic      Atomic             Coordinates (Angstroms)
 Number     Number       Type             X           Y           Z
 ---------------------------------------------------------------------
      1          8           0       -2.548967   -0.338683   -0.177163
      2          6           0       -1.119376    1.076686    0.201263
      3          6           0       -0.144403    0.189631    0.681826
      4          6           0        0.027008   -1.111549   -0.241442
      5          6           0        1.551226   -1.188098    0.113349
      6          6           0        1.312212    0.269205    0.126812
      7          8           0        1.805264    1.206994   -0.447213
      8          1           0       -2.872159   -0.322896   -1.082000
      9          1           0       -1.799102    1.606405    0.854383
     10          1           0       -1.016788    1.455898   -0.809563
     11          1           0       -0.224828   -0.077826    1.733958
     12          1           0       -1.820883   -1.037825   -0.151529
     13          1           0       -0.053433   -0.785289   -1.289090
     14          1           0        2.259923   -1.538384   -0.632728
     15          1           0        1.716896   -1.661822    1.080731
 ---------------------------------------------------------------------

 SCF Done:  E(RHF) =  -343.895812677     A.U. after    2 cycles

 The electronic state is 1-A.
 Alpha  occ. eigenvalues --  -20.60071 -20.51406 -11.37760 -11.34701 -11.25362
 Alpha  occ. eigenvalues --  -11.23431 -11.21258  -1.48003  -1.45759  -1.16341
 Alpha  occ. eigenvalues --   -1.04855  -0.88037  -0.80446  -0.77061  -0.72894
 Alpha  occ. eigenvalues --   -0.70290  -0.66886  -0.62448  -0.61735  -0.59797
 Alpha  occ. eigenvalues --   -0.57211  -0.54385  -0.52045  -0.47441  -0.47053
 Alpha  occ. eigenvalues --   -0.38702  -0.28241
 Alpha virt. eigenvalues --    0.01887   0.02417   0.03693   0.04808   0.05597
 Alpha virt. eigenvalues --    0.06083   0.06471   0.07660   0.08488   0.09489
 Alpha virt. eigenvalues --    0.11660   0.12203   0.13074   0.13627   0.14830

 Mulliken charges:
               1
     1  O   -1.105102
     2  C    0.285203
     3  C   -0.014026
     4  C   -0.454644
     5  C    0.050565
     6  C    1.490826
     7  O   -1.471796
     8  H    0.355540
     9  H   -0.003205
    10  H    0.016879
    11  H   -0.118928
    12  H    0.951354
    13  H   -0.076425
    14  H    0.038128
    15  H    0.055632
 Sum of Mulliken charges =  -0.00000

 Dipole moment (field-independent basis, Debye):
    X=             -3.9628    Y=              1.3258    Z=              0.1551  Tot=              4.1816

 Test job not archived.
 1\1\GINC-SE105\SP\RHF\Aug-CC-pVDZ\C5H8O2\OHZDE\09-Apr-2025\0\\#t hf au
 g-cc-pvdz iop(5/13=1,5/36=2,99/5=2) pseudo=read geom=check guess=(read
 ,tcheck) scf=(maxcycle=1)\\title\\0,1\O,0,2.11910084,1.03292216,0.3077
 2916\C,0,1.31597304,-0.8402545,0.11694171\C,0,0.01041328,-0.48965418,0
 .4924082\C,0,-0.51047015,0.84597094,-0.22846758\C,0,-1.97847155,0.2982
 9312,-0.22865871\C,0,-1.19451303,-0.94282569,-0.39013788\O,0,-1.186903
 13,-1.83219628,-1.20316545\H,0,2.55854386,1.34314157,-0.48856611\H,0,2
 .03865527,-1.23492621,0.81776925\H,0,1.52735374,-0.98415791,-0.9369582

 Normal termination of Gaussian 16 at Wed Apr  9 18:14:51 2025.
