 Gaussian 16, Revision C.01,

 ----------------------------------------------------------------------
 #t hf aug-cc-pvdz symm=none int=(grid=ultrafine) guess=(read,tcheck) s
 table=(opt,rrhf)
 ----------------------------------------------------------------------
 -----
 title
 -----
 Symbolic Z-matrix:
 Charge =  0 Multiplicity = 1

 SCF Done:  E(RHF) =  -271.119631837     A.U. after   14 cycles

 1\1\GINC-SE037\Stability\RHF\Aug-CC-pVDZ\C5H12O1\OHZDE\09-Apr-2025\0\\
 #t hf aug-cc-pvdz symm=none int=(grid=ultrafine) guess=(read,tcheck) s
 table=(opt,rrhf)\\title\\0,1\C,0,-0.86534523,1.23502351,-0.27997763\C,
 0,-0.41645677,-0.23209802,-0.21911575\C,0,-1.33263216,-1.13008396,-1.0
 6348617\C,0,-0.33802305,-0.72417334,1.23364391\C,0,2.71757348,0.263899
 04,-0.26188274\O,0,2.62729108,1.26699602,0.61124125\H,0,-0.881106,1.60
 330293,-1.31591301\H,0,-0.19244075,1.87928169,0.30531054\H,0,-1.878660
 13,1.34857394,0.13549264\H,0,-1.35923209,-0.79878248,-2.11154939\H,0,-

 Normal termination of Gaussian 16 at Wed Apr  9 15:56:06 2025.
 Gaussian 16:  ES64L-G16RevC.01  3-Jul-2019

 ----------------------------------------------------------------------
 #t hf aug-cc-pvdz iop(5/13=1,5/36=2,99/5=2) pseudo=read geom=check gue
 ss=(read,tcheck) scf=(maxcycle=1)
 ----------------------------------------------------------------------
 -----
 title
 -----
 Structure from the checkpoint file:  "Grambow2020_b97d3_006881_reverse_mol2.chk"
 Charge =  0 Multiplicity = 1

                         Standard orientation:
 ---------------------------------------------------------------------
 Center     Atomic      Atomic             Coordinates (Angstroms)
 Number     Number       Type             X           Y           Z
 ---------------------------------------------------------------------
      1          6           0       -0.760330    1.458253    0.284707
      2          6           0       -0.861862   -0.023513   -0.104792
      3          6           0       -2.173763   -0.315097   -0.848171
      4          6           0       -0.705276   -0.928466    1.126199
      5          6           0        2.180558   -0.484796   -0.879960
      6          8           0        2.612533    0.190316    0.185085
      7          1           0       -0.828956    2.107492   -0.600064
      8          1           0        0.191512    1.668995    0.794624
      9          1           0       -1.574207    1.735573    0.972468
     10          1           0       -2.267705    0.307421   -1.749587
     11          1           0       -2.230010   -1.369356   -1.155315
     12          1           0       -3.039066   -0.105753   -0.199713
     13          1           0       -1.513045   -0.738209    1.850151
     14          1           0       -0.747336   -1.991093    0.846416
     15          1           0        0.253246   -0.744913    1.632156
     16          1           0        2.077604   -1.520945   -0.448595
     17          1           0       -0.027741   -0.237006   -0.804451
     18          1           0        2.729479    1.126978   -0.086664
 ---------------------------------------------------------------------

 SCF Done:  E(RHF) =  -271.410502997     A.U. after    2 cycles

 The electronic state is 1-A.
 Alpha  occ. eigenvalues --  -20.62612 -11.32313 -11.23296 -11.22297 -11.22102
 Alpha  occ. eigenvalues --  -11.22081  -1.52943  -1.08026  -0.92656  -0.92534
 Alpha  occ. eigenvalues --   -0.89343  -0.76880  -0.68165  -0.64374  -0.62541
 Alpha  occ. eigenvalues --   -0.59913  -0.59473  -0.57323  -0.53875  -0.53743
 Alpha  occ. eigenvalues --   -0.51599  -0.47135  -0.47098  -0.46490  -0.37936
 Alpha virt. eigenvalues --    0.03364   0.04014   0.04192   0.04257   0.05970
 Alpha virt. eigenvalues --    0.06352   0.06820   0.06950   0.07501   0.09060
 Alpha virt. eigenvalues --    0.09686   0.09798   0.10985   0.12927   0.13324

 Mulliken charges:
               1
     1  C   -0.059310
     2  C   -1.645689
     3  C   -0.080858
     4  C   -0.033673
     5  C    0.257799
     6  O   -0.873875
     7  H    0.148831
     8  H    0.134296
     9  H    0.200931
    10  H    0.149757
    11  H    0.152340
    12  H    0.220395
    13  H    0.210426
    14  H    0.151526
    15  H    0.140322
    16  H    0.134450
    17  H    0.340754
    18  H    0.451577
 Sum of Mulliken charges =  -0.00000

 Dipole moment (field-independent basis, Debye):
    X=              0.3818    Y=              0.7483    Z=              0.8373  Tot=              1.1861

 Test job not archived.
 1\1\GINC-SE037\SP\RHF\Aug-CC-pVDZ\C5H12O1\OHZDE\09-Apr-2025\0\\#t hf a
 ug-cc-pvdz iop(5/13=1,5/36=2,99/5=2) pseudo=read geom=check guess=(rea
 d,tcheck) scf=(maxcycle=1)\\title\\0,1\C,0,-0.86534523,1.23502351,-0.2
 7997763\C,0,-0.41645677,-0.23209802,-0.21911575\C,0,-1.33263216,-1.130
 08396,-1.06348617\C,0,-0.33802305,-0.72417334,1.23364391\C,0,2.7175734
 8,0.26389904,-0.26188274\O,0,2.62729108,1.26699602,0.61124125\H,0,-0.8
 81106,1.60330293,-1.31591301\H,0,-0.19244075,1.87928169,0.30531054\H,0
 ,-1.87866013,1.34857394,0.13549264\H,0,-1.35923209,-0.79878248,-2.1115

 Normal termination of Gaussian 16 at Wed Apr  9 15:56:12 2025.
