 Gaussian 16, Revision C.01,

 ----------------------------------------------------------------------
 #t hf aug-cc-pvdz symm=none int=(grid=ultrafine) guess=(read,tcheck) s
 table=(opt,rrhf)
 ----------------------------------------------------------------------
 -----
 title
 -----
 Symbolic Z-matrix:
 Charge =  0 Multiplicity = 1

 SCF Done:  E(RHF) =  -287.900912853     A.U. after   16 cycles

 1\1\GINC-SE028\Stability\RHF\Aug-CC-pVDZ\C6H11N1\OHZDE\09-Apr-2025\0\\
 #t hf aug-cc-pvdz symm=none int=(grid=ultrafine) guess=(read,tcheck) s
 table=(opt,rrhf)\\title\\0,1\C,0,2.05015287,0.02508647,-0.23395764\C,0
 ,0.86175237,-0.77485718,-0.12165618\C,0,-0.47973798,-0.23007134,-0.148
 34006\C,0,-1.62121726,-1.01725548,0.39795015\C,0,-0.82072046,0.9408945
 9,-1.01152892\C,0,0.42621281,1.29438102,1.65158777\N,0,-0.25336396,1.8
 3250984,2.41017806\H,0,2.98925683,-0.49116169,-0.07439803\H,0,1.348057
 19,0.86424204,0.97621989\H,0,2.09483633,0.78636694,-1.00632255\H,0,0.9

 Normal termination of Gaussian 16 at Wed Apr  9 18:24:42 2025.
 Gaussian 16:  ES64L-G16RevC.01  3-Jul-2019

 ----------------------------------------------------------------------
 #t hf aug-cc-pvdz iop(5/13=1,5/36=2,99/5=2) pseudo=read geom=check gue
 ss=(read,tcheck) scf=(maxcycle=1)
 ----------------------------------------------------------------------
 -----
 title
 -----
 Structure from the checkpoint file:  "Grambow2020_wb97xd3_007519_forward_mol1.chk"
 Charge =  0 Multiplicity = 1

                         Standard orientation:
 ---------------------------------------------------------------------
 Center     Atomic      Atomic             Coordinates (Angstroms)
 Number     Number       Type             X           Y           Z
 ---------------------------------------------------------------------
      1          6           0       -0.297107    2.113373   -0.029496
      2          6           0       -0.886688    0.920251   -0.571410
      3          6           0       -0.714763   -0.396007    0.007387
      4          6           0       -0.967506   -1.615464   -0.811217
      5          6           0       -0.629137   -0.583760    1.487233
      6          6           0        1.737568    0.201044   -0.111133
      7          7           0        2.570957   -0.594095   -0.120324
      8          1           0       -0.401375    3.010779   -0.627558
      9          1           0        1.067055    1.221466   -0.101701
     10          1           0       -0.365416    2.289262    1.039377
     11          1           0       -0.950227    0.888692   -1.658159
     12          1           0       -1.957726    0.697229   -0.195929
     13          1           0       -1.250400   -1.372920   -1.834651
     14          1           0       -0.035109   -2.186461   -0.845096
     15          1           0       -1.726901   -2.261569   -0.363610
     16          1           0       -1.617582   -0.810010    1.902237
     17          1           0        0.010335   -1.440612    1.700166
     18          1           0       -0.223549    0.286188    1.999010
 ---------------------------------------------------------------------

 SCF Done:  E(RHF) =  -288.206271000     A.U. after    2 cycles

 The electronic state is 1-A.
 Alpha  occ. eigenvalues --  -15.47768 -11.35848 -11.28486 -11.27581 -11.27162
 Alpha  occ. eigenvalues --  -11.22641 -11.19076  -1.19858  -1.17356  -1.03880
 Alpha  occ. eigenvalues --   -0.99817  -0.88685  -0.76541  -0.72456  -0.68826
 Alpha  occ. eigenvalues --   -0.64892  -0.64253  -0.59259  -0.59081  -0.58158
 Alpha  occ. eigenvalues --   -0.57081  -0.55043  -0.53212  -0.51337  -0.47652
 Alpha  occ. eigenvalues --   -0.47558  -0.28707
 Alpha virt. eigenvalues --    0.01616   0.03010   0.03091   0.04232   0.05360
 Alpha virt. eigenvalues --    0.05503   0.05683   0.06870   0.07484   0.07983
 Alpha virt. eigenvalues --    0.08907   0.09573   0.11886   0.12741   0.13057

 Mulliken charges:
               1
     1  C   -0.343279
     2  C    0.099422
     3  C   -1.458401
     4  C   -0.349659
     5  C    0.020727
     6  C   -1.392630
     7  N    0.907087
     8  H   -0.088846
     9  H    0.679967
    10  H   -0.038157
    11  H   -0.049230
    12  H    0.606694
    13  H    0.119030
    14  H    0.318979
    15  H    0.253136
    16  H    0.186264
    17  H    0.339129
    18  H    0.189769
 Sum of Mulliken charges =  -0.00000

 Dipole moment (field-independent basis, Debye):
    X=             -6.8252    Y=             -1.3874    Z=              0.2768  Tot=              6.9703

 Test job not archived.
 1\1\GINC-SE028\SP\RHF\Aug-CC-pVDZ\C6H11N1\OHZDE\09-Apr-2025\0\\#t hf a
 ug-cc-pvdz iop(5/13=1,5/36=2,99/5=2) pseudo=read geom=check guess=(rea
 d,tcheck) scf=(maxcycle=1)\\title\\0,1\C,0,2.05015287,0.02508647,-0.23
 395764\C,0,0.86175237,-0.77485718,-0.12165618\C,0,-0.47973798,-0.23007
 134,-0.14834006\C,0,-1.62121726,-1.01725548,0.39795015\C,0,-0.82072046
 ,0.94089459,-1.01152892\C,0,0.42621281,1.29438102,1.65158777\N,0,-0.25
 336396,1.83250984,2.41017806\H,0,2.98925683,-0.49116169,-0.07439803\H,
 0,1.34805719,0.86424204,0.97621989\H,0,2.09483633,0.78636694,-1.006322

 Normal termination of Gaussian 16 at Wed Apr  9 18:24:49 2025.
