 Gaussian 16, Revision C.01,

 ----------------------------------------------------------------------
 #t hf aug-cc-pvdz symm=none int=(grid=ultrafine) guess=(read,tcheck) s
 table=(opt,rrhf)
 ----------------------------------------------------------------------
 -----
 title
 -----
 Symbolic Z-matrix:
 Charge =  0 Multiplicity = 1

 SCF Done:  E(RHF) =  -360.862826990     A.U. after   15 cycles
 Normal termination of Gaussian 16 at Wed Apr  9 17:28:14 2025.
 Gaussian 16:  ES64L-G16RevC.01  3-Jul-2019

 ----------------------------------------------------------------------
 #t hf aug-cc-pvdz iop(5/13=1,5/36=2,99/5=2) pseudo=read geom=check gue
 ss=(read,tcheck) scf=(maxcycle=1)
 ----------------------------------------------------------------------
 -----
 title
 -----
 Structure from the checkpoint file:  "Grambow2020_wb97xd3_006605_reverse_mol2.chk"
 Charge =  0 Multiplicity = 1

                         Standard orientation:
 ---------------------------------------------------------------------
 Center     Atomic      Atomic             Coordinates (Angstroms)
 Number     Number       Type             X           Y           Z
 ---------------------------------------------------------------------
      1          6           0        3.375318   -0.874894    0.066681
      2          6           0        0.180716    1.723394   -0.072875
      3          8           0       -0.437397    2.864748    0.055882
      4          6           0       -0.849084    0.645588   -0.005927
      5          7           0       -0.223240   -0.643576   -0.151943
      6          6           0       -0.919034   -1.793741   -0.060752
      7          8           0       -2.111690   -1.857857    0.138442
      8          1           0        2.928034   -1.472039    0.861113
      9          1           0        4.445719   -0.787363    0.245429
     10          1           0        3.215551   -1.362486   -0.895412
     11          1           0        2.928189    0.119696    0.056013
     12          1           0        0.213667    3.573272    0.015474
     13          1           0       -1.387620    0.714982    0.948500
     14          1           0       -1.601985    0.813084   -0.787978
     15          1           0        0.770208   -0.662782   -0.310700
     16          1           0       -0.283881   -2.688540   -0.186196
 ---------------------------------------------------------------------

 SCF Done:  E(RHF) =  -361.231630357     A.U. after    2 cycles

 The electronic state is 1-A.
 Alpha  occ. eigenvalues --  -20.63489 -20.51218 -15.52992 -11.35524 -11.32705
 Alpha  occ. eigenvalues --  -11.28134 -11.22874  -1.55897  -1.46073  -1.25298
 Alpha  occ. eigenvalues --   -1.03655  -0.95723  -0.88196  -0.83523  -0.75651
 Alpha  occ. eigenvalues --   -0.70768  -0.66850  -0.66006  -0.62784  -0.60163
 Alpha  occ. eigenvalues --   -0.59800  -0.56169  -0.56039  -0.55998  -0.53703
 Alpha  occ. eigenvalues --   -0.42985  -0.42104  -0.38370
 Alpha virt. eigenvalues --    0.02809   0.03523   0.04392   0.05066   0.05705
 Alpha virt. eigenvalues --    0.06100   0.06803   0.07519   0.07874   0.09596
 Alpha virt. eigenvalues --    0.11477   0.11997   0.12450   0.14139   0.14340

 Mulliken charges:
               1
     1  C   -0.294483
     2  C    0.923675
     3  O   -1.230329
     4  C   -0.727598
     5  N    0.866359
     6  C    0.452261
     7  O   -1.132568
     8  H    0.090067
     9  H   -0.028256
    10  H    0.112733
    11  H    0.127744
    12  H    0.525378
    13  H    0.096558
    14  H    0.090358
    15  H    0.054448
    16  H    0.073655
 Sum of Mulliken charges =  -0.00000

 Dipole moment (field-independent basis, Debye):
    X=              3.0420    Y=              2.6434    Z=             -0.3563  Tot=              4.0458

 Test job not archived.
 1\1\GINC-SE103\SP\RHF\Aug-CC-pVDZ\C4H9N1O2\OHZDE\09-Apr-2025\0\\#t hf
 aug-cc-pvdz iop(5/13=1,5/36=2,99/5=2) pseudo=read geom=check guess=(re
 ad,tcheck) scf=(maxcycle=1)\\title\\0,1\C,0,-1.46993482,-2.20451014,-1
 .07678771\C,0,-0.84240531,1.67040236,0.17513902\O,0,-1.07225256,2.9517
 9713,0.25595033\C,0,0.59099072,1.44886525,0.52575757\N,0,0.90235092,0.
 04389701,0.46199556\C,0,2.14856743,-0.4251937,0.6674758\O,0,3.10606756
 ,0.26826135,0.92926007\H,0,-0.53205594,-2.23763365,-1.63091128\H,0,-2.
 2383911,-2.72698059,-1.64412374\H,0,-1.34557303,-2.69695936,-0.1119450

 Normal termination of Gaussian 16 at Wed Apr  9 17:28:20 2025.
