 Gaussian 16, Revision C.01,

 ----------------------------------------------------------------------
 #t hf aug-cc-pvdz symm=none int=(grid=ultrafine) guess=(read,tcheck) s
 table=(opt,rrhf)
 ----------------------------------------------------------------------
 -----
 title
 -----
 Symbolic Z-matrix:
 Charge =  0 Multiplicity = 1

 SCF Done:  E(RHF) =  -352.281098902     A.U. after   18 cycles
 Normal termination of Gaussian 16 at Wed Apr  9 18:54:24 2025.
 Gaussian 16:  ES64L-G16RevC.01  3-Jul-2019

 ----------------------------------------------------------------------
 #t hf aug-cc-pvdz iop(5/13=1,5/36=2,99/5=2) pseudo=read geom=check gue
 ss=(read,tcheck) scf=(maxcycle=1)
 ----------------------------------------------------------------------
 -----
 title
 -----
 Structure from the checkpoint file:  "Grambow2020_wb97xd3_008226_forward_mol1.chk"
 Charge =  0 Multiplicity = 1

                         Standard orientation:
 ---------------------------------------------------------------------
 Center     Atomic      Atomic             Coordinates (Angstroms)
 Number     Number       Type             X           Y           Z
 ---------------------------------------------------------------------
      1          7           0        1.662122   -0.344718   -0.510295
      2          6           0        2.051433   -0.537930    0.615706
      3          6           0        0.254986   -0.126517   -0.113295
      4          6           0       -0.766546   -1.157171   -0.055112
      5          8           0       -1.939415   -0.926851    0.101719
      6          7           0       -0.561631    2.154297    0.057955
      7          7           0       -0.152226    1.122363   -0.023977
      8          1           0       -0.361774   -2.179073   -0.163315
 ---------------------------------------------------------------------

 SCF Done:  E(RHF) =  -352.616977674     A.U. after    2 cycles

 The electronic state is 1-A.
 Alpha  occ. eigenvalues --  -20.55676 -15.73353 -15.67966 -15.56784 -11.37350
 Alpha  occ. eigenvalues --  -11.36500 -11.35698  -1.56073  -1.49539  -1.35659
 Alpha  occ. eigenvalues --   -1.19943  -0.96053  -0.84162  -0.79013  -0.78665
 Alpha  occ. eigenvalues --   -0.76110  -0.70648  -0.67967  -0.64795  -0.57159
 Alpha  occ. eigenvalues --   -0.56536  -0.53656  -0.45126  -0.39328
 Alpha virt. eigenvalues --    0.01399   0.02410   0.04147   0.05708   0.06829
 Alpha virt. eigenvalues --    0.08100   0.08464   0.09292   0.10628   0.11188
 Alpha virt. eigenvalues --    0.12192   0.12921   0.13754   0.15234   0.15648

 Mulliken charges:
               1
     1  N    0.613298
     2  C   -0.006944
     3  C   -1.424092
     4  C    1.388443
     5  O   -1.246932
     6  N    1.148555
     7  N   -0.654883
     8  H    0.182554
 Sum of Mulliken charges =  -0.00000

 Dipole moment (field-independent basis, Debye):
    X=              1.4653    Y=             -0.0259    Z=             -0.1196  Tot=              1.4704

 Test job not archived.
 1\1\GINC-SE116\SP\RHF\Aug-CC-pVDZ\C3H1N3O1\OHZDE\09-Apr-2025\0\\#t hf
 aug-cc-pvdz iop(5/13=1,5/36=2,99/5=2) pseudo=read geom=check guess=(re
 ad,tcheck) scf=(maxcycle=1)\\title\\0,1\N,0,1.61086821,-0.28950508,0.6
 4972118\C,0,2.00476997,-0.45558818,-0.47900736\C,0,0.19008845,-0.16230
 784,0.26183012\C,0,-0.48534249,1.08745654,-0.03990123\O,0,-1.67842288,
 1.18415775,-0.18298145\N,0,-1.26471641,-2.08720726,0.53861355\N,0,-0.5
 6820897,-1.22709995,0.41900479\H,0,0.20460613,1.94497701,-0.1318956\\V
 ersion=ES64L-G16RevC.01\State=1-A\HF=-352.6169777\RMSD=5.668e-02\Dipol

 Normal termination of Gaussian 16 at Wed Apr  9 18:54:26 2025.
