 Gaussian 16, Revision C.01,

 ----------------------------------------------------------------------
 #t hf aug-cc-pvdz symm=none int=(grid=ultrafine) guess=(read,tcheck) s
 table=(opt,rrhf)
 ----------------------------------------------------------------------
 -----
 title
 -----
 Symbolic Z-matrix:
 Charge =  0 Multiplicity = 1

 SCF Done:  E(RHF) =  -358.388090446     A.U. after   17 cycles
 Normal termination of Gaussian 16 at Wed Apr  9 17:43:21 2025.
 Gaussian 16:  ES64L-G16RevC.01  3-Jul-2019

 ----------------------------------------------------------------------
 #t hf aug-cc-pvdz iop(5/13=1,5/36=2,99/5=2) pseudo=read geom=check gue
 ss=(read,tcheck) scf=(maxcycle=1)
 ----------------------------------------------------------------------
 -----
 title
 -----
 Structure from the checkpoint file:  "Grambow2020_wb97xd3_006791_forward_mol1.chk"
 Charge =  0 Multiplicity = 1

                         Standard orientation:
 ---------------------------------------------------------------------
 Center     Atomic      Atomic             Coordinates (Angstroms)
 Number     Number       Type             X           Y           Z
 ---------------------------------------------------------------------
      1          8           0        2.354220   -1.142055   -0.173206
      2          6           0        1.374765   -0.575938   -0.086337
      3          6           0        0.801179    0.969635    0.366950
      4          6           0       -0.116551    1.438388   -0.678649
      5          7           0       -0.488706    1.062951    0.667627
      6          6           0       -1.438462   -0.856882    0.413366
      7          8           0       -2.287647   -0.832577   -0.429625
      8          1           0       -0.331106   -1.025649    0.102260
      9          1           0        1.661335    1.351253    0.906381
     10          1           0       -0.358423    0.726797   -1.476893
     11          1           0       -0.166014    2.485580   -0.956789
     12          1           0       -1.643015   -1.032790    1.482319
 ---------------------------------------------------------------------

 SCF Done:  E(RHF) =  -358.742907861     A.U. after    2 cycles

 The electronic state is 1-A.
 Alpha  occ. eigenvalues --  -20.69882 -20.52577 -15.50666 -11.44817 -11.34703
 Alpha  occ. eigenvalues --  -11.33830 -11.28761  -1.64729  -1.46631  -1.31860
 Alpha  occ. eigenvalues --   -0.93669  -0.88980  -0.86806  -0.82496  -0.74775
 Alpha  occ. eigenvalues --   -0.69663  -0.69148  -0.67036  -0.64992  -0.61821
 Alpha  occ. eigenvalues --   -0.59018  -0.57143  -0.51376  -0.44537  -0.39451
 Alpha  occ. eigenvalues --   -0.39008
 Alpha virt. eigenvalues --    0.00814   0.03517   0.04377   0.04671   0.05148
 Alpha virt. eigenvalues --    0.06608   0.07749   0.08492   0.09582   0.10883
 Alpha virt. eigenvalues --    0.10931   0.12739   0.13717   0.14192   0.14448

 Mulliken charges:
               1
     1  O   -0.925601
     2  C    0.897327
     3  C   -0.570766
     4  C    0.286552
     5  N    0.572462
     6  C    0.846388
     7  O   -1.035432
     8  H    0.137496
     9  H   -0.172077
    10  H   -0.062434
    11  H   -0.116855
    12  H    0.142941
 Sum of Mulliken charges =  -0.00000

 Dipole moment (field-independent basis, Debye):
    X=              5.2806    Y=             -0.1954    Z=              0.2624  Tot=              5.2907

 Test job not archived.
 1\1\GINC-SE232\SP\RHF\Aug-CC-pVDZ\C4H5N1O2\OHZDE\09-Apr-2025\0\\#t hf
 aug-cc-pvdz iop(5/13=1,5/36=2,99/5=2) pseudo=read geom=check guess=(re
 ad,tcheck) scf=(maxcycle=1)\\title\\0,1\O,0,2.62368186,-0.35268371,-0.
 77815264\C,0,1.55092721,-0.20426474,-0.43971806\C,0,0.67129783,0.62187
 724,0.7714831\C,0,-0.43533293,1.33557249,0.12245148\N,0,-0.5648356,0.1
 9753535,1.00563566\C,0,-1.04427702,-1.42723388,-0.32954431\O,0,-1.9565
 9799,-1.16011684,-1.05663434\H,0,0.03285601,-1.10387035,-0.62403755\H,
 0,1.46490822,0.84712956,1.4757054\H,0,-0.57943622,1.1511803,-0.9486648

 Normal termination of Gaussian 16 at Wed Apr  9 17:43:26 2025.
