 Gaussian 16, Revision C.01,

 ----------------------------------------------------------------------
 #t hf aug-cc-pvdz symm=none int=(grid=ultrafine) guess=(read,tcheck) s
 table=(opt,rrhf)
 ----------------------------------------------------------------------
 -----
 title
 -----
 Symbolic Z-matrix:
 Charge =  0 Multiplicity = 1

 SCF Done:  E(RHF) =  -302.876983025     A.U. after   15 cycles
 Normal termination of Gaussian 16 at Wed Apr  9 19:13:02 2025.
 Gaussian 16:  ES64L-G16RevC.01  3-Jul-2019

 ----------------------------------------------------------------------
 #t hf aug-cc-pvdz iop(5/13=1,5/36=2,99/5=2) pseudo=read geom=check gue
 ss=(read,tcheck) scf=(maxcycle=1)
 ----------------------------------------------------------------------
 -----
 title
 -----
 Structure from the checkpoint file:  "Grambow2020_wb97xd3_008916_reverse_mol2.chk"
 Charge =  0 Multiplicity = 1

                         Standard orientation:
 ---------------------------------------------------------------------
 Center     Atomic      Atomic             Coordinates (Angstroms)
 Number     Number       Type             X           Y           Z
 ---------------------------------------------------------------------
      1          6           0        2.768193   -0.879319   -0.002699
      2          7           0        1.405248   -0.419450    0.096969
      3          6           0        1.183226    0.815213   -0.054728
      4          6           0       -0.142408    1.448398    0.015006
      5          6           0       -1.348286    0.872383    0.026617
      6          6           0       -1.647581   -0.560864   -0.043107
      7          7           0       -2.861562   -0.931665    0.007957
      8          1           0        3.045846   -1.378436    0.928140
      9          1           0        2.835932   -1.626388   -0.796472
     10          1           0        3.487088   -0.074538   -0.206451
     11          1           0        2.013761    1.511239   -0.243970
     12          1           0       -0.109380    2.533092    0.045904
     13          1           0       -2.229591    1.503883    0.081217
     14          1           0       -0.800364   -1.240346   -0.133750
     15          1           0       -2.927956   -1.945561   -0.055647
 ---------------------------------------------------------------------

 SCF Done:  E(RHF) =  -303.191189390     A.U. after    2 cycles

 The electronic state is 1-A.
 Alpha  occ. eigenvalues --  -15.50789 -15.49548 -11.29520 -11.28269 -11.26409
 Alpha  occ. eigenvalues --  -11.25778 -11.25584  -1.24871  -1.21584  -1.07872
 Alpha  occ. eigenvalues --   -0.97954  -0.90154  -0.81763  -0.75306  -0.71687
 Alpha  occ. eigenvalues --   -0.68537  -0.65930  -0.61462  -0.61026  -0.57605
 Alpha  occ. eigenvalues --   -0.53586  -0.51190  -0.47535  -0.46840  -0.43953
 Alpha  occ. eigenvalues --   -0.36746
 Alpha virt. eigenvalues --    0.03280   0.03777   0.03889   0.04242   0.05170
 Alpha virt. eigenvalues --    0.05549   0.05881   0.07565   0.09428   0.10645
 Alpha virt. eigenvalues --    0.11071   0.12454   0.12608   0.13365   0.14359

 Mulliken charges:
               1
     1  C   -0.379471
     2  N    0.914441
     3  C   -1.340713
     4  C    0.733820
     5  C    0.757738
     6  C   -0.895003
     7  N    0.603419
     8  H    0.117215
     9  H    0.099340
    10  H    0.107400
    11  H   -0.264146
    12  H   -0.206450
    13  H   -0.194915
    14  H   -0.176100
    15  H    0.123426
 Sum of Mulliken charges =  -0.00000

 Dipole moment (field-independent basis, Debye):
    X=              3.3901    Y=              0.9924    Z=             -0.5138  Tot=              3.5696

 Test job not archived.
 1\1\GINC-SE224\SP\RHF\Aug-CC-pVDZ\C5H8N2\OHZDE\09-Apr-2025\0\\#t hf au
 g-cc-pvdz iop(5/13=1,5/36=2,99/5=2) pseudo=read geom=check guess=(read
 ,tcheck) scf=(maxcycle=1)\\title\\0,1\C,0,-1.30426083,-2.02377307,0.97
 809341\N,0,-0.59891706,-0.84846361,0.53068907\C,0,0.66213886,-0.900736
 77,0.46983063\C,0,1.53191622,0.20319778,0.03634753\C,0,1.19741395,1.34
 944948,-0.56389148\C,0,-0.14558675,1.78637594,-0.95642224\N,0,-0.27977
 706,2.92826408,-1.49673175\H,0,-1.90084475,-1.76957715,1.85680924\H,0,
 -2.00275379,-2.33897944,0.19993658\H,0,-0.64126069,-2.86358847,1.22535

 Normal termination of Gaussian 16 at Wed Apr  9 19:13:07 2025.
