 Gaussian 16, Revision C.01,

 ----------------------------------------------------------------------
 #t hf aug-cc-pvdz symm=none int=(grid=ultrafine) guess=(read,tcheck) s
 table=(opt,rrhf)
 ----------------------------------------------------------------------
 -----
 title
 -----
 Symbolic Z-matrix:
 Charge =  0 Multiplicity = 1

 SCF Done:  E(RHF) =  -302.761756430     A.U. after   16 cycles
 Normal termination of Gaussian 16 at Wed Apr  9 19:12:03 2025.
 Gaussian 16:  ES64L-G16RevC.01  3-Jul-2019

 ----------------------------------------------------------------------
 #t hf aug-cc-pvdz iop(5/13=1,5/36=2,99/5=2) pseudo=read geom=check gue
 ss=(read,tcheck) scf=(maxcycle=1)
 ----------------------------------------------------------------------
 -----
 title
 -----
 Structure from the checkpoint file:  "Grambow2020_wb97xd3_008881_forward_mol1.chk"
 Charge =  0 Multiplicity = 1

                         Standard orientation:
 ---------------------------------------------------------------------
 Center     Atomic      Atomic             Coordinates (Angstroms)
 Number     Number       Type             X           Y           Z
 ---------------------------------------------------------------------
      1          6           0       -2.402808   -0.544672    0.181059
      2          7           0       -1.073838   -0.094871   -0.200834
      3          6           0       -0.656055    1.221213   -0.058708
      4          6           0        0.690350    1.210688    0.081299
      5          6           0        1.141655   -0.143209    0.029546
      6          7           0        2.488229   -0.504800    0.143017
      7          6           0        0.105095   -1.055274   -0.051594
      8          1           0       -3.160129    0.100938   -0.264936
      9          1           0       -2.526109   -1.567924   -0.167386
     10          1           0       -2.491605   -0.529292    1.266616
     11          1           0       -1.356854    2.040797   -0.104544
     12          1           0        1.315559    2.087766    0.179625
     13          1           0        3.113985    0.059771   -0.409255
     14          1           0        2.626772   -1.485583   -0.046927
     15          1           0       -0.691777   -0.641262   -1.138083
 ---------------------------------------------------------------------

 SCF Done:  E(RHF) =  -303.081805004     A.U. after    2 cycles

 The electronic state is 1-A.
 Alpha  occ. eigenvalues --  -15.58664 -15.48714 -11.28778 -11.27089 -11.25087
 Alpha  occ. eigenvalues --  -11.24421 -11.21564  -1.32333  -1.19418  -1.08167
 Alpha  occ. eigenvalues --   -0.99286  -0.94876  -0.81607  -0.77761  -0.73231
 Alpha  occ. eigenvalues --   -0.70796  -0.67889  -0.63556  -0.61683  -0.57840
 Alpha  occ. eigenvalues --   -0.56717  -0.55334  -0.49650  -0.39070  -0.35944
 Alpha  occ. eigenvalues --   -0.30185
 Alpha virt. eigenvalues --    0.03074   0.03728   0.04204   0.04949   0.05330
 Alpha virt. eigenvalues --    0.06090   0.06675   0.08162   0.10470   0.10903
 Alpha virt. eigenvalues --    0.11697   0.11985   0.12818   0.14137   0.14547

 Mulliken charges:
               1
     1  C   -0.318987
     2  N    0.666347
     3  C   -0.843876
     4  C    0.810710
     5  C   -0.934882
     6  N    0.697395
     7  C   -0.937922
     8  H    0.104783
     9  H    0.075008
    10  H    0.187512
    11  H   -0.292861
    12  H   -0.167239
    13  H    0.122261
    14  H    0.089981
    15  H    0.741770
 Sum of Mulliken charges =  -0.00000

 Dipole moment (field-independent basis, Debye):
    X=             -1.9379    Y=              2.6273    Z=             -1.6103  Tot=              3.6403

 Test job not archived.
 1\1\GINC-SE173\SP\RHF\Aug-CC-pVDZ\C5H8N2\OHZDE\09-Apr-2025\0\\#t hf au
 g-cc-pvdz iop(5/13=1,5/36=2,99/5=2) pseudo=read geom=check guess=(read
 ,tcheck) scf=(maxcycle=1)\\title\\0,1\C,0,2.25970106,0.38515621,0.1578
 7238\N,0,0.89551454,0.00944873,-0.17703536\C,0,0.37902455,-1.25312023,
 0.07982388\C,0,-0.96078644,-1.12572742,0.22541571\C,0,-1.30673242,0.24
 98844,0.05986876\N,0,-2.61990557,0.72374238,0.14885803\C,0,-0.20384623
 ,1.06808434,-0.10473697\H,0,2.95953529,-0.3532162,-0.23493425\H,0,2.45
 753751,1.36222968,-0.27784518\H,0,2.35992518,0.45551078,1.24025935\H,0

 Normal termination of Gaussian 16 at Wed Apr  9 19:12:08 2025.
