 Gaussian 16, Revision C.01,

 ----------------------------------------------------------------------
 #t hf aug-cc-pvdz symm=none int=(grid=ultrafine) guess=(read,tcheck) s
 table=(opt,rrhf)
 ----------------------------------------------------------------------
 -----
 title
 -----
 Symbolic Z-matrix:
 Charge =  0 Multiplicity = 1

 SCF Done:  E(RHF) =  -359.627974055     A.U. after   15 cycles
 Normal termination of Gaussian 16 at Wed Apr  9 19:21:03 2025.
 Gaussian 16:  ES64L-G16RevC.01  3-Jul-2019

 ----------------------------------------------------------------------
 #t hf aug-cc-pvdz iop(5/13=1,5/36=2,99/5=2) pseudo=read geom=check gue
 ss=(read,tcheck) scf=(maxcycle=1)
 ----------------------------------------------------------------------
 -----
 title
 -----
 Structure from the checkpoint file:  "Grambow2020_wb97xd3_009409_reverse_mol2.chk"
 Charge =  0 Multiplicity = 1

                         Standard orientation:
 ---------------------------------------------------------------------
 Center     Atomic      Atomic             Coordinates (Angstroms)
 Number     Number       Type             X           Y           Z
 ---------------------------------------------------------------------
      1          8           0       -1.294890   -1.448963   -0.511513
      2          6           0       -1.574725   -0.495571    0.484806
      3          6           0        2.487744   -0.892006    0.167770
      4          8           0        1.279473   -0.424514    0.102659
      5          6           0        1.031190    0.973411   -0.135496
      6          7           0       -0.075226    1.507834   -0.165777
      7          6           0       -1.395847    0.946010    0.025493
      8          1           0       -0.351682   -1.625160   -0.500008
      9          1           0       -2.631644   -0.613702    0.737763
     10          1           0        3.179307   -0.017615    0.017023
     11          1           0       -1.000358   -0.686045    1.398156
     12          1           0        1.977234    1.497660   -0.290254
     13          1           0       -1.895012    1.607948    0.739231
     14          1           0       -1.918103    1.078837   -0.926073
 ---------------------------------------------------------------------

 SCF Done:  E(RHF) =  -359.988573173     A.U. after    2 cycles

 The electronic state is 1-A.
 Alpha  occ. eigenvalues --  -20.65097 -20.54331 -15.53024 -11.37201 -11.33807
 Alpha  occ. eigenvalues --  -11.28971 -11.28187  -1.57981  -1.45089  -1.27311
 Alpha  occ. eigenvalues --   -1.04822  -0.94377  -0.89677  -0.84039  -0.72900
 Alpha  occ. eigenvalues --   -0.71023  -0.69594  -0.66160  -0.63769  -0.60807
 Alpha  occ. eigenvalues --   -0.58815  -0.56414  -0.52243  -0.49342  -0.46755
 Alpha  occ. eigenvalues --   -0.43416  -0.38956
 Alpha virt. eigenvalues --    0.03192   0.04140   0.04645   0.05275   0.05491
 Alpha virt. eigenvalues --    0.05919   0.06363   0.08060   0.08980   0.11292
 Alpha virt. eigenvalues --    0.12168   0.13112   0.13540   0.13693   0.15027

 Mulliken charges:
               1
     1  O   -1.149328
     2  C    0.777361
     3  C    0.128124
     4  O   -1.000653
     5  C   -0.055769
     6  N    0.950649
     7  C   -0.648321
     8  H    0.421153
     9  H    0.015033
    10  H    0.074251
    11  H    0.201335
    12  H   -0.005390
    13  H    0.145692
    14  H    0.145862
 Sum of Mulliken charges =   0.00000

 Dipole moment (field-independent basis, Debye):
    X=              0.7491    Y=              2.2902    Z=              0.8104  Tot=              2.5422

 Test job not archived.
 1\1\GINC-SE220\SP\RHF\Aug-CC-pVDZ\C4H7N1O2\OHZDE\09-Apr-2025\0\\#t hf
 aug-cc-pvdz iop(5/13=1,5/36=2,99/5=2) pseudo=read geom=check guess=(re
 ad,tcheck) scf=(maxcycle=1)\\title\\0,1\O,0,-1.29280329,-0.48081668,1.
 46627907\C,0,-1.53645636,-0.41469119,0.08201874\C,0,1.51200427,2.16250
 241,0.99102402\O,0,0.83877023,1.14879895,0.54172701\C,0,1.39759385,0.2
 5722965,-0.44080992\N,0,0.81578818,-0.69614705,-0.95389405\C,0,-0.5305
 8368,-1.1914024,-0.7582557\H,0,-0.66304183,0.20711655,1.69203989\H,0,-
 2.50980933,-0.88397514,-0.08343736\H,0,2.50459739,2.14924523,0.4617541

 Normal termination of Gaussian 16 at Wed Apr  9 19:21:08 2025.
