 Gaussian 16, Revision C.01,

 ----------------------------------------------------------------------
 #t hf aug-cc-pvdz symm=none int=(grid=ultrafine) guess=(read,tcheck) s
 table=(opt,rrhf)
 ----------------------------------------------------------------------
 -----
 title
 -----
 Symbolic Z-matrix:
 Charge =  0 Multiplicity = 1

 SCF Done:  E(RHF) =  -306.513732397     A.U. after   15 cycles
 Normal termination of Gaussian 16 at Wed Apr  9 18:54:50 2025.
 Gaussian 16:  ES64L-G16RevC.01  3-Jul-2019

 ----------------------------------------------------------------------
 #t hf aug-cc-pvdz iop(5/13=1,5/36=2,99/5=2) pseudo=read geom=check gue
 ss=(read,tcheck) scf=(maxcycle=1)
 ----------------------------------------------------------------------
 -----
 title
 -----
 Structure from the checkpoint file:  "Grambow2020_wb97xd3_008211_reverse_mol1.chk"
 Charge =  0 Multiplicity = 1

                         Standard orientation:
 ---------------------------------------------------------------------
 Center     Atomic      Atomic             Coordinates (Angstroms)
 Number     Number       Type             X           Y           Z
 ---------------------------------------------------------------------
      1          6           0       -1.087231   -0.725037    0.715906
      2          8           0       -1.771637    0.412051    0.008208
      3          6           0       -0.370485    0.702467   -0.595048
      4          6           0        0.744179    1.241531    0.237092
      5          6           0        1.681551    0.295000    0.329995
      6          6           0        1.266848   -1.035740   -0.282149
      7          6           0       -0.218587   -0.812649   -0.542340
      8          1           0       -0.652340   -0.308366    1.628873
      9          1           0       -1.807013   -1.509885    0.944584
     10          1           0       -0.552524    1.256794   -1.517121
     11          1           0        0.850646    2.266508    0.568381
     12          1           0        2.651756    0.456306    0.789814
     13          1           0        1.839233   -1.228756   -1.194644
     14          1           0        1.472675   -1.872806    0.392009
     15          1           0       -1.726981   -0.349635   -0.858296
 ---------------------------------------------------------------------

 SCF Done:  E(RHF) =  -306.834440258     A.U. after    2 cycles

 The electronic state is 1-A.
 Alpha  occ. eigenvalues --  -20.62427 -11.30765 -11.29724 -11.25318 -11.23911
 Alpha  occ. eigenvalues --  -11.22953 -11.18910  -1.52717  -1.14289  -0.99067
 Alpha  occ. eigenvalues --   -0.95485  -0.91803  -0.79544  -0.73198  -0.72545
 Alpha  occ. eigenvalues --   -0.68190  -0.63670  -0.59943  -0.58192  -0.54874
 Alpha  occ. eigenvalues --   -0.54482  -0.51211  -0.47340  -0.44568  -0.37739
 Alpha  occ. eigenvalues --   -0.30314
 Alpha virt. eigenvalues --    0.03399   0.03650   0.04107   0.04259   0.05690
 Alpha virt. eigenvalues --    0.06218   0.06565   0.07536   0.08923   0.11390
 Alpha virt. eigenvalues --    0.13009   0.13378   0.13784   0.14159   0.14662

 Mulliken charges:
               1
     1  C    0.604552
     2  O   -1.395090
     3  C    0.823783
     4  C    0.181998
     5  C    0.245729
     6  C   -0.405200
     7  C   -0.819737
     8  H    0.118826
     9  H   -0.051034
    10  H   -0.123592
    11  H   -0.106658
    12  H   -0.107065
    13  H    0.168548
    14  H    0.161718
    15  H    0.703223
 Sum of Mulliken charges =  -0.00000

 Dipole moment (field-independent basis, Debye):
    X=              0.5779    Y=              1.0315    Z=              1.2478  Tot=              1.7190

 Test job not archived.
 1\1\GINC-SE229\SP\RHF\Aug-CC-pVDZ\C6H8O1\OHZDE\09-Apr-2025\0\\#t hf au
 g-cc-pvdz iop(5/13=1,5/36=2,99/5=2) pseudo=read geom=check guess=(read
 ,tcheck) scf=(maxcycle=1)\\title\\0,1\C,0,-1.32120889,-0.35412839,-0.7
 2998975\O,0,-1.2921728,-1.48927941,0.25632074\C,0,-0.02356208,-0.79136
 736,0.81759744\C,0,1.25945325,-0.76877099,0.05675384\C,0,1.4994234,0.4
 9396939,-0.30535043\C,0,0.35891313,1.44852631,0.01965122\C,0,-0.753281
 97,0.48513994,0.41826506\H,0,-0.65921245,-0.63825667,-1.55296228\H,0,-
 2.33916637,-0.1905864,-1.08124825\H,0,0.07132753,-1.13185794,1.8499243

 Normal termination of Gaussian 16 at Wed Apr  9 18:54:55 2025.
