 Gaussian 16, Revision C.01,

 ----------------------------------------------------------------------
 #t hf aug-cc-pvdz symm=none int=(grid=ultrafine) guess=(read,tcheck) s
 table=(opt,rrhf)
 ----------------------------------------------------------------------
 -----
 title
 -----
 Symbolic Z-matrix:
 Charge =  0 Multiplicity = 1

 SCF Done:  E(RHF) =  -232.815036901     A.U. after   18 cycles
 Normal termination of Gaussian 16 at Wed Apr  9 03:15:45 2025.
 Gaussian 16:  ES64L-G16RevC.01  3-Jul-2019

 ----------------------------------------------------------------------
 #t hf aug-cc-pvdz iop(5/13=1,5/36=2,99/5=2) pseudo=read geom=check gue
 ss=(read,tcheck) scf=(maxcycle=1)
 ----------------------------------------------------------------------
 -----
 title
 -----
 Structure from the checkpoint file:  "Grambow2020_b97d3_006952_forward_mol1.chk"
 Charge =  0 Multiplicity = 1

                         Standard orientation:
 ---------------------------------------------------------------------
 Center     Atomic      Atomic             Coordinates (Angstroms)
 Number     Number       Type             X           Y           Z
 ---------------------------------------------------------------------
      1          6           0       -2.105447    0.310723    0.282068
      2          6           0       -0.782232   -0.005002   -0.430649
      3          6           0       -0.034502   -1.279858    0.098512
      4          6           0        1.410511   -0.860966    0.059561
      5          6           0        1.509962    0.522413   -0.022727
      6          6           0        0.259706    1.069582   -0.241611
      7          1           0       -2.579074    1.208949   -0.137195
      8          1           0       -1.935953    0.478256    1.354996
      9          1           0       -2.806764   -0.528400    0.173373
     10          1           0       -0.991741   -0.152523   -1.507017
     11          1           0       -0.390723   -1.525012    1.117470
     12          1           0       -0.210806   -2.177310   -0.514227
     13          1           0        2.241421   -1.563768    0.013969
     14          1           0        2.371800    1.254244    0.276439
     15          1           0        2.719804    2.329529    0.937489
     16          1           0        0.034050    2.134687   -0.186223
 ---------------------------------------------------------------------

 SCF Done:  E(RHF) =  -233.068751273     A.U. after    2 cycles

 The electronic state is 1-A.
 Alpha  occ. eigenvalues --  -11.33418 -11.32707 -11.29589 -11.28937 -11.26793
 Alpha  occ. eigenvalues --  -11.24717  -1.20336  -1.05880  -1.01280  -0.93094
 Alpha  occ. eigenvalues --   -0.82266  -0.78170  -0.72589  -0.67523  -0.61821
 Alpha  occ. eigenvalues --   -0.60694  -0.59605  -0.57395  -0.54806  -0.53020
 Alpha  occ. eigenvalues --   -0.52129  -0.42687  -0.22353
 Alpha virt. eigenvalues --   -0.02362   0.01906   0.02530   0.02846   0.03832
 Alpha virt. eigenvalues --    0.05151   0.05514   0.06436   0.07510   0.09213
 Alpha virt. eigenvalues --    0.09896   0.11311   0.11946   0.12678   0.13030

 Mulliken charges:
               1
     1  C   -0.285748
     2  C   -0.741816
     3  C   -0.466750
     4  C    0.106744
     5  C    0.255184
     6  C    0.450798
     7  H    0.140729
     8  H    0.226109
     9  H    0.177543
    10  H    0.256061
    11  H    0.251846
    12  H    0.199573
    13  H   -0.045265
    14  H    0.131644
    15  H   -0.531285
    16  H   -0.125366
 Sum of Mulliken charges =  -0.00000

 Dipole moment (field-independent basis, Debye):
    X=             -6.4343    Y=             -6.3420    Z=             -2.8065  Tot=              9.4603

 Test job not archived.
 1\1\GINC-SE097\SP\RHF\Aug-CC-pVDZ\C6H10\OHZDE\09-Apr-2025\0\\#t hf aug
 -cc-pvdz iop(5/13=1,5/36=2,99/5=2) pseudo=read geom=check guess=(read,
 tcheck) scf=(maxcycle=1)\\title\\0,1\C,0,2.02402769,-0.31057096,-0.035
 33705\C,0,0.57283937,-0.47883487,0.4382484\C,0,-0.39060785,-1.14395203
 ,-0.60758207\C,0,-1.66746333,-0.36785646,-0.42768055\C,0,-1.4176147,0.
 82418784,0.24090438\C,0,-0.11589862,0.83658569,0.70547446\H,0,2.645110
 8,0.1550534,0.74207273\H,0,2.06626324,0.31957974,-0.93483432\H,0,2.460
 48797,-1.28857676,-0.2819017\H,0,0.57344529,-1.10498292,1.350478\H,0,0

 Normal termination of Gaussian 16 at Wed Apr  9 03:15:51 2025.
