 Gaussian 16, Revision C.01,

 ----------------------------------------------------------------------
 #t hf aug-cc-pvdz symm=none int=(grid=ultrafine) guess=(read,tcheck) s
 table=(opt,rrhf)
 ----------------------------------------------------------------------
 -----
 title
 -----
 Symbolic Z-matrix:
 Charge =  0 Multiplicity = 1

 SCF Done:  E(RHF) =  -320.531761084     A.U. after   17 cycles
 Normal termination of Gaussian 16 at Wed Apr  9 16:09:43 2025.
 Gaussian 16:  ES64L-G16RevC.01  3-Jul-2019

 ----------------------------------------------------------------------
 #t hf aug-cc-pvdz iop(5/13=1,5/36=2,99/5=2) pseudo=read geom=check gue
 ss=(read,tcheck) scf=(maxcycle=1)
 ----------------------------------------------------------------------
 -----
 title
 -----
 Structure from the checkpoint file:  "Grambow2020_b97d3_007137_forward_mol1.chk"
 Charge =  0 Multiplicity = 1

                         Standard orientation:
 ---------------------------------------------------------------------
 Center     Atomic      Atomic             Coordinates (Angstroms)
 Number     Number       Type             X           Y           Z
 ---------------------------------------------------------------------
      1          8           0       -1.206277    1.035991   -0.411870
      2          6           0       -0.692620   -0.121088   -0.248452
      3          7           0       -1.029985   -1.158004    0.519451
      4          6           0        0.681952    0.728773    0.886806
      5          6           0        1.507276   -0.199315    0.033940
      6          8           0        0.566608   -0.395341   -1.018699
      7          1           0       -1.890486   -0.880699    1.017136
      8          1           0        0.667484    1.782467    0.625772
      9          1           0        0.399677    0.474038    1.906674
     10          1           0        1.748942   -1.130345    0.567203
     11          1           0        2.421987    0.285142   -0.342152
 ---------------------------------------------------------------------

 SCF Done:  E(RHF) =  -320.848277254     A.U. after    2 cycles

 The electronic state is 1-A.
 Alpha  occ. eigenvalues --  -20.57860 -20.52619 -15.47985 -11.42619 -11.39412
 Alpha  occ. eigenvalues --  -11.34973  -1.50623  -1.41764  -1.16483  -1.09018
 Alpha  occ. eigenvalues --   -0.91325  -0.79641  -0.74665  -0.69628  -0.67573
 Alpha  occ. eigenvalues --   -0.66016  -0.62593  -0.58301  -0.53442  -0.48868
 Alpha  occ. eigenvalues --   -0.47543  -0.42470  -0.37921
 Alpha virt. eigenvalues --   -0.03348   0.02488   0.03415   0.03941   0.06108
 Alpha virt. eigenvalues --    0.06337   0.08855   0.10479   0.11223   0.11927
 Alpha virt. eigenvalues --    0.12668   0.14331   0.14628   0.14894   0.15588

 Mulliken charges:
               1
     1  O   -1.272959
     2  C    0.783131
     3  N    0.393648
     4  C    0.028920
     5  C    0.563551
     6  O   -1.313505
     7  H    0.256157
     8  H    0.097983
     9  H    0.125482
    10  H    0.209069
    11  H    0.128523
 Sum of Mulliken charges =  -0.00000

 Dipole moment (field-independent basis, Debye):
    X=              4.6630    Y=              2.6744    Z=              3.7924  Tot=              6.5786

 Test job not archived.
 1\1\GINC-SE138\SP\RHF\Aug-CC-pVDZ\C3H5N1O2\OHZDE\09-Apr-2025\0\\#t hf
 aug-cc-pvdz iop(5/13=1,5/36=2,99/5=2) pseudo=read geom=check guess=(re
 ad,tcheck) scf=(maxcycle=1)\\title\\0,1\O,0,1.48026169,-1.03724617,-0.
 72348348\C,0,1.13815621,-0.14368178,0.12143589\N,0,1.04528812,-0.14802
 743,1.45186542\C,0,-0.74125297,-0.5044575,-0.36660556\C,0,-0.70667714,
 1.00147927,-0.33747933\O,0,0.70336867,1.17279827,-0.45474998\H,0,1.348
 70325,-1.08529139,1.75931414\H,0,-0.70392812,-0.99608007,-1.33383497\H
 ,0,-1.13919847,-1.08665362,0.46248186\H,0,-1.10592364,1.39657683,0.608

 Normal termination of Gaussian 16 at Wed Apr  9 16:09:47 2025.
