 Gaussian 16, Revision C.01,

 ----------------------------------------------------------------------
 #t hf aug-cc-pvdz symm=none int=(grid=ultrafine) guess=(read,tcheck) s
 table=(opt,rrhf)
 ----------------------------------------------------------------------
 -----
 title
 -----
 Symbolic Z-matrix:
 Charge =  0 Multiplicity = 1

 SCF Done:  E(RHF) =  -376.837976334     A.U. after   14 cycles
 Normal termination of Gaussian 16 at Wed Apr  9 03:59:46 2025.
 Gaussian 16:  ES64L-G16RevC.01  3-Jul-2019

 ----------------------------------------------------------------------
 #t hf aug-cc-pvdz iop(5/13=1,5/36=2,99/5=2) pseudo=read geom=check gue
 ss=(read,tcheck) scf=(maxcycle=1)
 ----------------------------------------------------------------------
 -----
 title
 -----
 Structure from the checkpoint file:  "Grambow2020_wb97xd3_008740_forward_mol1.chk"
 Charge =  0 Multiplicity = 1

                         Standard orientation:
 ---------------------------------------------------------------------
 Center     Atomic      Atomic             Coordinates (Angstroms)
 Number     Number       Type             X           Y           Z
 ---------------------------------------------------------------------
      1          7           0       -2.590349   -0.565254    0.032712
      2          6           0       -1.312765   -0.154879   -0.001272
      3          8           0       -0.422092   -1.086689   -0.058288
      4          7           0       -0.958354    1.103067    0.003834
      5          6           0        0.463683    1.455429   -0.086904
      6          6           0        2.506857    0.110114    0.151243
      7          8           0        2.361711   -1.080246   -0.084472
      8          1           0       -2.765851   -1.548479    0.123660
      9          1           0       -3.337166    0.080351    0.201943
     10          1           0       -1.701523    1.788588    0.026855
     11          1           0        0.685130    2.157141    0.720944
     12          1           0        0.626114    1.952710   -1.047315
     13          1           0        2.536274    0.495351    1.183139
     14          1           0        2.862416    0.816466   -0.615534
     15          1           0        0.471924   -0.635325   -0.085835
 ---------------------------------------------------------------------

 SCF Done:  E(RHF) =  -377.222627083     A.U. after    2 cycles

 The electronic state is 1-A.
 Alpha  occ. eigenvalues --  -20.60319 -20.49247 -15.57212 -15.55158 -11.43256
 Alpha  occ. eigenvalues --  -11.31541 -11.18665  -1.56041  -1.42609  -1.30874
 Alpha  occ. eigenvalues --   -1.23975  -0.95252  -0.88284  -0.84108  -0.82589
 Alpha  occ. eigenvalues --   -0.79435  -0.73327  -0.69203  -0.64448  -0.61643
 Alpha  occ. eigenvalues --   -0.61540  -0.59141  -0.56272  -0.52328  -0.49647
 Alpha  occ. eigenvalues --   -0.43685  -0.37780  -0.29215
 Alpha virt. eigenvalues --    0.01242   0.03857   0.04781   0.05374   0.05794
 Alpha virt. eigenvalues --    0.06900   0.07796   0.08493   0.10252   0.10850
 Alpha virt. eigenvalues --    0.12713   0.13472   0.14532   0.15079   0.15411

 Mulliken charges:
               1
     1  N    0.802529
     2  C    0.166969
     3  O   -1.511336
     4  N    0.459752
     5  C   -0.816894
     6  C    0.701732
     7  O   -1.052831
     8  H    0.177527
     9  H    0.127607
    10  H    0.105805
    11  H   -0.041068
    12  H   -0.055277
    13  H    0.111067
    14  H    0.108702
    15  H    0.715716
 Sum of Mulliken charges =  -0.00000

 Dipole moment (field-independent basis, Debye):
    X=             -6.6426    Y=              1.7946    Z=              0.9823  Tot=              6.9505

 Test job not archived.
 1\1\GINC-SE187\SP\RHF\Aug-CC-pVDZ\C3H8N2O2\OHZDE\09-Apr-2025\0\\#t hf
 aug-cc-pvdz iop(5/13=1,5/36=2,99/5=2) pseudo=read geom=check guess=(re
 ad,tcheck) scf=(maxcycle=1)\\title\\0,1\N,0,2.29214577,1.32144256,-0.4
 4874052\C,0,1.1323263,0.70694424,-0.16768128\O,0,0.43698953,1.22397164
 ,0.78835797\N,0,0.69584689,-0.34161507,-0.81426459\C,0,-0.61035396,-0.
 91456368,-0.46763619\C,0,-2.1059839,-0.55147077,1.44871511\O,0,-1.9717
 0029,0.53092753,2.00004556\H,0,2.59329736,2.05848767,0.16107522\H,0,2.
 9501714,0.91832516,-1.08723811\H,0,1.27359491,-0.68842483,-1.56838624\

 Normal termination of Gaussian 16 at Wed Apr  9 03:59:52 2025.
