 Gaussian 16, Revision C.01,

 ----------------------------------------------------------------------
 #t hf aug-cc-pvdz symm=none int=(grid=ultrafine) guess=(read,tcheck) s
 table=(opt,rrhf)
 ----------------------------------------------------------------------
 -----
 title
 -----
 Symbolic Z-matrix:
 Charge =  0 Multiplicity = 1

 SCF Done:  E(RHF) =  -289.209670362     A.U. after   12 cycles

 1\1\GINC-SE108\Stability\RHF\Aug-CC-pVDZ\C6H13N1\OHZDE\09-Apr-2025\0\\
 #t hf aug-cc-pvdz symm=none int=(grid=ultrafine) guess=(read,tcheck) s
 table=(opt,rrhf)\\title\\0,1\C,0,-1.00627866,1.68846906,0.52966315\C,0
 ,-0.73149731,0.24630003,0.86367649\N,0,-0.76040578,-0.74456005,-0.1932
 8193\C,0,-1.48173754,-1.97191642,0.05981326\C,0,0.48298752,-0.54579093
 ,0.51866869\C,0,1.73430295,-0.11748028,-0.21793164\C,0,1.57422646,0.88
 333063,-1.3541621\H,0,-2.06395629,1.91277008,0.68454264\H,0,-0.4257015
 4,2.35738618,1.16906089\H,0,-0.76814299,1.90456668,-0.50908015\H,0,-1.

 Normal termination of Gaussian 16 at Wed Apr  9 04:05:12 2025.
 Gaussian 16:  ES64L-G16RevC.01  3-Jul-2019

 ----------------------------------------------------------------------
 #t hf aug-cc-pvdz iop(5/13=1,5/36=2,99/5=2) pseudo=read geom=check gue
 ss=(read,tcheck) scf=(maxcycle=1)
 ----------------------------------------------------------------------
 -----
 title
 -----
 Structure from the checkpoint file:  "Grambow2020_wb97xd3_009126_reverse_mol2.chk"
 Charge =  0 Multiplicity = 1

                         Standard orientation:
 ---------------------------------------------------------------------
 Center     Atomic      Atomic             Coordinates (Angstroms)
 Number     Number       Type             X           Y           Z
 ---------------------------------------------------------------------
      1          6           0        0.004740    2.072567   -0.064838
      2          6           0       -0.653651    0.824193    0.459572
      3          7           0       -0.877250   -0.290715   -0.438640
      4          6           0       -2.178719   -0.920224   -0.412619
      5          6           0       -0.014967   -0.500148    0.703733
      6          6           0        1.426460   -0.922912    0.515642
      7          6           0        2.188560   -0.322321   -0.657712
      8          1           0       -0.754957    2.793472   -0.374896
      9          1           0        0.619764    2.545222    0.704378
     10          1           0        0.630278    1.855482   -0.927375
     11          1           0       -1.475530    1.026795    1.148400
     12          1           0       -2.097426   -1.942961   -0.785498
     13          1           0       -2.616345   -0.953739    0.597170
     14          1           0       -2.862162   -0.373553   -1.065184
     15          1           0        1.960461   -0.722848    1.450215
     16          1           0       -0.482655   -1.040491    1.529558
     17          1           0        1.417781   -2.012795    0.406642
     18          1           0        1.599675   -0.383564   -1.573765
     19          1           0        3.121612   -0.866116   -0.815174
     20          1           0        2.445708    0.723171   -0.486669
 ---------------------------------------------------------------------

 SCF Done:  E(RHF) =  -289.531084937     A.U. after    2 cycles

 The electronic state is 1-A.
 Alpha  occ. eigenvalues --  -15.48674 -11.25596 -11.25368 -11.24994 -11.22698
 Alpha  occ. eigenvalues --  -11.22070 -11.21384  -1.27631  -1.04444  -1.01038
 Alpha  occ. eigenvalues --   -0.95926  -0.88054  -0.80225  -0.76219  -0.69336
 Alpha  occ. eigenvalues --   -0.63506  -0.62257  -0.60296  -0.57690  -0.56870
 Alpha  occ. eigenvalues --   -0.55727  -0.53452  -0.50966  -0.50376  -0.47748
 Alpha  occ. eigenvalues --   -0.45500  -0.44693  -0.39046
 Alpha virt. eigenvalues --    0.03771   0.03891   0.04069   0.04257   0.05264
 Alpha virt. eigenvalues --    0.05443   0.05832   0.05963   0.06790   0.08928
 Alpha virt. eigenvalues --    0.09069   0.09381   0.10637   0.12884   0.13962

 Mulliken charges:
               1
     1  C   -0.466600
     2  C   -0.289151
     3  N    0.761237
     4  C   -0.274802
     5  C   -0.267461
     6  C   -0.586558
     7  C   -0.249165
     8  H    0.150150
     9  H    0.271772
    10  H    0.191175
    11  H   -0.217404
    12  H    0.074704
    13  H    0.145704
    14  H    0.089618
    15  H    0.215703
    16  H   -0.252897
    17  H    0.218206
    18  H    0.263497
    19  H    0.010248
    20  H    0.212021
 Sum of Mulliken charges =   0.00000

 Dipole moment (field-independent basis, Debye):
    X=             -0.3198    Y=              0.0357    Z=              1.2807  Tot=              1.3205

 Test job not archived.
 1\1\GINC-SE108\SP\RHF\Aug-CC-pVDZ\C6H13N1\OHZDE\09-Apr-2025\0\\#t hf a
 ug-cc-pvdz iop(5/13=1,5/36=2,99/5=2) pseudo=read geom=check guess=(rea
 d,tcheck) scf=(maxcycle=1)\\title\\0,1\C,0,-1.00627866,1.68846906,0.52
 966315\C,0,-0.73149731,0.24630003,0.86367649\N,0,-0.76040578,-0.744560
 05,-0.19328193\C,0,-1.48173754,-1.97191642,0.05981326\C,0,0.48298752,-
 0.54579093,0.51866869\C,0,1.73430295,-0.11748028,-0.21793164\C,0,1.574
 22646,0.88333063,-1.3541621\H,0,-2.06395629,1.91277008,0.68454264\H,0,
 -0.42570154,2.35738618,1.16906089\H,0,-0.76814299,1.90456668,-0.509080

 Normal termination of Gaussian 16 at Wed Apr  9 04:05:20 2025.
