 Gaussian 16, Revision C.01,

 ----------------------------------------------------------------------
 #t hf aug-cc-pvdz symm=none int=(grid=ultrafine) guess=(read,tcheck) s
 table=(opt,rrhf)
 ----------------------------------------------------------------------
 -----
 title
 -----
 Symbolic Z-matrix:
 Charge =  0 Multiplicity = 1

 SCF Done:  E(RHF) =  -322.628206582     A.U. after   16 cycles
 Normal termination of Gaussian 16 at Wed Apr  9 18:36:30 2025.
 Gaussian 16:  ES64L-G16RevC.01  3-Jul-2019

 ----------------------------------------------------------------------
 #t hf aug-cc-pvdz iop(5/13=1,5/36=2,99/5=2) pseudo=read geom=check gue
 ss=(read,tcheck) scf=(maxcycle=1)
 ----------------------------------------------------------------------
 -----
 title
 -----
 Structure from the checkpoint file:  "Grambow2020_wb97xd3_007760_forward_mol1.chk"
 Charge =  0 Multiplicity = 1

                         Standard orientation:
 ---------------------------------------------------------------------
 Center     Atomic      Atomic             Coordinates (Angstroms)
 Number     Number       Type             X           Y           Z
 ---------------------------------------------------------------------
      1          6           0       -2.484971   -0.423896   -0.173002
      2          6           0       -1.053567   -0.102591    0.174340
      3          6           0        0.040338   -1.022223    0.092643
      4          6           0        1.253111   -0.335985   -0.018449
      5          7           0        2.481125   -0.598464   -0.061098
      6          8           0        0.806216    1.145002   -0.046596
      7          6           0       -0.469268    1.196356   -0.009162
      8          1           0       -3.156348    0.404890    0.057003
      9          1           0       -2.555297   -0.649941   -1.236599
     10          1           0       -2.818879   -1.299913    0.381654
     11          1           0       -0.032153   -2.092754    0.165746
     12          1           0        3.078321    0.204697   -0.194415
     13          1           0       -1.076486    0.434732    1.253965
     14          1           0       -0.970617    2.157543   -0.025118
 ---------------------------------------------------------------------

 SCF Done:  E(RHF) =  -322.960733332     A.U. after    2 cycles

 The electronic state is 1-A.
 Alpha  occ. eigenvalues --  -20.63258 -15.43476 -11.40003 -11.33761 -11.30287
 Alpha  occ. eigenvalues --  -11.26887 -11.19395  -1.57022  -1.18592  -1.15274
 Alpha  occ. eigenvalues --   -0.99889  -0.97388  -0.83027  -0.78363  -0.74317
 Alpha  occ. eigenvalues --   -0.69953  -0.68299  -0.62154  -0.61000  -0.57900
 Alpha  occ. eigenvalues --   -0.56472  -0.55440  -0.50161  -0.48121  -0.44291
 Alpha  occ. eigenvalues --   -0.27866
 Alpha virt. eigenvalues --    0.01867   0.03066   0.03561   0.04390   0.05748
 Alpha virt. eigenvalues --    0.06362   0.07184   0.07395   0.10523   0.10848
 Alpha virt. eigenvalues --    0.11870   0.13050   0.13538   0.14211   0.14699

 Mulliken charges:
               1
     1  C   -0.286288
     2  C   -0.767007
     3  C    0.699513
     4  C   -0.736238
     5  N    0.666801
     6  O   -1.468326
     7  C    0.944058
     8  H    0.143172
     9  H    0.255821
    10  H    0.216860
    11  H   -0.182465
    12  H    0.033344
    13  H    0.610153
    14  H   -0.129399
 Sum of Mulliken charges =   0.00000

 Dipole moment (field-independent basis, Debye):
    X=             -6.1477    Y=              3.8038    Z=              0.2176  Tot=              7.2326

 Test job not archived.
 1\1\GINC-SE192\SP\RHF\Aug-CC-pVDZ\C5H7N1O1\OHZDE\09-Apr-2025\0\\#t hf
 aug-cc-pvdz iop(5/13=1,5/36=2,99/5=2) pseudo=read geom=check guess=(re
 ad,tcheck) scf=(maxcycle=1)\\title\\0,1\C,0,-1.97353154,-0.0658442,-0.
 47341231\C,0,-0.57206567,-0.03548641,0.08136061\C,0,0.46952881,-0.9558
 0457,-0.2608669\C,0,1.72465529,-0.39602683,-0.00515482\N,0,2.93292094,
 -0.73794047,-0.04900617\O,0,1.36937533,1.02192692,0.50180987\C,0,0.102
 41875,1.17567296,0.45620363\H,0,-2.61707488,0.6750553,0.00350949\H,0,-
 1.94113977,0.13235666,-1.54436918\H,0,-2.41538251,-1.05036136,-0.32496

 Normal termination of Gaussian 16 at Wed Apr  9 18:36:35 2025.
