 Gaussian 16, Revision C.01,

 ----------------------------------------------------------------------
 #t hf aug-cc-pvdz symm=none int=(grid=ultrafine) guess=(read,tcheck) s
 table=(opt,rrhf)
 ----------------------------------------------------------------------
 -----
 title
 -----
 Symbolic Z-matrix:
 Charge =  0 Multiplicity = 1

 SCF Done:  E(RHF) =  -342.402733976     A.U. after   18 cycles
 Normal termination of Gaussian 16 at Wed Apr  9 19:04:55 2025.
 Gaussian 16:  ES64L-G16RevC.01  3-Jul-2019

 ----------------------------------------------------------------------
 #t hf aug-cc-pvdz iop(5/13=1,5/36=2,99/5=2) pseudo=read geom=check gue
 ss=(read,tcheck) scf=(maxcycle=1)
 ----------------------------------------------------------------------
 -----
 title
 -----
 Structure from the checkpoint file:  "Grambow2020_wb97xd3_008530_forward_mol1.chk"
 Charge =  0 Multiplicity = 1

                         Standard orientation:
 ---------------------------------------------------------------------
 Center     Atomic      Atomic             Coordinates (Angstroms)
 Number     Number       Type             X           Y           Z
 ---------------------------------------------------------------------
      1          8           0        1.906106   -0.650812   -0.391853
      2          6           0        0.770687   -0.345120   -0.142321
      3          6           0       -0.295986   -1.229862    0.480205
      4          8           0       -1.532847   -0.647826    0.079652
      5          6           0       -1.270732    0.481362   -0.536900
      6          6           0        0.424101    1.483066    0.830142
      7          6           0        0.065242    1.004723   -0.530643
      8          1           0       -0.220128   -1.216063    1.566215
      9          1           0       -0.277190   -2.252041    0.104003
     10          1           0       -2.126017    0.893404   -1.062674
     11          1           0        1.431311    1.334325    1.187292
     12          1           0       -0.355340    1.741783    1.533325
     13          1           0        0.401429    1.522670   -1.433447
 ---------------------------------------------------------------------

 SCF Done:  E(RHF) =  -342.747453500     A.U. after    2 cycles

 The electronic state is 1-A.
 Alpha  occ. eigenvalues --  -20.65990 -20.52385 -11.41174 -11.36358 -11.33231
 Alpha  occ. eigenvalues --  -11.28241 -11.20306  -1.60023  -1.46990  -1.13771
 Alpha  occ. eigenvalues --   -1.05648  -0.90840  -0.82660  -0.82023  -0.75237
 Alpha  occ. eigenvalues --   -0.71417  -0.66997  -0.64033  -0.61616  -0.61372
 Alpha  occ. eigenvalues --   -0.56860  -0.56212  -0.53789  -0.48590  -0.40024
 Alpha  occ. eigenvalues --   -0.24881
 Alpha virt. eigenvalues --    0.01832   0.02258   0.03771   0.04665   0.05077
 Alpha virt. eigenvalues --    0.06559   0.07026   0.08609   0.09084   0.11342
 Alpha virt. eigenvalues --    0.12257   0.12985   0.14244   0.14621   0.14823

 Mulliken charges:
               1
     1  O   -1.500139
     2  C    1.100262
     3  C    0.502431
     4  O   -1.251518
     5  C    1.129350
     6  C    0.000271
     7  C   -0.028983
     8  H    0.239608
     9  H    0.093045
    10  H    0.017275
    11  H   -0.087367
    12  H   -0.141775
    13  H   -0.072459
 Sum of Mulliken charges =  -0.00000

 Dipole moment (field-independent basis, Debye):
    X=             -4.9898    Y=             -1.1192    Z=             -0.9765  Tot=              5.2061

 Test job not archived.
 1\1\GINC-SE104\SP\RHF\Aug-CC-pVDZ\C5H6O2\OHZDE\09-Apr-2025\0\\#t hf au
 g-cc-pvdz iop(5/13=1,5/36=2,99/5=2) pseudo=read geom=check guess=(read
 ,tcheck) scf=(maxcycle=1)\\title\\0,1\O,0,1.03797856,1.7217058,0.93455
 475\C,0,0.59787261,0.77584535,0.33744137\C,0,1.39128515,-0.36824372,-0
 .27055049\O,0,0.54490474,-0.90140192,-1.28465872\C,0,-0.61930489,-0.30
 012739,-1.20103725\C,0,-1.04757918,-0.23897737,1.15640121\C,0,-0.89989
 866,0.56061022,-0.08785775\H,0,1.59411143,-1.13401611,0.47632185\H,0,2
 .31323608,-0.04207004,-0.75049813\H,0,-1.26043302,-0.48229823,-2.05748

 Normal termination of Gaussian 16 at Wed Apr  9 19:04:59 2025.
