 Gaussian 16, Revision C.01,

 ----------------------------------------------------------------------
 #t hf aug-cc-pvdz symm=none int=(grid=ultrafine) guess=(read,tcheck) s
 table=(opt,rrhf)
 ----------------------------------------------------------------------
 -----
 title
 -----
 Symbolic Z-matrix:
 Charge =  0 Multiplicity = 1

 SCF Done:  E(RHF) =  -354.808409334     A.U. after   14 cycles
 Normal termination of Gaussian 16 at Wed Apr  9 03:40:15 2025.
 Gaussian 16:  ES64L-G16RevC.01  3-Jul-2019

 ----------------------------------------------------------------------
 #t hf aug-cc-pvdz iop(5/13=1,5/36=2,99/5=2) pseudo=read geom=check gue
 ss=(read,tcheck) scf=(maxcycle=1)
 ----------------------------------------------------------------------
 -----
 title
 -----
 Structure from the checkpoint file:  "Grambow2020_wb97xd3_007474_reverse_mol2.chk"
 Charge =  0 Multiplicity = 1

                         Standard orientation:
 ---------------------------------------------------------------------
 Center     Atomic      Atomic             Coordinates (Angstroms)
 Number     Number       Type             X           Y           Z
 ---------------------------------------------------------------------
      1          7           0        2.372370   -0.489873   -0.005841
      2          6           0        1.152125   -0.169664    0.002647
      3          6           0        0.662948    1.267257    0.019270
      4          7           0       -0.771168    1.108762   -0.045317
      5          6           0       -1.167458   -0.194381   -0.006166
      6          8           0       -2.286394   -0.637674    0.011683
      7          7           0        0.011069   -0.945677    0.004146
      8          1           0        2.510450   -1.496566   -0.012519
      9          1           0        0.996391    1.757326    0.937043
     10          1           0        1.069262    1.811136   -0.835084
     11          1           0       -1.440681    1.847056    0.056758
     12          1           0       -0.015855   -1.949320   -0.005086
 ---------------------------------------------------------------------

 SCF Done:  E(RHF) =  -355.166414341     A.U. after    2 cycles

 The electronic state is 1-A.
 Alpha  occ. eigenvalues --  -20.52172 -15.55738 -15.54146 -15.49007 -11.40246
 Alpha  occ. eigenvalues --  -11.34928 -11.30444  -1.48630  -1.34437  -1.24149
 Alpha  occ. eigenvalues --   -1.19467  -1.01560  -0.90727  -0.87148  -0.77982
 Alpha  occ. eigenvalues --   -0.73222  -0.71127  -0.69756  -0.64483  -0.61075
 Alpha  occ. eigenvalues --   -0.60430  -0.55826  -0.49738  -0.45429  -0.44101
 Alpha  occ. eigenvalues --   -0.42978
 Alpha virt. eigenvalues --    0.02611   0.04158   0.05015   0.05429   0.06004
 Alpha virt. eigenvalues --    0.07899   0.09987   0.10261   0.11833   0.11984
 Alpha virt. eigenvalues --    0.12912   0.13343   0.13544   0.14366   0.16462

 Mulliken charges:
               1
     1  N    0.922322
     2  C   -1.719495
     3  C   -0.227632
     4  N    0.568668
     5  C    0.426170
     6  O   -1.184157
     7  N    0.612180
     8  H    0.122336
     9  H    0.178701
    10  H    0.183418
    11  H    0.071996
    12  H    0.045492
 Sum of Mulliken charges =  -0.00000

 Dipole moment (field-independent basis, Debye):
    X=              0.6760    Y=              1.0676    Z=              0.2006  Tot=              1.2794

 Test job not archived.
 1\1\GINC-SE080\SP\RHF\Aug-CC-pVDZ\C3H5N3O1\OHZDE\09-Apr-2025\0\\#t hf
 aug-cc-pvdz iop(5/13=1,5/36=2,99/5=2) pseudo=read geom=check guess=(re
 ad,tcheck) scf=(maxcycle=1)\\title\\0,1\N,0,2.17091691,-0.2386524,-0.3
 2395472\C,0,0.92532601,-0.15260682,-0.14311432\C,0,0.19492309,1.164739
 88,0.04509323\N,0,-1.18374401,0.74534872,0.14189745\C,0,-1.33305727,-0
 .60898626,0.12628216\O,0,-2.34278046,-1.25348874,0.24427345\N,0,-0.048
 93989,-1.12670558,-0.06472709\H,0,2.48377286,-1.20001163,-0.42618808\H
 ,0,0.55495406,1.6571783,0.95148198\H,0,0.38063257,1.82099698,-0.806760

 Normal termination of Gaussian 16 at Wed Apr  9 03:40:19 2025.
