 Gaussian 16, Revision C.01,

 ----------------------------------------------------------------------
 #t hf aug-cc-pvdz symm=none int=(grid=ultrafine) guess=(read,tcheck) s
 table=(opt,rrhf)
 ----------------------------------------------------------------------
 -----
 title
 -----
 Symbolic Z-matrix:
 Charge =  0 Multiplicity = 1

 SCF Done:  E(RHF) =  -305.670130814     A.U. after   15 cycles
 Normal termination of Gaussian 16 at Wed Apr  9 16:59:17 2025.
 Gaussian 16:  ES64L-G16RevC.01  3-Jul-2019

 ----------------------------------------------------------------------
 #t hf aug-cc-pvdz iop(5/13=1,5/36=2,99/5=2) pseudo=read geom=check gue
 ss=(read,tcheck) scf=(maxcycle=1)
 ----------------------------------------------------------------------
 -----
 title
 -----
 Structure from the checkpoint file:  "Grambow2020_wb97xd3_006211_forward_mol1.chk"
 Charge =  0 Multiplicity = 1

                         Standard orientation:
 ---------------------------------------------------------------------
 Center     Atomic      Atomic             Coordinates (Angstroms)
 Number     Number       Type             X           Y           Z
 ---------------------------------------------------------------------
      1          6           0        2.047973    0.029576   -0.406938
      2          8           0        0.987793   -0.764857    0.138034
      3          6           0        0.189264   -0.088574    0.883280
      4          6           0       -0.459930    1.304008   -0.369043
      5          6           0       -1.177605    0.161442    0.373469
      6          8           0       -1.736543   -0.832486   -0.418133
      7          1           0        2.589544    0.545900    0.396384
      8          1           0        0.792661    1.089646   -0.623846
      9          1           0        2.703768   -0.630681   -0.973484
     10          1           0        0.604976    0.561341    1.652738
     11          1           0       -0.769365    1.299339   -1.414004
     12          1           0       -0.600426    2.273700    0.096412
     13          1           0       -1.903345    0.469099    1.121468
     14          1           0       -1.026025   -1.268310   -0.899483
 ---------------------------------------------------------------------

 SCF Done:  E(RHF) =  -305.986132355     A.U. after    2 cycles

 The electronic state is 1-A.
 Alpha  occ. eigenvalues --  -20.60883 -20.57124 -11.37038 -11.33023 -11.24184
 Alpha  occ. eigenvalues --  -11.23977  -1.55650  -1.48144  -1.10333  -0.95038
 Alpha  occ. eigenvalues --   -0.86767  -0.84262  -0.75935  -0.71461  -0.66489
 Alpha  occ. eigenvalues --   -0.63713  -0.62350  -0.58163  -0.56535  -0.53724
 Alpha  occ. eigenvalues --   -0.51137  -0.45675  -0.45034  -0.28298
 Alpha virt. eigenvalues --    0.02905   0.03771   0.04322   0.04488   0.06279
 Alpha virt. eigenvalues --    0.06849   0.07575   0.07726   0.08387   0.11056
 Alpha virt. eigenvalues --    0.12599   0.12951   0.14271   0.14454   0.14918

 Mulliken charges:
               1
     1  C   -0.126619
     2  O   -1.296076
     3  C    0.950392
     4  C   -0.649516
     5  C    1.501695
     6  O   -1.404901
     7  H    0.024332
     8  H    0.608898
     9  H   -0.126238
    10  H    0.048654
    11  H    0.088424
    12  H    0.030643
    13  H    0.058958
    14  H    0.291354
 Sum of Mulliken charges =  -0.00000

 Dipole moment (field-independent basis, Debye):
    X=             -0.5466    Y=              0.9879    Z=              1.8400  Tot=              2.1588

 Test job not archived.
 1\1\GINC-SE041\SP\RHF\Aug-CC-pVDZ\C4H8O2\OHZDE\09-Apr-2025\0\\#t hf au
 g-cc-pvdz iop(5/13=1,5/36=2,99/5=2) pseudo=read geom=check guess=(read
 ,tcheck) scf=(maxcycle=1)\\title\\0,1\C,0,1.58443052,-0.50768331,-0.99
 788321\O,0,0.3422297,0.13813396,-1.30112418\C,0,-0.65020779,-0.3593822
 6,-0.65463657\C,0,-0.08693654,-0.09628237,1.22753133\C,0,-1.26129095,0
 .47025716,0.40791881\O,0,-1.26247097,1.8428158,0.20050803\H,0,1.501481
 3,-1.59014371,-1.16102596\H,0,0.9637462,-0.40784945,0.53554101\H,0,2.3
 5471201,-0.06444401,-1.62811117\H,0,-0.78354856,-1.44068554,-0.6380762

 Normal termination of Gaussian 16 at Wed Apr  9 17:00:16 2025.
