 Gaussian 16, Revision C.01,

 ----------------------------------------------------------------------
 #t hf aug-cc-pvdz symm=none int=(grid=ultrafine) guess=(read,tcheck) s
 table=(opt,rrhf)
 ----------------------------------------------------------------------
 -----
 title
 -----
 Symbolic Z-matrix:
 Charge =  0 Multiplicity = 1

 SCF Done:  E(RHF) =  -307.622718766     A.U. after   17 cycles

 1\1\GINC-SE340\Stability\RHF\Aug-CC-pVDZ\C6H10O1\OHZDE\09-Apr-2025\0\\
 #t hf aug-cc-pvdz symm=none int=(grid=ultrafine) guess=(read,tcheck) s
 table=(opt,rrhf)\\title\\0,1\C,0,-2.13180521,-0.55082258,0.03022264\C,
 0,-0.75399529,-0.01854395,-0.19122285\O,0,-0.51955252,1.18703454,0.446
 39269\C,0,0.36985038,1.69715177,-0.5268667\C,0,1.6835096,-0.22912065,-
 0.3682185\C,0,1.45264686,-0.59680241,1.00735669\C,0,0.43623013,-0.9177
 8373,-0.16005824\H,0,-2.87271261,0.16040757,-0.33619537\H,0,-2.3167584
 6,-0.70272107,1.09910669\H,0,-2.26542337,-1.50314747,-0.48269747\H,0,-

 Normal termination of Gaussian 16 at Wed Apr  9 17:58:13 2025.
 Gaussian 16:  ES64L-G16RevC.01  3-Jul-2019

 ----------------------------------------------------------------------
 #t hf aug-cc-pvdz iop(5/13=1,5/36=2,99/5=2) pseudo=read geom=check gue
 ss=(read,tcheck) scf=(maxcycle=1)
 ----------------------------------------------------------------------
 -----
 title
 -----
 Structure from the checkpoint file:  "Grambow2020_wb97xd3_006907_reverse_mol1.chk"
 Charge =  0 Multiplicity = 1

                         Standard orientation:
 ---------------------------------------------------------------------
 Center     Atomic      Atomic             Coordinates (Angstroms)
 Number     Number       Type             X           Y           Z
 ---------------------------------------------------------------------
      1          6           0       -2.118210   -0.781186   -0.038396
      2          6           0       -0.788131   -0.123372   -0.208358
      3          8           0       -0.587292    0.944004    0.649144
      4          6           0        0.214343    1.696903   -0.239123
      5          6           0        1.643360   -0.128848   -0.532275
      6          6           0        1.512889   -0.778074    0.749200
      7          6           0        0.451604   -0.928054   -0.412768
      8          1           0       -2.918443   -0.063052   -0.219960
      9          1           0       -2.232820   -1.155231    0.984711
     10          1           0       -2.225981   -1.619003   -0.727098
     11          1           0       -0.168207    0.860056   -1.169045
     12          1           0       -0.387409    2.508650   -0.659065
     13          1           0        1.105736    2.115274    0.223920
     14          1           0        2.470968   -0.301983   -1.209897
     15          1           0        1.034494   -0.237665    1.565499
     16          1           0        2.210388   -1.549741    1.068070
     17          1           0        0.314474   -1.853549   -0.959965
 ---------------------------------------------------------------------

 SCF Done:  E(RHF) =  -307.947647617     A.U. after    2 cycles

 The electronic state is 1-A.
 Alpha  occ. eigenvalues --  -20.56254 -11.30978 -11.30351 -11.24641 -11.24394
 Alpha  occ. eigenvalues --  -11.23829 -11.23513  -1.50158  -1.15623  -1.02998
 Alpha  occ. eigenvalues --   -0.91536  -0.88997  -0.79755  -0.76181  -0.70085
 Alpha  occ. eigenvalues --   -0.67613  -0.65656  -0.59971  -0.58074  -0.56920
 Alpha  occ. eigenvalues --   -0.54961  -0.52436  -0.49609  -0.45525  -0.44754
 Alpha  occ. eigenvalues --   -0.38218  -0.27161
 Alpha virt. eigenvalues --    0.03453   0.03553   0.03840   0.04127   0.05408
 Alpha virt. eigenvalues --    0.05931   0.06352   0.06902   0.07286   0.07897
 Alpha virt. eigenvalues --    0.09641   0.12077   0.12482   0.12828   0.13568

 Mulliken charges:
               1
     1  C   -0.645329
     2  C    0.336708
     3  O   -1.431313
     4  C    0.161109
     5  C    0.233622
     6  C    0.233229
     7  C    0.171121
     8  H    0.192585
     9  H    0.281536
    10  H    0.214589
    11  H    1.027231
    12  H   -0.146927
    13  H   -0.042754
    14  H   -0.220245
    15  H    0.019213
    16  H   -0.173660
    17  H   -0.210717
 Sum of Mulliken charges =  -0.00000

 Dipole moment (field-independent basis, Debye):
    X=             -0.0602    Y=             -0.8264    Z=             -0.6254  Tot=              1.0381

 Test job not archived.
 1\1\GINC-SE340\SP\RHF\Aug-CC-pVDZ\C6H10O1\OHZDE\09-Apr-2025\0\\#t hf a
 ug-cc-pvdz iop(5/13=1,5/36=2,99/5=2) pseudo=read geom=check guess=(rea
 d,tcheck) scf=(maxcycle=1)\\title\\0,1\C,0,-2.13180521,-0.55082258,0.0
 3022264\C,0,-0.75399529,-0.01854395,-0.19122285\O,0,-0.51955252,1.1870
 3454,0.44639269\C,0,0.36985038,1.69715177,-0.5268667\C,0,1.6835096,-0.
 22912065,-0.3682185\C,0,1.45264686,-0.59680241,1.00735669\C,0,0.436230
 13,-0.91778373,-0.16005824\H,0,-2.87271261,0.16040757,-0.33619537\H,0,
 -2.31675846,-0.70272107,1.09910669\H,0,-2.26542337,-1.50314747,-0.4826

 Normal termination of Gaussian 16 at Wed Apr  9 17:58:18 2025.
