 Gaussian 16, Revision C.01,

 ----------------------------------------------------------------------
 #t hf aug-cc-pvdz symm=none int=(grid=ultrafine) guess=(read,tcheck) s
 table=(opt,rrhf)
 ----------------------------------------------------------------------
 -----
 title
 -----
 Symbolic Z-matrix:
 Charge =  0 Multiplicity = 1

 SCF Done:  E(RHF) =  -283.503304727     A.U. after   19 cycles
 Normal termination of Gaussian 16 at Wed Apr  9 03:09:44 2025.
 Gaussian 16:  ES64L-G16RevC.01  3-Jul-2019

 ----------------------------------------------------------------------
 #t hf aug-cc-pvdz iop(5/13=1,5/36=2,99/5=2) pseudo=read geom=check gue
 ss=(read,tcheck) scf=(maxcycle=1)
 ----------------------------------------------------------------------
 -----
 title
 -----
 Structure from the checkpoint file:  "Grambow2020_b97d3_006663_forward_mol1.chk"
 Charge =  0 Multiplicity = 1

                         Standard orientation:
 ---------------------------------------------------------------------
 Center     Atomic      Atomic             Coordinates (Angstroms)
 Number     Number       Type             X           Y           Z
 ---------------------------------------------------------------------
      1          7           0       -2.263091   -0.153271   -0.016515
      2          6           0       -1.094047    0.206790   -0.050176
      3          6           0        0.014715    1.226261   -0.073266
      4          6           0        1.008198    0.079848    0.400736
      5          6           0       -0.174611   -1.088980   -0.033323
      6          8           0        2.071083   -0.222189   -0.241376
      7          1           0       -0.102332    2.125074    0.544853
      8          1           0        0.233974    1.502365   -1.114172
      9          1           0        1.003603    0.018349    1.515734
     10          1           0       -0.377267   -1.884061    0.689496
     11          1           0       -0.010533   -1.454830   -1.053124
 ---------------------------------------------------------------------

 SCF Done:  E(RHF) =  -283.782735324     A.U. after    2 cycles

 The electronic state is 1-A.
 Alpha  occ. eigenvalues --  -20.47947 -15.63096 -11.37067 -11.33776 -11.32691
 Alpha  occ. eigenvalues --  -11.29873  -1.39289  -1.30641  -1.11709  -0.97430
 Alpha  occ. eigenvalues --   -0.81836  -0.76668  -0.70683  -0.67033  -0.63692
 Alpha  occ. eigenvalues --   -0.61743  -0.59602  -0.56471  -0.54063  -0.53087
 Alpha  occ. eigenvalues --   -0.37574  -0.34201
 Alpha virt. eigenvalues --   -0.04776   0.03169   0.03923   0.04140   0.05740
 Alpha virt. eigenvalues --    0.06035   0.07035   0.08504   0.10901   0.11410
 Alpha virt. eigenvalues --    0.11631   0.13441   0.14353   0.14522   0.15031

 Mulliken charges:
               1
     1  N    0.811471
     2  C   -0.976231
     3  C   -0.158465
     4  C    1.274466
     5  C   -0.397697
     6  O   -1.374851
     7  H    0.138454
     8  H    0.253371
     9  H    0.179524
    10  H    0.104014
    11  H    0.145946
 Sum of Mulliken charges =   0.00000

 Dipole moment (field-independent basis, Debye):
    X=             -1.9249    Y=              0.8972    Z=              0.8122  Tot=              2.2737

 Test job not archived.
 1\1\GINC-SE023\SP\RHF\Aug-CC-pVDZ\C4H5N1O1\OHZDE\09-Apr-2025\0\\#t hf
 aug-cc-pvdz iop(5/13=1,5/36=2,99/5=2) pseudo=read geom=check guess=(re
 ad,tcheck) scf=(maxcycle=1)\\title\\0,1\N,0,1.91497446,1.26242748,-0.2
 3010284\C,0,1.0691761,0.37969891,-0.17665616\C,0,0.5974473,-1.0493253,
 -0.10907199\C,0,-0.80002956,-0.50828984,0.4203522\C,0,-0.36205515,1.06
 659878,-0.11022229\O,0,-1.90960973,-0.7884939,-0.14848688\H,0,1.171561
 87,-1.74998529,0.50988207\H,0,0.48234662,-1.44345503,-1.12848644\H,0,-
 0.76347221,-0.40235665,1.53141627\H,0,-0.53183262,1.89174386,0.5869160

 Normal termination of Gaussian 16 at Wed Apr  9 03:09:47 2025.
