 Gaussian 16, Revision C.01,

 ----------------------------------------------------------------------
 #t hf aug-cc-pvdz symm=none int=(grid=ultrafine) guess=(read,tcheck) s
 table=(opt,rrhf)
 ----------------------------------------------------------------------
 -----
 title
 -----
 Symbolic Z-matrix:
 Charge =  0 Multiplicity = 1

 SCF Done:  E(RHF) =  -266.635183191     A.U. after   15 cycles
 Normal termination of Gaussian 16 at Wed Apr  9 03:05:14 2025.
 Gaussian 16:  ES64L-G16RevC.01  3-Jul-2019

 ----------------------------------------------------------------------
 #t hf aug-cc-pvdz iop(5/13=1,5/36=2,99/5=2) pseudo=read geom=check gue
 ss=(read,tcheck) scf=(maxcycle=1)
 ----------------------------------------------------------------------
 -----
 title
 -----
 Structure from the checkpoint file:  "Grambow2020_b97d3_006474_forward_mol1.chk"
 Charge =  0 Multiplicity = 1

                         Standard orientation:
 ---------------------------------------------------------------------
 Center     Atomic      Atomic             Coordinates (Angstroms)
 Number     Number       Type             X           Y           Z
 ---------------------------------------------------------------------
      1          8           0       -2.065037   -0.396799   -0.309774
      2          6           0       -0.758029    0.866254    0.331122
      3          6           0        0.283168    0.033335   -0.183459
      4          6           0        1.702884    0.178092   -0.487610
      5          8           0        1.267767   -0.608717    0.644772
      6          1           0       -2.257818   -1.006574    0.440041
      7          1           0       -1.161085    1.680788   -0.266897
      8          1           0       -1.031596    0.857095    1.389273
      9          1           0       -0.905603   -0.668022   -0.650486
     10          1           0        2.236911    1.098253   -0.226611
     11          1           0        2.129214   -0.383496   -1.325620
 ---------------------------------------------------------------------

 SCF Done:  E(RHF) =  -266.908274096     A.U. after    2 cycles

 The electronic state is 1-A.
 Alpha  occ. eigenvalues --  -20.55296 -20.54913 -11.35476 -11.30090 -11.27101
 Alpha  occ. eigenvalues --   -1.47631  -1.40185  -1.03863  -0.91897  -0.80426
 Alpha  occ. eigenvalues --   -0.70874  -0.68351  -0.66509  -0.62137  -0.55856
 Alpha  occ. eigenvalues --   -0.53884  -0.49062  -0.46204  -0.44806  -0.33361
 Alpha virt. eigenvalues --    0.03052   0.03853   0.04763   0.04846   0.06274
 Alpha virt. eigenvalues --    0.07802   0.09126   0.09950   0.11279   0.12170
 Alpha virt. eigenvalues --    0.14065   0.14711   0.15670   0.16647   0.17201

 Mulliken charges:
               1
     1  O   -1.038933
     2  C   -0.061208
     3  C    0.575858
     4  C    0.422420
     5  O   -1.210123
     6  H    0.382996
     7  H    0.068998
     8  H    0.044312
     9  H    0.769292
    10  H    0.009924
    11  H    0.036465
 Sum of Mulliken charges =   0.00000

 Dipole moment (field-independent basis, Debye):
    X=             -0.1918    Y=              2.2054    Z=              0.5752  Tot=              2.2872

 Test job not archived.
 1\1\GINC-SE116\SP\RHF\Aug-CC-pVDZ\C3H6O2\OHZDE\09-Apr-2025\0\\#t hf au
 g-cc-pvdz iop(5/13=1,5/36=2,99/5=2) pseudo=read geom=check guess=(read
 ,tcheck) scf=(maxcycle=1)\\title\\0,1\O,0,-0.8454775,1.19941918,-1.504
 41823\C,0,-0.77932449,0.64476188,0.34011429\C,0,0.31756898,-0.21743379
 ,0.03014547\C,0,1.34598698,-0.93381923,0.77727629\O,0,0.25877706,-1.64
 93598,0.14746781\H,0,-1.50227398,0.61531687,-1.95012431\H,0,-0.6031567
 1,1.65544981,0.70208468\H,0,-1.80061515,0.2660529,0.43040794\H,0,0.113
 0325,0.45964396,-1.2437934\H,0,1.32931665,-0.94897758,1.87249071\H,0,2

 Normal termination of Gaussian 16 at Wed Apr  9 03:05:17 2025.
