 Gaussian 16, Revision C.01,

 ----------------------------------------------------------------------
 #t hf aug-cc-pvdz symm=none int=(grid=ultrafine) guess=(read,tcheck) s
 table=(opt,rrhf)
 ----------------------------------------------------------------------
 -----
 title
 -----
 Symbolic Z-matrix:
 Charge =  0 Multiplicity = 1

 SCF Done:  E(RHF) =  -375.546639574     A.U. after   17 cycles
 Normal termination of Gaussian 16 at Wed Apr  9 03:47:02 2025.
 Gaussian 16:  ES64L-G16RevC.01  3-Jul-2019

 ----------------------------------------------------------------------
 #t hf aug-cc-pvdz iop(5/13=1,5/36=2,99/5=2) pseudo=read geom=check gue
 ss=(read,tcheck) scf=(maxcycle=1)
 ----------------------------------------------------------------------
 -----
 title
 -----
 Structure from the checkpoint file:  "Grambow2020_wb97xd3_007917_reverse_mol1.chk"
 Charge =  0 Multiplicity = 1

                         Standard orientation:
 ---------------------------------------------------------------------
 Center     Atomic      Atomic             Coordinates (Angstroms)
 Number     Number       Type             X           Y           Z
 ---------------------------------------------------------------------
      1          6           0        2.697328   -0.100411   -0.084494
      2          8           0        1.416606   -0.661255   -0.297831
      3          6           0        0.351933   -0.025252    0.276657
      4          7           0        0.103879    1.349854    0.104800
      5          7           0       -0.764840   -0.748680    0.376769
      6          6           0       -1.786465   -0.069889   -0.172889
      7          8           0       -2.967496   -0.115013   -0.136238
      8          1           0        3.415346   -0.829559   -0.451156
      9          1           0        2.878185    0.077181    0.981757
     10          1           0        2.840590    0.834167   -0.636403
     11          1           0        0.884291    1.799977   -0.390577
     12          1           0        0.656582    0.495090    1.316506
     13          1           0       -1.217918    0.798384   -0.834191
 ---------------------------------------------------------------------

 SCF Done:  E(RHF) =  -375.919142269     A.U. after    2 cycles

 The electronic state is 1-A.
 Alpha  occ. eigenvalues --  -20.60879 -20.53780 -15.63995 -15.50112 -11.41266
 Alpha  occ. eigenvalues --  -11.37045 -11.33139  -1.54710  -1.48789  -1.32257
 Alpha  occ. eigenvalues --   -1.20636  -1.01126  -0.92018  -0.82861  -0.77894
 Alpha  occ. eigenvalues --   -0.76861  -0.71621  -0.66609  -0.65602  -0.62583
 Alpha  occ. eigenvalues --   -0.59273  -0.57908  -0.54073  -0.50604  -0.49696
 Alpha  occ. eigenvalues --   -0.42034  -0.40245
 Alpha virt. eigenvalues --   -0.04529   0.01898   0.03257   0.03587   0.05042
 Alpha virt. eigenvalues --    0.06377   0.06988   0.09329   0.10461   0.11162
 Alpha virt. eigenvalues --    0.12163   0.12590   0.13106   0.14779   0.15035

 Mulliken charges:
               1
     1  C    0.087006
     2  O   -1.450160
     3  C   -0.611231
     4  N    0.147793
     5  N    0.774965
     6  C    0.621887
     7  O   -1.081795
     8  H   -0.025463
     9  H    0.197113
    10  H    0.173755
    11  H    0.244791
    12  H    0.546685
    13  H    0.374654
 Sum of Mulliken charges =  -0.00000

 Dipole moment (field-independent basis, Debye):
    X=              7.0736    Y=              3.2510    Z=             -0.1730  Tot=              7.7869

 Test job not archived.
 1\1\GINC-SE083\SP\RHF\Aug-CC-pVDZ\C3H6N2O2\OHZDE\09-Apr-2025\0\\#t hf
 aug-cc-pvdz iop(5/13=1,5/36=2,99/5=2) pseudo=read geom=check guess=(re
 ad,tcheck) scf=(maxcycle=1)\\title\\0,1\C,0,-1.75922316,-0.18061574,-0
 .91795964\O,0,-1.18130844,0.12468867,0.33627818\C,0,0.10756202,-0.2790
 5323,0.54572775\N,0,1.15491523,0.02722513,-0.34378257\N,0,0.49924806,-
 0.31499276,1.82081265\C,0,1.63273731,0.39400168,1.95911632\O,0,2.50005
 355,0.48174318,2.75803954\H,0,-2.81847341,0.04724811,-0.83012359\H,0,-
 1.63904666,-1.24268458,-1.16025581\H,0,-1.34097241,0.42501733,-1.72841

 Normal termination of Gaussian 16 at Wed Apr  9 03:47:07 2025.
