 Gaussian 16, Revision C.01,

 ----------------------------------------------------------------------
 #t hf aug-cc-pvdz symm=none int=(grid=ultrafine) guess=(read,tcheck) s
 table=(opt,rrhf)
 ----------------------------------------------------------------------
 -----
 title
 -----
 Symbolic Z-matrix:
 Charge =  0 Multiplicity = 1

 SCF Done:  E(RHF) =  -340.438189073     A.U. after   16 cycles
 Normal termination of Gaussian 16 at Wed Apr  9 03:20:26 2025.
 Gaussian 16:  ES64L-G16RevC.01  3-Jul-2019

 ----------------------------------------------------------------------
 #t hf aug-cc-pvdz iop(5/13=1,5/36=2,99/5=2) pseudo=read geom=check gue
 ss=(read,tcheck) scf=(maxcycle=1)
 ----------------------------------------------------------------------
 -----
 title
 -----
 Structure from the checkpoint file:  "Grambow2020_wb97xd3_006042_reverse_mol1.chk"
 Charge =  0 Multiplicity = 1

                         Standard orientation:
 ---------------------------------------------------------------------
 Center     Atomic      Atomic             Coordinates (Angstroms)
 Number     Number       Type             X           Y           Z
 ---------------------------------------------------------------------
      1          8           0       -2.020907   -0.473582   -0.033282
      2          6           0       -0.993377    0.114802    0.005483
      3          8           0        0.249620   -0.837171   -0.353110
      4          6           0        1.391588   -0.626989    0.461613
      5          6           0        1.562596    0.586894   -0.307541
      6          8           0       -0.531600    1.238270    0.197502
      7          1           0        1.169429   -0.490846    1.518761
      8          1           0        2.117839   -1.420276    0.292434
      9          1           0        1.541437    1.586732    0.090622
     10          1           0        1.829562    0.456013   -1.348025
 ---------------------------------------------------------------------

 SCF Done:  E(RHF) =  -340.774636102     A.U. after    2 cycles

 The electronic state is 1-A.
 Alpha  occ. eigenvalues --  -20.58883 -20.52634 -20.51569 -11.41565 -11.41422
 Alpha  occ. eigenvalues --  -11.34722  -1.53550  -1.45602  -1.43444  -1.08349
 Alpha  occ. eigenvalues --   -0.91554  -0.78730  -0.75135  -0.71673  -0.66283
 Alpha  occ. eigenvalues --   -0.65030  -0.63348  -0.60371  -0.56624  -0.50132
 Alpha  occ. eigenvalues --   -0.44076  -0.42869  -0.41655
 Alpha virt. eigenvalues --    0.00035   0.02726   0.03266   0.04240   0.05829
 Alpha virt. eigenvalues --    0.08845   0.10321   0.10894   0.11654   0.12441
 Alpha virt. eigenvalues --    0.12970   0.14245   0.15052   0.15601   0.17089

 Mulliken charges:
               1
     1  O   -1.031345
     2  C    1.996615
     3  O   -1.203250
     4  C    0.603151
     5  C    0.332995
     6  O   -1.014934
     7  H    0.085675
     8  H    0.089578
     9  H    0.098722
    10  H    0.042793
 Sum of Mulliken charges =  -0.00000

 Dipole moment (field-independent basis, Debye):
    X=              8.0278    Y=              0.5092    Z=              0.0931  Tot=              8.0445

 Test job not archived.
 1\1\GINC-SE045\SP\RHF\Aug-CC-pVDZ\C3H4O3\OHZDE\09-Apr-2025\0\\#t hf au
 g-cc-pvdz iop(5/13=1,5/36=2,99/5=2) pseudo=read geom=check guess=(read
 ,tcheck) scf=(maxcycle=1)\\title\\0,1\O,0,2.66992434,0.37448096,-0.107
 92051\C,0,1.62007383,-0.13084229,0.10650502\O,0,0.43577325,0.59636401,
 -0.69878054\C,0,-0.75612013,0.76197439,0.0522219\C,0,-0.93119945,-0.66
 0766,-0.14655475\O,0,1.10591336,-1.06367992,0.72111286\H,0,-0.59730472
 ,1.08073499,1.08111483\H,0,-1.44121572,1.41887955,-0.48115013\H,0,-0.9
 7001215,-1.4003857,0.63454246\H,0,-1.1358336,-0.97676099,-1.16108913\\

 Normal termination of Gaussian 16 at Wed Apr  9 03:20:30 2025.
