 Gaussian 16, Revision C.01,

 ----------------------------------------------------------------------
 #t hf aug-cc-pvdz symm=none int=(grid=ultrafine) guess=(read,tcheck) s
 table=(opt,rrhf)
 ----------------------------------------------------------------------
 -----
 title
 -----
 Symbolic Z-matrix:
 Charge =  0 Multiplicity = 1

 SCF Done:  E(RHF) =  -322.610798945     A.U. after   16 cycles
 Normal termination of Gaussian 16 at Wed Apr  9 03:39:31 2025.
 Gaussian 16:  ES64L-G16RevC.01  3-Jul-2019

 ----------------------------------------------------------------------
 #t hf aug-cc-pvdz iop(5/13=1,5/36=2,99/5=2) pseudo=read geom=check gue
 ss=(read,tcheck) scf=(maxcycle=1)
 ----------------------------------------------------------------------
 -----
 title
 -----
 Structure from the checkpoint file:  "Grambow2020_wb97xd3_007392_reverse_mol2.chk"
 Charge =  0 Multiplicity = 1

                         Standard orientation:
 ---------------------------------------------------------------------
 Center     Atomic      Atomic             Coordinates (Angstroms)
 Number     Number       Type             X           Y           Z
 ---------------------------------------------------------------------
      1          6           0        2.100156   -0.127485   -0.528037
      2          6           0        0.602052    1.150663   -0.001024
      3          6           0       -0.905107    1.188437    0.214232
      4          8           0       -1.574149    0.097420   -0.397557
      5          6           0       -1.042317   -1.107177   -0.099567
      6          7           0        0.105491   -1.350520    0.350043
      7          6           0        1.082161   -0.293629    0.477193
      8          1           0        1.704795   -0.601454   -1.446242
      9          1           0        0.816861    1.349857   -1.060385
     10          1           0        1.095483    1.921631    0.583322
     11          1           0       -1.337595    2.089479   -0.216965
     12          1           0       -1.117418    1.170838    1.288447
     13          1           0       -1.748289   -1.907229   -0.305149
     14          1           0        1.419254   -0.213701    1.510337
 ---------------------------------------------------------------------

 SCF Done:  E(RHF) =  -322.938879821     A.U. after    2 cycles

 The electronic state is 1-A.
 Alpha  occ. eigenvalues --  -20.59620 -15.49742 -11.35078 -11.31984 -11.28606
 Alpha  occ. eigenvalues --  -11.27522 -11.26589  -1.53373  -1.24635  -1.11999
 Alpha  occ. eigenvalues --   -0.99999  -0.92003  -0.82943  -0.77914  -0.73417
 Alpha  occ. eigenvalues --   -0.71610  -0.66475  -0.62372  -0.59721  -0.59288
 Alpha  occ. eigenvalues --   -0.55310  -0.52475  -0.50879  -0.45048  -0.42615
 Alpha  occ. eigenvalues --   -0.36612
 Alpha virt. eigenvalues --    0.03134   0.03835   0.04021   0.04959   0.05591
 Alpha virt. eigenvalues --    0.06253   0.07012   0.08500   0.09727   0.10697
 Alpha virt. eigenvalues --    0.11955   0.12868   0.13399   0.13942   0.14663

 Mulliken charges:
               1
     1  C   -0.215362
     2  C   -0.461587
     3  C    0.637286
     4  O   -1.214045
     5  C    0.298083
     6  N    0.873757
     7  C   -0.700944
     8  H    0.170257
     9  H    0.228762
    10  H    0.150653
    11  H    0.012008
    12  H    0.209479
    13  H   -0.043632
    14  H    0.055284
 Sum of Mulliken charges =  -0.00000

 Dipole moment (field-independent basis, Debye):
    X=             -2.6869    Y=              1.9764    Z=              0.2901  Tot=              3.3481

 Test job not archived.
 1\1\GINC-SE393\SP\RHF\Aug-CC-pVDZ\C5H7N1O1\OHZDE\09-Apr-2025\0\\#t hf
 aug-cc-pvdz iop(5/13=1,5/36=2,99/5=2) pseudo=read geom=check guess=(re
 ad,tcheck) scf=(maxcycle=1)\\title\\0,1\C,0,-1.60453861,-1.35045876,0.
 0481452\C,0,-0.83745484,0.5031089,-0.31460945\C,0,0.42792273,1.3251204
 4,-0.10868371\O,0,1.2776844,0.78329174,0.88958835\C,0,1.53903803,-0.53
 169498,0.73083739\N,0,0.89451668,-1.36633182,0.04760962\C,0,-0.3553718
 1,-0.99527862,-0.57461969\H,0,-1.38036911,-1.50162692,1.1209698\H,0,-1
 .47778358,0.60434871,0.57297061\H,0,-1.40115165,0.86835659,-1.16793633

 Normal termination of Gaussian 16 at Wed Apr  9 03:39:35 2025.
