 Gaussian 16, Revision C.01,

 ----------------------------------------------------------------------
 #t hf aug-cc-pvdz symm=none int=(grid=ultrafine) guess=(read,tcheck) s
 table=(opt,rrhf)
 ----------------------------------------------------------------------
 -----
 title
 -----
 Symbolic Z-matrix:
 Charge =  0 Multiplicity = 1

 SCF Done:  E(RHF) =  -323.681931979     A.U. after   16 cycles
 Normal termination of Gaussian 16 at Wed Apr  9 17:47:47 2025.
 Gaussian 16:  ES64L-G16RevC.01  3-Jul-2019

 ----------------------------------------------------------------------
 #t hf aug-cc-pvdz iop(5/13=1,5/36=2,99/5=2) pseudo=read geom=check gue
 ss=(read,tcheck) scf=(maxcycle=1)
 ----------------------------------------------------------------------
 -----
 title
 -----
 Structure from the checkpoint file:  "Grambow2020_wb97xd3_006823_forward_mol1.chk"
 Charge =  0 Multiplicity = 1

                         Standard orientation:
 ---------------------------------------------------------------------
 Center     Atomic      Atomic             Coordinates (Angstroms)
 Number     Number       Type             X           Y           Z
 ---------------------------------------------------------------------
      1          6           0       -2.162720   -1.473848    0.224574
      2          6           0       -0.981089    0.304362   -0.714704
      3          6           0       -1.078577    1.469557    0.251410
      4          6           0        0.471151    1.522962    0.083499
      5          6           0        0.377087    0.050987   -0.308002
      6          7           0        1.125197   -0.962174   -0.177210
      7          8           0        2.415406   -0.581576    0.192894
      8          1           0       -2.744864   -0.928733    0.961636
      9          1           0       -1.256838   -1.903039    0.639062
     10          1           0       -2.766149   -2.229237   -0.278889
     11          1           0       -1.918596   -0.763362   -0.679710
     12          1           0       -1.688269    2.309992   -0.076821
     13          1           0       -1.306083    1.220105    1.289525
     14          1           0        1.040379    1.679339    0.998589
     15          1           0        0.830094    2.182016   -0.701985
     16          1           0        2.855580   -1.423379    0.325258
 ---------------------------------------------------------------------

 SCF Done:  E(RHF) =  -324.017828027     A.U. after    2 cycles

 The electronic state is 1-A.
 Alpha  occ. eigenvalues --  -20.57911 -15.54833 -11.28327 -11.27694 -11.26028
 Alpha  occ. eigenvalues --  -11.25839 -11.25598  -1.49729  -1.20902  -1.11892
 Alpha  occ. eigenvalues --   -0.98569  -0.88870  -0.87027  -0.72669  -0.70513
 Alpha  occ. eigenvalues --   -0.67554  -0.65227  -0.59892  -0.59116  -0.58938
 Alpha  occ. eigenvalues --   -0.55138  -0.54604  -0.53234  -0.50519  -0.45759
 Alpha  occ. eigenvalues --   -0.42390  -0.33213
 Alpha virt. eigenvalues --    0.03491   0.03788   0.04084   0.04420   0.05634
 Alpha virt. eigenvalues --    0.05829   0.06777   0.07326   0.07787   0.08798
 Alpha virt. eigenvalues --    0.11211   0.12318   0.13464   0.13947   0.14394

 Mulliken charges:
               1
     1  C   -0.585045
     2  C   -0.231292
     3  C   -0.015212
     4  C    0.041361
     5  C   -1.143281
     6  N    1.633098
     7  O   -1.155749
     8  H    0.163067
     9  H    0.209278
    10  H    0.051130
    11  H    0.472192
    12  H    0.028429
    13  H    0.050013
    14  H    0.104618
    15  H    0.070790
    16  H    0.306603
 Sum of Mulliken charges =  -0.00000

 Dipole moment (field-independent basis, Debye):
    X=             -1.2811    Y=              0.5586    Z=              2.0906  Tot=              2.5147

 Test job not archived.
 1\1\GINC-SE103\SP\RHF\Aug-CC-pVDZ\C5H9N1O1\OHZDE\09-Apr-2025\0\\#t hf
 aug-cc-pvdz iop(5/13=1,5/36=2,99/5=2) pseudo=read geom=check guess=(re
 ad,tcheck) scf=(maxcycle=1)\\title\\0,1\C,0,-1.6915185,-1.55545262,-0.
 29075971\C,0,-0.21082402,0.08862467,-1.02905503\C,0,-0.63557975,1.3966
 6292,-0.38938452\C,0,0.86699208,1.49365146,0.01752418\C,0,0.89504117,-
 0.02649658,-0.11360008\N,0,1.52118255,-0.96553015,0.46036266\O,0,2.590
 15915,-0.46635279,1.20506539\H,0,-2.49406212,-0.91986991,0.07153808\H,
 0,-1.01213803,-1.86363002,0.49670324\H,0,-2.08077602,-2.41385547,-0.83

 Normal termination of Gaussian 16 at Wed Apr  9 17:47:53 2025.
