 Gaussian 16, Revision C.01,

 ----------------------------------------------------------------------
 #t hf aug-cc-pvdz symm=none int=(grid=ultrafine) guess=(read,tcheck) s
 table=(opt,rrhf)
 ----------------------------------------------------------------------
 -----
 title
 -----
 Symbolic Z-matrix:
 Charge =  0 Multiplicity = 1

 SCF Done:  E(RHF) =  -268.670670826     A.U. after   17 cycles
 Normal termination of Gaussian 16 at Wed Apr  9 17:08:21 2025.
 Gaussian 16:  ES64L-G16RevC.01  3-Jul-2019

 ----------------------------------------------------------------------
 #t hf aug-cc-pvdz iop(5/13=1,5/36=2,99/5=2) pseudo=read geom=check gue
 ss=(read,tcheck) scf=(maxcycle=1)
 ----------------------------------------------------------------------
 -----
 title
 -----
 Structure from the checkpoint file:  "Grambow2020_wb97xd3_006253_forward_mol1.chk"
 Charge =  0 Multiplicity = 1

                         Standard orientation:
 ---------------------------------------------------------------------
 Center     Atomic      Atomic             Coordinates (Angstroms)
 Number     Number       Type             X           Y           Z
 ---------------------------------------------------------------------
      1          6           0        1.337863    1.263275    0.089968
      2          6           0        1.362018   -0.020156   -0.414859
      3          6           0        0.898828   -1.234777    0.454025
      4          6           0       -0.147892   -0.632591   -0.330016
      5          6           0       -1.150298    0.384033    0.254645
      6          8           0       -2.321422    0.067587   -0.163965
      7          1           0        1.003725    1.471302    1.097589
      8          1           0        1.809212    2.078406   -0.445906
      9          1           0       -0.712150    1.427119   -0.090451
     10          1           0        1.869343   -0.216450   -1.348588
     11          1           0        0.920865   -1.016433    1.515820
     12          1           0        1.324048   -2.190504    0.169538
     13          1           0       -0.438609   -1.071525   -1.277640
     14          1           0       -1.008168    0.418685    1.368780
 ---------------------------------------------------------------------

 SCF Done:  E(RHF) =  -268.951747994     A.U. after    2 cycles

 The electronic state is 1-A.
 Alpha  occ. eigenvalues --  -20.40762 -11.36839 -11.30161 -11.30115 -11.29936
 Alpha  occ. eigenvalues --  -11.26761  -1.32978  -1.21460  -1.04497  -0.90940
 Alpha  occ. eigenvalues --   -0.85663  -0.78980  -0.73632  -0.68454  -0.66313
 Alpha  occ. eigenvalues --   -0.60935  -0.58692  -0.54852  -0.52916  -0.49479
 Alpha  occ. eigenvalues --   -0.45004  -0.31502  -0.29535
 Alpha virt. eigenvalues --   -0.00788   0.01784   0.02483   0.03092   0.05145
 Alpha virt. eigenvalues --    0.05389   0.06068   0.07205   0.07714   0.10088
 Alpha virt. eigenvalues --    0.11536   0.12451   0.12800   0.13340   0.13940

 Mulliken charges:
               1
     1  C   -0.165267
     2  C    0.393135
     3  C    0.378700
     4  C    0.315587
     5  C    0.542472
     6  O   -1.361985
     7  H    0.081379
     8  H   -0.040339
     9  H    0.230366
    10  H   -0.148715
    11  H   -0.057692
    12  H   -0.084695
    13  H   -0.158696
    14  H    0.075750
 Sum of Mulliken charges =  -0.00000

 Dipole moment (field-independent basis, Debye):
    X=              9.3814    Y=              0.2998    Z=              0.4131  Tot=              9.3953

 Test job not archived.
 1\1\GINC-SE226\SP\RHF\Aug-CC-pVDZ\C5H8O1\OHZDE\09-Apr-2025\0\\#t hf au
 g-cc-pvdz iop(5/13=1,5/36=2,99/5=2) pseudo=read geom=check guess=(read
 ,tcheck) scf=(maxcycle=1)\\title\\0,1\C,0,-1.33692785,-0.695226,-0.263
 43376\C,0,-0.82533876,0.57012539,-0.46291051\C,0,-0.05416552,1.3143053
 7,0.67563992\C,0,0.78220238,0.52204599,-0.18794904\C,0,1.26119028,-0.8
 9648037,0.18423472\O,0,2.50745077,-0.98111605,-0.11000432\H,0,-1.22615
 43,-1.21046254,0.6812798\H,0,-2.00804923,-1.1419677,-0.98716543\H,0,0.
 51376406,-1.59907543,-0.40466859\H,0,-1.10890765,1.12710779,-1.3444547

 Normal termination of Gaussian 16 at Wed Apr  9 17:08:25 2025.
