 Gaussian 16, Revision C.01,

 ----------------------------------------------------------------------
 #t hf aug-cc-pvdz symm=none int=(grid=ultrafine) guess=(read,tcheck) s
 table=(opt,rrhf)
 ----------------------------------------------------------------------
 -----
 title
 -----
 Symbolic Z-matrix:
 Charge =  0 Multiplicity = 1

 SCF Done:  E(RHF) =  -338.598093023     A.U. after   16 cycles
 Normal termination of Gaussian 16 at Wed Apr  9 19:01:43 2025.
 Gaussian 16:  ES64L-G16RevC.01  3-Jul-2019

 ----------------------------------------------------------------------
 #t hf aug-cc-pvdz iop(5/13=1,5/36=2,99/5=2) pseudo=read geom=check gue
 ss=(read,tcheck) scf=(maxcycle=1)
 ----------------------------------------------------------------------
 -----
 title
 -----
 Structure from the checkpoint file:  "Grambow2020_wb97xd3_008478_reverse_mol1.chk"
 Charge =  0 Multiplicity = 1

                         Standard orientation:
 ---------------------------------------------------------------------
 Center     Atomic      Atomic             Coordinates (Angstroms)
 Number     Number       Type             X           Y           Z
 ---------------------------------------------------------------------
      1          7           0       -0.689480    1.927293   -0.164387
      2          6           0       -0.206435    0.725325    0.123865
      3          6           0        0.849883   -0.140452    0.122097
      4          8           0        2.167235    0.209886   -0.072959
      5          6           0        0.302793   -1.464835   -0.102627
      6          6           0       -1.041335   -1.441055   -0.139502
      7          7           0       -1.437282   -0.070930    0.151249
      8          1           0       -1.755492    1.010807   -0.402314
      9          1           0       -0.064620    2.700072   -0.322276
     10          1           0        2.641758    0.125470    0.755511
     11          1           0        0.909720   -2.345551   -0.265636
     12          1           0       -1.774476   -2.226500   -0.198898
     13          1           0       -1.836875   -0.011828    1.086260
 ---------------------------------------------------------------------

 SCF Done:  E(RHF) =  -338.944891219     A.U. after    2 cycles

 The electronic state is 1-A.
 Alpha  occ. eigenvalues --  -20.56077 -15.57437 -15.46297 -11.31579 -11.26555
 Alpha  occ. eigenvalues --  -11.26292 -11.26232  -1.46597  -1.32735  -1.16310
 Alpha  occ. eigenvalues --   -1.07140  -0.96375  -0.84160  -0.81434  -0.74913
 Alpha  occ. eigenvalues --   -0.73334  -0.65328  -0.64328  -0.62057  -0.59542
 Alpha  occ. eigenvalues --   -0.58897  -0.50777  -0.48167  -0.45958  -0.42266
 Alpha  occ. eigenvalues --   -0.27578
 Alpha virt. eigenvalues --    0.03068   0.03893   0.04246   0.05438   0.05713
 Alpha virt. eigenvalues --    0.06795   0.09795   0.10728   0.11267   0.11936
 Alpha virt. eigenvalues --    0.12738   0.13728   0.14490   0.14845   0.15337

 Mulliken charges:
               1
     1  N    0.608031
     2  C   -2.249848
     3  C    2.018044
     4  O   -1.580639
     5  C    0.579548
     6  C   -0.589501
     7  N    0.398336
     8  H    0.606669
     9  H    0.034813
    10  H    0.160336
    11  H   -0.116083
    12  H   -0.209827
    13  H    0.340120
 Sum of Mulliken charges =  -0.00000

 Dipole moment (field-independent basis, Debye):
    X=             -0.7220    Y=             -2.1339    Z=              1.9242  Tot=              2.9626

 Test job not archived.
 1\1\GINC-SE340\SP\RHF\Aug-CC-pVDZ\C4H6N2O1\OHZDE\09-Apr-2025\0\\#t hf
 aug-cc-pvdz iop(5/13=1,5/36=2,99/5=2) pseudo=read geom=check guess=(re
 ad,tcheck) scf=(maxcycle=1)\\title\\0,1\N,0,1.92672453,0.78071881,-0.0
 9594085\C,0,0.76181088,0.19235087,0.14478588\C,0,0.03576971,-0.9589342
 ,0.25786569\O,0,0.56316892,-2.22557662,0.37477251\C,0,-1.29933982,-0.6
 585095,-0.22278793\C,0,-1.42962679,0.64476305,-0.52793202\N,0,-0.17023
 715,1.27991387,-0.16866445\H,0,0.93313297,1.64161409,-0.64782283\H,0,2
 .78237064,0.25470686,-0.03473294\H,0,0.42017832,-2.54536237,1.26693379

 Normal termination of Gaussian 16 at Wed Apr  9 19:01:47 2025.
