 Gaussian 16, Revision C.01,

 ----------------------------------------------------------------------
 #t hf aug-cc-pvdz symm=none int=(grid=ultrafine) guess=(read,tcheck) s
 table=(opt,rrhf)
 ----------------------------------------------------------------------
 -----
 title
 -----
 Symbolic Z-matrix:
 Charge =  0 Multiplicity = 1

 SCF Done:  E(RHF) =  -341.260976114     A.U. after   19 cycles
 Normal termination of Gaussian 16 at Wed Apr  9 19:17:45 2025.
 Gaussian 16:  ES64L-G16RevC.01  3-Jul-2019

 ----------------------------------------------------------------------
 #t hf aug-cc-pvdz iop(5/13=1,5/36=2,99/5=2) pseudo=read geom=check gue
 ss=(read,tcheck) scf=(maxcycle=1)
 ----------------------------------------------------------------------
 -----
 title
 -----
 Structure from the checkpoint file:  "Grambow2020_wb97xd3_009087_forward_mol1.chk"
 Charge =  0 Multiplicity = 1

                         Standard orientation:
 ---------------------------------------------------------------------
 Center     Atomic      Atomic             Coordinates (Angstroms)
 Number     Number       Type             X           Y           Z
 ---------------------------------------------------------------------
      1          8           0       -1.833417   -0.981296   -0.100885
      2          6           0       -0.664107   -0.680269    0.172892
      3          6           0        0.580956   -1.359231   -0.088699
      4          6           0        1.699562   -0.468391   -0.055961
      5          6           0        1.319722    0.827803   -0.030114
      6          6           0       -0.145785    0.925869    0.031546
      7          8           0       -0.889053    1.837686   -0.071551
      8          1           0       -0.282274   -0.772880    1.297065
      9          1           0        0.641347   -2.419666   -0.301304
     10          1           0        2.725232   -0.807464    0.004734
     11          1           0        1.953365    1.674194    0.201009
 ---------------------------------------------------------------------

 SCF Done:  E(RHF) =  -341.598850609     A.U. after    2 cycles

 The electronic state is 1-A.
 Alpha  occ. eigenvalues --  -20.58477 -20.46178 -11.37386 -11.35831 -11.33359
 Alpha  occ. eigenvalues --  -11.31977 -11.31743  -1.52199  -1.40347  -1.21342
 Alpha  occ. eigenvalues --   -1.03381  -0.95732  -0.81366  -0.78871  -0.73801
 Alpha  occ. eigenvalues --   -0.67593  -0.65231  -0.64267  -0.62970  -0.58344
 Alpha  occ. eigenvalues --   -0.56001  -0.47706  -0.47091  -0.35988  -0.34181
 Alpha virt. eigenvalues --   -0.03507   0.01490   0.02804   0.04041   0.04638
 Alpha virt. eigenvalues --    0.08647   0.08811   0.09451   0.11048   0.11469
 Alpha virt. eigenvalues --    0.12616   0.12968   0.13367   0.14083   0.14921

 Mulliken charges:
               1
     1  O   -1.382295
     2  C    0.540864
     3  C    0.056863
     4  C    0.360837
     5  C    0.375874
     6  C    0.865418
     7  O   -1.205767
     8  H    0.630897
     9  H   -0.081636
    10  H   -0.087536
    11  H   -0.073519
 Sum of Mulliken charges =   0.00000

 Dipole moment (field-independent basis, Debye):
    X=              7.9895    Y=             -1.2102    Z=              0.9513  Tot=              8.1365

 Test job not archived.
 1\1\GINC-SE084\SP\RHF\Aug-CC-pVDZ\C5H4O2\OHZDE\09-Apr-2025\0\\#t hf au
 g-cc-pvdz iop(5/13=1,5/36=2,99/5=2) pseudo=read geom=check guess=(read
 ,tcheck) scf=(maxcycle=1)\\title\\0,1\O,0,-0.85190602,2.25262262,-0.36
 425195\C,0,-0.56065424,1.09260746,-0.04425827\C,0,-1.02217231,-0.17852
 892,-0.54507206\C,0,-0.10119797,-1.23644235,-0.26476358\C,0,1.08680866
 ,-0.77433066,0.18262701\C,0,1.04420395,0.68905234,0.3161384\O,0,1.8803
 6338,1.4949738,0.5301851\H,0,-0.97144547,0.64593969,0.9803764\H,0,-1.9
 5372479,-0.29688447,-1.08504742\H,0,-0.35986181,-2.2839185,-0.34563518

 Normal termination of Gaussian 16 at Wed Apr  9 19:17:49 2025.
