 Gaussian 16, Revision C.01,

 ----------------------------------------------------------------------
 #t hf aug-cc-pvdz symm=none int=(grid=ultrafine) guess=(read,tcheck) s
 table=(opt,rrhf)
 ----------------------------------------------------------------------
 -----
 title
 -----
 Symbolic Z-matrix:
 Charge =  0 Multiplicity = 1

 SCF Done:  E(RHF) =  -301.494876468     A.U. after   16 cycles
 Normal termination of Gaussian 16 at Wed Apr  9 18:39:30 2025.
 Gaussian 16:  ES64L-G16RevC.01  3-Jul-2019

 ----------------------------------------------------------------------
 #t hf aug-cc-pvdz iop(5/13=1,5/36=2,99/5=2) pseudo=read geom=check gue
 ss=(read,tcheck) scf=(maxcycle=1)
 ----------------------------------------------------------------------
 -----
 title
 -----
 Structure from the checkpoint file:  "Grambow2020_wb97xd3_007936_forward_mol1.chk"
 Charge =  0 Multiplicity = 1

                         Standard orientation:
 ---------------------------------------------------------------------
 Center     Atomic      Atomic             Coordinates (Angstroms)
 Number     Number       Type             X           Y           Z
 ---------------------------------------------------------------------
      1          6           0        1.082522    0.808927    0.614837
      2          6           0        1.782159   -0.424933   -0.005360
      3          6           0        0.365972   -0.580251   -0.448115
      4          7           0       -0.588632   -1.327220   -0.028349
      5          6           0       -1.562108   -0.361531    0.322313
      6          6           0       -1.249138    0.897997   -0.250494
      7          7           0        0.050437    0.803051   -0.530813
      8          1           0        1.637563    1.738526    0.744093
      9          1           0       -0.733579    0.150858    1.303688
     10          1           0        2.518745   -0.236124   -0.787899
     11          1           0        2.118077   -1.181208    0.698094
     12          1           0       -2.537982   -0.685364    0.659400
     13          1           0       -1.751896    1.841240   -0.102332
 ---------------------------------------------------------------------

 SCF Done:  E(RHF) =  -301.809032743     A.U. after    2 cycles

 The electronic state is 1-A.
 Alpha  occ. eigenvalues --  -15.54429 -15.50678 -11.32765 -11.32317 -11.31268
 Alpha  occ. eigenvalues --  -11.26456 -11.25493  -1.38453  -1.20756  -1.11825
 Alpha  occ. eigenvalues --   -0.97425  -0.88085  -0.83166  -0.77932  -0.73973
 Alpha  occ. eigenvalues --   -0.69415  -0.65399  -0.60634  -0.57502  -0.55039
 Alpha  occ. eigenvalues --   -0.51829  -0.49788  -0.48976  -0.41149  -0.30470
 Alpha virt. eigenvalues --    0.03054   0.03896   0.04475   0.04845   0.05321
 Alpha virt. eigenvalues --    0.05622   0.06640   0.08024   0.09506   0.10163
 Alpha virt. eigenvalues --    0.11232   0.12278   0.13310   0.13969   0.14417

 Mulliken charges:
               1
     1  C   -0.231384
     2  C    0.245078
     3  C   -1.902368
     4  N    1.093826
     5  C   -0.561946
     6  C    0.037420
     7  N    0.745349
     8  H   -0.181617
     9  H    0.797105
    10  H    0.039288
    11  H    0.124544
    12  H   -0.063311
    13  H   -0.141984
 Sum of Mulliken charges =  -0.00000

 Dipole moment (field-independent basis, Debye):
    X=             -1.0966    Y=              1.9266    Z=             -0.0222  Tot=              2.2169

 Test job not archived.
 1\1\GINC-SE045\SP\RHF\Aug-CC-pVDZ\C5H6N2\OHZDE\09-Apr-2025\0\\#t hf au
 g-cc-pvdz iop(5/13=1,5/36=2,99/5=2) pseudo=read geom=check guess=(read
 ,tcheck) scf=(maxcycle=1)\\title\\0,1\C,0,-1.20347902,-0.45366903,0.11
 455166\C,0,-1.41963244,1.07347212,-0.01835175\C,0,0.03505042,0.9107673
 ,-0.3067353\N,0,1.08088572,1.11660733,0.40691346\C,0,1.67467266,-0.168
 14453,0.40493952\C,0,1.11658376,-0.97775524,-0.6175753\N,0,-0.04159502
 ,-0.38002895,-0.89656194\H,0,-2.01048502,-1.13970696,-0.14434375\H,0,0
 .58948727,-0.69594221,1.0801437\H,0,-2.04427335,1.41583605,-0.84490236

 Normal termination of Gaussian 16 at Wed Apr  9 18:39:34 2025.
