 Gaussian 16, Revision C.01,

 ----------------------------------------------------------------------
 #t hf aug-cc-pvdz symm=none int=(grid=ultrafine) guess=(read,tcheck) s
 table=(opt,rrhf)
 ----------------------------------------------------------------------
 -----
 title
 -----
 Symbolic Z-matrix:
 Charge =  0 Multiplicity = 1

 SCF Done:  E(RHF) =  -307.675934217     A.U. after   15 cycles

 1\1\GINC-SE041\Stability\RHF\Aug-CC-pVDZ\C6H10O1\OHZDE\09-Apr-2025\0\\
 #t hf aug-cc-pvdz symm=none int=(grid=ultrafine) guess=(read,tcheck) s
 table=(opt,rrhf)\\title\\0,1\C,0,-2.04093342,-0.4826301,0.28430022\C,0
 ,-0.82170883,-0.11184956,-0.52610519\O,0,-0.46830808,1.28993818,-0.205
 11041\C,0,0.8174652,1.37230645,-0.07718863\C,0,1.58019964,0.12034851,-
 0.00558257\C,0,1.04067026,-0.78163848,1.08746813\C,0,0.46128167,-0.873
 50882,-0.28515884\H,0,-2.87551905,0.185195,0.0683818\H,0,-1.82847329,-
 0.44885699,1.3528615\H,0,-2.33973534,-1.50006531,0.02836133\H,0,-1.063

 Normal termination of Gaussian 16 at Wed Apr  9 17:57:53 2025.
 Gaussian 16:  ES64L-G16RevC.01  3-Jul-2019

 ----------------------------------------------------------------------
 #t hf aug-cc-pvdz iop(5/13=1,5/36=2,99/5=2) pseudo=read geom=check gue
 ss=(read,tcheck) scf=(maxcycle=1)
 ----------------------------------------------------------------------
 -----
 title
 -----
 Structure from the checkpoint file:  "Grambow2020_wb97xd3_006893_forward_mol1.chk"
 Charge =  0 Multiplicity = 1

                         Standard orientation:
 ---------------------------------------------------------------------
 Center     Atomic      Atomic             Coordinates (Angstroms)
 Number     Number       Type             X           Y           Z
 ---------------------------------------------------------------------
      1          6           0       -2.158125    0.146164   -0.203959
      2          6           0       -0.877071   -0.218374    0.507909
      3          8           0       -0.196372   -1.267943   -0.284551
      4          6           0        1.069392   -0.998558   -0.324996
      5          6           0        1.503637    0.323047    0.143063
      6          6           0        0.749582    1.426712   -0.573007
      7          6           0        0.179370    0.848724    0.679600
      8          1           0       -2.802774   -0.724901   -0.325690
      9          1           0       -1.954807    0.575346   -1.185064
     10          1           0       -2.692975    0.889460    0.388838
     11          1           0       -1.098200   -0.692716    1.467835
     12          1           0        1.923810   -1.690345    1.013186
     13          1           0        1.649857   -1.659795   -0.960110
     14          1           0        2.181127   -0.795440    0.936532
     15          1           0        0.231411    1.239339   -1.510349
     16          1           0        1.197975    2.410644   -0.516486
     17          1           0        0.134841    1.425665    1.596060
 ---------------------------------------------------------------------

 SCF Done:  E(RHF) =  -308.001440342     A.U. after    2 cycles

 The electronic state is 1-A.
 Alpha  occ. eigenvalues --  -20.62296 -11.39005 -11.31618 -11.24324 -11.23579
 Alpha  occ. eigenvalues --  -11.23060 -11.19260  -1.56436  -1.15610  -1.07341
 Alpha  occ. eigenvalues --   -0.95449  -0.89877  -0.81585  -0.77315  -0.73784
 Alpha  occ. eigenvalues --   -0.69563  -0.65797  -0.60116  -0.59506  -0.58260
 Alpha  occ. eigenvalues --   -0.56114  -0.54860  -0.50890  -0.47789  -0.44526
 Alpha  occ. eigenvalues --   -0.39449  -0.30060
 Alpha virt. eigenvalues --    0.03257   0.03422   0.03919   0.04108   0.05811
 Alpha virt. eigenvalues --    0.06381   0.06454   0.06766   0.07534   0.09386
 Alpha virt. eigenvalues --    0.10982   0.11604   0.12105   0.13423   0.13892

 Mulliken charges:
               1
     1  C   -0.363957
     2  C    0.334704
     3  O   -1.306934
     4  C    0.712354
     5  C   -0.382363
     6  C    0.212564
     7  C    0.312890
     8  H    0.181881
     9  H    0.199343
    10  H    0.215931
    11  H    0.048344
    12  H   -0.038331
    13  H   -0.056488
    14  H    0.385208
    15  H   -0.136714
    16  H   -0.136107
    17  H   -0.182327
 Sum of Mulliken charges =  -0.00000

 Dipole moment (field-independent basis, Debye):
    X=             -2.6827    Y=             -0.6122    Z=             -0.7722  Tot=              2.8580

 Test job not archived.
 1\1\GINC-SE041\SP\RHF\Aug-CC-pVDZ\C6H10O1\OHZDE\09-Apr-2025\0\\#t hf a
 ug-cc-pvdz iop(5/13=1,5/36=2,99/5=2) pseudo=read geom=check guess=(rea
 d,tcheck) scf=(maxcycle=1)\\title\\0,1\C,0,-2.04093342,-0.4826301,0.28
 430022\C,0,-0.82170883,-0.11184956,-0.52610519\O,0,-0.46830808,1.28993
 818,-0.20511041\C,0,0.8174652,1.37230645,-0.07718863\C,0,1.58019964,0.
 12034851,-0.00558257\C,0,1.04067026,-0.78163848,1.08746813\C,0,0.46128
 167,-0.87350882,-0.28515884\H,0,-2.87551905,0.185195,0.0683818\H,0,-1.
 82847329,-0.44885699,1.3528615\H,0,-2.33973534,-1.50006531,0.02836133\

 Normal termination of Gaussian 16 at Wed Apr  9 17:57:59 2025.
