 Gaussian 16, Revision C.01,

 ----------------------------------------------------------------------
 #t hf aug-cc-pvdz symm=none int=(grid=ultrafine) guess=(read,tcheck) s
 table=(opt,rrhf)
 ----------------------------------------------------------------------
 -----
 title
 -----
 Symbolic Z-matrix:
 Charge =  0 Multiplicity = 1

 SCF Done:  E(RHF) =  -305.345674348     A.U. after   17 cycles
 Normal termination of Gaussian 16 at Wed Apr  9 18:55:44 2025.
 Gaussian 16:  ES64L-G16RevC.01  3-Jul-2019

 ----------------------------------------------------------------------
 #t hf aug-cc-pvdz iop(5/13=1,5/36=2,99/5=2) pseudo=read geom=check gue
 ss=(read,tcheck) scf=(maxcycle=1)
 ----------------------------------------------------------------------
 -----
 title
 -----
 Structure from the checkpoint file:  "Grambow2020_wb97xd3_008356_forward_mol1.chk"
 Charge =  0 Multiplicity = 1

                         Standard orientation:
 ---------------------------------------------------------------------
 Center     Atomic      Atomic             Coordinates (Angstroms)
 Number     Number       Type             X           Y           Z
 ---------------------------------------------------------------------
      1          6           0        2.302587   -0.291172    0.374518
      2          6           0        1.805085    0.710064   -0.270939
      3          6           0        0.375499    0.512114   -0.301758
      4          6           0       -0.729599    1.204624   -0.015240
      5          6           0       -1.848284    0.257765    0.261849
      6          8           0       -1.316446   -1.045256   -0.019639
      7          6           0       -0.011782   -0.920015   -0.265358
      8          1           0        3.239491   -0.679482    0.746104
      9          1           0       -0.817848    2.275841    0.089420
     10          1           0       -2.188455    0.298661    1.301535
     11          1           0       -2.714647    0.385431   -0.391542
     12          1           0        0.366886   -1.682403   -0.938591
     13          1           0        1.285104   -1.076286    0.651754
 ---------------------------------------------------------------------

 SCF Done:  E(RHF) =  -305.656231707     A.U. after    2 cycles

 The electronic state is 1-A.
 Alpha  occ. eigenvalues --  -20.63021 -11.38573 -11.33661 -11.28005 -11.27318
 Alpha  occ. eigenvalues --  -11.24063 -11.19424  -1.56624  -1.15072  -1.07210
 Alpha  occ. eigenvalues --   -0.99276  -0.86731  -0.82350  -0.77369  -0.71837
 Alpha  occ. eigenvalues --   -0.70561  -0.64951  -0.61487  -0.58574  -0.55962
 Alpha  occ. eigenvalues --   -0.55061  -0.51096  -0.42651  -0.34217  -0.30594
 Alpha virt. eigenvalues --    0.02000   0.02821   0.03828   0.04016   0.04642
 Alpha virt. eigenvalues --    0.05406   0.07117   0.08865   0.09122   0.10961
 Alpha virt. eigenvalues --    0.11855   0.12462   0.13064   0.13881   0.14579

 Mulliken charges:
               1
     1  C    0.036960
     2  C   -0.546117
     3  C    0.424131
     4  C   -0.063002
     5  C    0.465940
     6  O   -1.258987
     7  C    0.346879
     8  H   -0.175236
     9  H   -0.025828
    10  H    0.173695
    11  H    0.130131
    12  H    0.001517
    13  H    0.489919
 Sum of Mulliken charges =  -0.00000

 Dipole moment (field-independent basis, Debye):
    X=             -4.6054    Y=             -1.3437    Z=              0.7619  Tot=              4.8575

 Test job not archived.
 1\1\GINC-SE105\SP\RHF\Aug-CC-pVDZ\C6H6O1\OHZDE\09-Apr-2025\0\\#t hf au
 g-cc-pvdz iop(5/13=1,5/36=2,99/5=2) pseudo=read geom=check guess=(read
 ,tcheck) scf=(maxcycle=1)\\title\\0,1\C,0,2.06626774,-0.98061131,0.775
 67276\C,0,1.97135253,0.23295038,0.34572585\C,0,0.58058177,0.44985205,0
 .02547587\C,0,-0.37363862,1.34347045,0.29716569\C,0,-1.71116631,0.7069
 2105,0.12223598\O,0,-1.43935957,-0.60105524,-0.40242498\C,0,-0.1197901
 5,-0.79247256,-0.38490597\H,0,2.77924586,-1.6831154,1.18163014\H,0,-0.
 23771956,2.34919882,0.66633187\H,0,-2.26268213,0.61751394,1.06360399\H

 Normal termination of Gaussian 16 at Wed Apr  9 18:55:48 2025.
