 Gaussian 16, Revision C.01,

 ----------------------------------------------------------------------
 #t hf aug-cc-pvdz symm=none int=(grid=ultrafine) guess=(read,tcheck) s
 table=(opt,rrhf)
 ----------------------------------------------------------------------
 -----
 title
 -----
 Symbolic Z-matrix:
 Charge =  0 Multiplicity = 1

 SCF Done:  E(RHF) =  -302.187005098     A.U. after   18 cycles
 Normal termination of Gaussian 16 at Wed Apr  9 15:43:34 2025.
 Gaussian 16:  ES64L-G16RevC.01  3-Jul-2019

 ----------------------------------------------------------------------
 #t hf aug-cc-pvdz iop(5/13=1,5/36=2,99/5=2) pseudo=read geom=check gue
 ss=(read,tcheck) scf=(maxcycle=1)
 ----------------------------------------------------------------------
 -----
 title
 -----
 Structure from the checkpoint file:  "Grambow2020_b97d3_006714_forward_mol1.chk"
 Charge =  0 Multiplicity = 1

                         Standard orientation:
 ---------------------------------------------------------------------
 Center     Atomic      Atomic             Coordinates (Angstroms)
 Number     Number       Type             X           Y           Z
 ---------------------------------------------------------------------
      1          8           0       -2.594515    0.703608   -0.178972
      2          6           0       -1.977079   -0.240878    0.328099
      3          6           0       -0.703805   -0.619971   -0.173422
      4          6           0        0.557837   -0.322533   -0.162903
      5          6           0        1.824315    0.027869   -0.022770
      6          8           0        2.935598    0.387586    0.190110
      7          1           0       -2.395404   -0.887814    1.132847
      8          1           0        1.459126   -0.908660   -1.035972
 ---------------------------------------------------------------------

 SCF Done:  E(RHF) =  -302.477158294     A.U. after    2 cycles

 The electronic state is 1-A.
 Alpha  occ. eigenvalues --  -20.64719 -20.53981 -11.47267 -11.37378 -11.35543
 Alpha  occ. eigenvalues --  -11.31521  -1.57484  -1.45904  -1.17226  -1.03752
 Alpha  occ. eigenvalues --   -0.89612  -0.76519  -0.72711  -0.71707  -0.65812
 Alpha  occ. eigenvalues --   -0.64064  -0.57470  -0.51766  -0.46995  -0.43819
 Alpha  occ. eigenvalues --   -0.36470
 Alpha virt. eigenvalues --    0.00895   0.02190   0.03786   0.06512   0.07952
 Alpha virt. eigenvalues --    0.08096   0.09411   0.10116   0.10593   0.12438
 Alpha virt. eigenvalues --    0.12848   0.14193   0.14611   0.15257   0.16391

 Mulliken charges:
               1
     1  O   -1.112832
     2  C    0.923582
     3  C   -0.327558
     4  C    0.790797
     5  C    0.073904
     6  O   -0.953517
     7  H    0.183681
     8  H    0.421943
 Sum of Mulliken charges =  -0.00000

 Dipole moment (field-independent basis, Debye):
    X=              2.3024    Y=             -2.3783    Z=              1.0226  Tot=              3.4645

 Test job not archived.
 1\1\GINC-SE138\SP\RHF\Aug-CC-pVDZ\C4H2O2\OHZDE\09-Apr-2025\0\\#t hf au
 g-cc-pvdz iop(5/13=1,5/36=2,99/5=2) pseudo=read geom=check guess=(read
 ,tcheck) scf=(maxcycle=1)\\title\\0,1\O,0,-2.45808813,0.03458833,0.927
 40928\C,0,-1.86037154,-0.35585269,-0.08288448\C,0,-0.60769944,0.209026
 02,-0.44091373\C,0,0.66221425,0.19224479,-0.18137572\C,0,1.94075396,0.
 04104731,0.11671717\O,0,3.0657143,-0.18659942,0.42053612\H,0,-2.283869
 95,-1.09500654,-0.80082769\H,0,1.53060455,1.1411002,-0.69487896\\Versi
 on=ES64L-G16RevC.01\State=1-A\HF=-302.4771583\RMSD=2.110e-02\Dipole=0.

 Normal termination of Gaussian 16 at Wed Apr  9 15:43:37 2025.
