 Gaussian 16, Revision C.01,

 ----------------------------------------------------------------------
 #t hf aug-cc-pvdz symm=none int=(grid=ultrafine) guess=(read,tcheck) s
 table=(opt,rrhf)
 ----------------------------------------------------------------------
 -----
 title
 -----
 Symbolic Z-matrix:
 Charge =  0 Multiplicity = 1

 SCF Done:  E(RHF) =  -358.422861300     A.U. after   19 cycles
 Normal termination of Gaussian 16 at Wed Apr  9 03:34:08 2025.
 Gaussian 16:  ES64L-G16RevC.01  3-Jul-2019

 ----------------------------------------------------------------------
 #t hf aug-cc-pvdz iop(5/13=1,5/36=2,99/5=2) pseudo=read geom=check gue
 ss=(read,tcheck) scf=(maxcycle=1)
 ----------------------------------------------------------------------
 -----
 title
 -----
 Structure from the checkpoint file:  "Grambow2020_wb97xd3_007078_reverse_mol2.chk"
 Charge =  0 Multiplicity = 1

                         Standard orientation:
 ---------------------------------------------------------------------
 Center     Atomic      Atomic             Coordinates (Angstroms)
 Number     Number       Type             X           Y           Z
 ---------------------------------------------------------------------
      1          8           0       -2.167174    0.125373   -0.653477
      2          6           0       -1.075327   -0.111083    0.019402
      3          7           0       -1.621467    0.583615    0.899685
      4          6           0        1.640593    1.265503   -0.123029
      5          6           0        1.441445   -0.196685   -0.374149
      6          8           0        1.080631   -1.013141    0.724301
      7          6           0        0.132543   -0.870764   -0.307423
      8          1           0        0.863463    1.669226    0.525253
      9          1           0        2.609056    1.425654    0.352868
     10          1           0        1.630221    1.811837   -1.067626
     11          1           0        2.162583   -0.665880   -1.040622
     12          1           0       -0.058233   -1.745828   -0.923058
 ---------------------------------------------------------------------

 SCF Done:  E(RHF) =  -358.777583980     A.U. after    2 cycles

 The electronic state is 1-A.
 Alpha  occ. eigenvalues --  -20.60610 -20.59281 -15.59320 -11.38980 -11.35024
 Alpha  occ. eigenvalues --  -11.34475 -11.26102  -1.55594  -1.53437  -1.17110
 Alpha  occ. eigenvalues --   -1.05999  -1.01856  -0.88899  -0.77898  -0.75558
 Alpha  occ. eigenvalues --   -0.69627  -0.65963  -0.64451  -0.61614  -0.60354
 Alpha  occ. eigenvalues --   -0.59278  -0.55698  -0.50914  -0.48445  -0.47941
 Alpha  occ. eigenvalues --   -0.43490
 Alpha virt. eigenvalues --    0.02674   0.03585   0.04429   0.04559   0.06475
 Alpha virt. eigenvalues --    0.07932   0.08902   0.09495   0.10327   0.11208
 Alpha virt. eigenvalues --    0.12523   0.13168   0.13662   0.14372   0.14677

 Mulliken charges:
               1
     1  O   -1.253238
     2  C   -0.249886
     3  N    0.936597
     4  C   -0.457438
     5  C    0.490412
     6  O   -1.332589
     7  C    1.162646
     8  H    0.268705
     9  H    0.227400
    10  H    0.273844
    11  H   -0.045474
    12  H   -0.020978
 Sum of Mulliken charges =  -0.00000

 Dipole moment (field-independent basis, Debye):
    X=              3.9936    Y=             -0.8764    Z=             -2.4917  Tot=              4.7880

 Test job not archived.
 1\1\GINC-SE341\SP\RHF\Aug-CC-pVDZ\C4H5N1O2\OHZDE\09-Apr-2025\0\\#t hf
 aug-cc-pvdz iop(5/13=1,5/36=2,99/5=2) pseudo=read geom=check guess=(re
 ad,tcheck) scf=(maxcycle=1)\\title\\0,1\O,0,0.79980812,2.61795137,-0.1
 7124301\C,0,0.47434978,1.51167723,0.43788931\N,0,1.63811979,1.56663444
 ,0.88329937\C,0,0.4474703,-1.3531726,-0.60298187\C,0,-0.76286524,-0.66
 065595,-0.05871686\O,0,-0.79396543,-0.37491948,1.32720115\C,0,-0.75933
 943,0.72376087,0.44669056\H,0,1.3657705,-0.93690205,-0.18989947\H,0,0.
 40355462,-2.41446875,-0.35445134\H,0,0.47541973,-1.25823361,-1.6897459

 Normal termination of Gaussian 16 at Wed Apr  9 03:34:12 2025.
