 Gaussian 16, Revision C.01,

 ----------------------------------------------------------------------
 #t hf aug-cc-pvdz symm=none int=(grid=ultrafine) guess=(read,tcheck) s
 table=(opt,rrhf)
 ----------------------------------------------------------------------
 -----
 title
 -----
 Symbolic Z-matrix:
 Charge =  0 Multiplicity = 1

 SCF Done:  E(RHF) =  -306.574645618     A.U. after   14 cycles
 Normal termination of Gaussian 16 at Wed Apr  9 19:00:53 2025.
 Gaussian 16:  ES64L-G16RevC.01  3-Jul-2019

 ----------------------------------------------------------------------
 #t hf aug-cc-pvdz iop(5/13=1,5/36=2,99/5=2) pseudo=read geom=check gue
 ss=(read,tcheck) scf=(maxcycle=1)
 ----------------------------------------------------------------------
 -----
 title
 -----
 Structure from the checkpoint file:  "Grambow2020_wb97xd3_008434_reverse_mol1.chk"
 Charge =  0 Multiplicity = 1

                         Standard orientation:
 ---------------------------------------------------------------------
 Center     Atomic      Atomic             Coordinates (Angstroms)
 Number     Number       Type             X           Y           Z
 ---------------------------------------------------------------------
      1          6           0        1.140716   -0.820243   -0.640172
      2          6           0        1.540172    0.618182   -0.238951
      3          6           0       -0.300255    1.238426   -0.070763
      4          8           0       -1.358103    0.458009   -0.528535
      5          6           0       -1.296604   -0.824809    0.102385
      6          6           0        0.144961   -0.958607    0.534281
      7          6           0        0.562911    0.473934    0.911780
      8          1           0        0.780946   -1.004412   -1.654065
      9          1           0        2.048728   -1.409555   -0.490520
     10          1           0        0.442362    1.462678   -0.952821
     11          1           0       -0.579470    2.237975    0.254637
     12          1           0       -1.603607   -1.570978   -0.633152
     13          1           0       -1.987457   -0.855815    0.953761
     14          1           0        0.325868   -1.760683    1.247254
     15          1           0        0.686037    0.875423    1.911830
 ---------------------------------------------------------------------

 SCF Done:  E(RHF) =  -306.893080406     A.U. after    2 cycles

 The electronic state is 1-A.
 Alpha  occ. eigenvalues --  -20.56067 -11.31765 -11.29332 -11.26377 -11.24843
 Alpha  occ. eigenvalues --  -11.24815 -11.24095  -1.49035  -1.18531  -1.03916
 Alpha  occ. eigenvalues --   -0.94521  -0.85026  -0.83442  -0.74568  -0.71499
 Alpha  occ. eigenvalues --   -0.67433  -0.62699  -0.60727  -0.57220  -0.55614
 Alpha  occ. eigenvalues --   -0.53771  -0.49924  -0.49615  -0.43599  -0.43196
 Alpha  occ. eigenvalues --   -0.33844
 Alpha virt. eigenvalues --    0.02933   0.03441   0.04029   0.04530   0.05818
 Alpha virt. eigenvalues --    0.06315   0.06691   0.07471   0.09823   0.11028
 Alpha virt. eigenvalues --    0.12518   0.12849   0.13703   0.14213   0.14410

 Mulliken charges:
               1
     1  C   -0.057437
     2  C   -0.487602
     3  C    0.651235
     4  O   -1.413602
     5  C    0.787979
     6  C   -0.240287
     7  C    0.303126
     8  H    0.007987
     9  H    0.115877
    10  H    0.349499
    11  H    0.037303
    12  H    0.083282
    13  H    0.077816
    14  H   -0.066338
    15  H   -0.148838
 Sum of Mulliken charges =  -0.00000

 Dipole moment (field-independent basis, Debye):
    X=             -1.3180    Y=             -1.7005    Z=              1.5528  Tot=              2.6533

 Test job not archived.
 1\1\GINC-SE131\SP\RHF\Aug-CC-pVDZ\C6H8O1\OHZDE\09-Apr-2025\0\\#t hf au
 g-cc-pvdz iop(5/13=1,5/36=2,99/5=2) pseudo=read geom=check guess=(read
 ,tcheck) scf=(maxcycle=1)\\title\\0,1\C,0,0.735355,1.25875562,0.160937
 47\C,0,1.61048989,0.16511174,-0.4930452\C,0,0.50865104,-1.30781338,0.1
 5240169\O,0,-0.48217967,-1.08984055,1.10549722\C,0,-1.37942781,-0.0854
 6481,0.62213677\C,0,-0.57386258,0.66766694,-0.41053059\C,0,0.32198052,
 -0.40748307,-1.05153086\H,0,0.80915028,1.4193275,1.2380183\H,0,1.03079
 259,2.18361199,-0.34058705\H,0,1.55109025,-0.96854618,0.57431652\H,0,0

 Normal termination of Gaussian 16 at Wed Apr  9 19:00:58 2025.
