 Gaussian 16, Revision C.01,

 ----------------------------------------------------------------------
 #t hf aug-cc-pvdz symm=none int=(grid=ultrafine) guess=(read,tcheck) s
 table=(opt,rrhf)
 ----------------------------------------------------------------------
 -----
 title
 -----
 Symbolic Z-matrix:
 Charge =  0 Multiplicity = 1

 SCF Done:  E(RHF) =  -306.535926090     A.U. after   15 cycles
 Normal termination of Gaussian 16 at Wed Apr  9 19:00:54 2025.
 Gaussian 16:  ES64L-G16RevC.01  3-Jul-2019

 ----------------------------------------------------------------------
 #t hf aug-cc-pvdz iop(5/13=1,5/36=2,99/5=2) pseudo=read geom=check gue
 ss=(read,tcheck) scf=(maxcycle=1)
 ----------------------------------------------------------------------
 -----
 title
 -----
 Structure from the checkpoint file:  "Grambow2020_wb97xd3_008449_reverse_mol1.chk"
 Charge =  0 Multiplicity = 1

                         Standard orientation:
 ---------------------------------------------------------------------
 Center     Atomic      Atomic             Coordinates (Angstroms)
 Number     Number       Type             X           Y           Z
 ---------------------------------------------------------------------
      1          6           0       -0.893635    1.339457   -0.707635
      2          6           0       -1.268254   -0.692021   -0.373601
      3          6           0        0.067501   -1.252633    0.062716
      4          8           0        1.223484   -0.724629   -0.503732
      5          6           0        1.404146    0.599257    0.020586
      6          6           0        0.020732    1.033921    0.489058
      7          6           0       -0.610010   -0.276543    0.933380
      8          1           0       -1.090143    0.086877   -1.261882
      9          1           0       -1.874244    1.619981   -0.294559
     10          1           0       -2.183406   -1.260927   -0.457835
     11          1           0        0.112900   -2.306659    0.303839
     12          1           0        1.778917    1.230927   -0.785367
     13          1           0        2.130522    0.567666    0.841574
     14          1           0        0.038142    1.834734    1.227367
     15          1           0       -1.023440   -0.484196    1.909696
 ---------------------------------------------------------------------

 SCF Done:  E(RHF) =  -306.853436793     A.U. after    2 cycles

 The electronic state is 1-A.
 Alpha  occ. eigenvalues --  -20.54988 -11.30337 -11.28180 -11.26797 -11.25874
 Alpha  occ. eigenvalues --  -11.25742 -11.25038  -1.47948  -1.19213  -1.04881
 Alpha  occ. eigenvalues --   -0.92233  -0.87699  -0.80674  -0.74491  -0.73548
 Alpha  occ. eigenvalues --   -0.66999  -0.63281  -0.61337  -0.58412  -0.56069
 Alpha  occ. eigenvalues --   -0.52714  -0.50047  -0.49019  -0.44265  -0.38988
 Alpha  occ. eigenvalues --   -0.32531
 Alpha virt. eigenvalues --    0.02728   0.03325   0.03754   0.04552   0.05685
 Alpha virt. eigenvalues --    0.06258   0.06559   0.07493   0.09555   0.10954
 Alpha virt. eigenvalues --    0.11857   0.12627   0.13298   0.13718   0.14190

 Mulliken charges:
               1
     1  C   -0.578065
     2  C   -0.277774
     3  C    1.604911
     4  O   -1.527239
     5  C    0.676095
     6  C   -0.388078
     7  C    0.239629
     8  H    0.451972
     9  H    0.180313
    10  H   -0.229893
    11  H   -0.133387
    12  H    0.107764
    13  H    0.081632
    14  H   -0.016117
    15  H   -0.191764
 Sum of Mulliken charges =  -0.00000

 Dipole moment (field-independent basis, Debye):
    X=             -1.2895    Y=             -0.6799    Z=              3.0036  Tot=              3.3386

 Test job not archived.
 1\1\GINC-SE219\SP\RHF\Aug-CC-pVDZ\C6H8O1\OHZDE\09-Apr-2025\0\\#t hf au
 g-cc-pvdz iop(5/13=1,5/36=2,99/5=2) pseudo=read geom=check guess=(read
 ,tcheck) scf=(maxcycle=1)\\title\\0,1\C,0,0.43976259,1.56626524,0.2913
 7172\C,0,1.42856341,-0.26462226,0.07014111\C,0,0.34403998,-1.30185794,
 0.26210654\O,0,-0.6724256,-1.03528949,1.17407551\C,0,-1.503931,-0.0067
 4506,0.61647609\C,0,-0.62534112,0.70495623,-0.40518731\C,0,0.27450256,
 -0.41224152,-0.90988946\H,0,1.26758428,0.61550397,0.86191896\H,0,1.046
 61502,2.02531259,-0.50356583\H,0,2.46448409,-0.48181447,-0.14883153\H,

 Normal termination of Gaussian 16 at Wed Apr  9 19:01:00 2025.
