 Gaussian 16, Revision C.01,

 ----------------------------------------------------------------------
 #t hf aug-cc-pvdz symm=none int=(grid=ultrafine) guess=(read,tcheck) s
 table=(opt,rrhf)
 ----------------------------------------------------------------------
 -----
 title
 -----
 Symbolic Z-matrix:
 Charge =  0 Multiplicity = 1

 SCF Done:  E(RHF) =  -304.524598117     A.U. after   14 cycles
 Normal termination of Gaussian 16 at Wed Apr  9 03:14:50 2025.
 Gaussian 16:  ES64L-G16RevC.01  3-Jul-2019

 ----------------------------------------------------------------------
 #t hf aug-cc-pvdz iop(5/13=1,5/36=2,99/5=2) pseudo=read geom=check gue
 ss=(read,tcheck) scf=(maxcycle=1)
 ----------------------------------------------------------------------
 -----
 title
 -----
 Structure from the checkpoint file:  "Grambow2020_b97d3_006922_forward_mol1.chk"
 Charge =  0 Multiplicity = 1

                         Standard orientation:
 ---------------------------------------------------------------------
 Center     Atomic      Atomic             Coordinates (Angstroms)
 Number     Number       Type             X           Y           Z
 ---------------------------------------------------------------------
      1          8           0       -1.732015   -0.566339   -0.319197
      2          6           0       -0.538975   -0.045489    0.170177
      3          6           0       -0.416544    1.304011    0.683927
      4          6           0        0.551718    0.672996   -0.671885
      5          8           0        1.576834   -0.201739   -0.231889
      6          6           0        0.590419   -1.058743    0.446794
      7          1           0       -2.398804    0.138445   -0.191693
      8          1           0        0.492689    1.824729   -0.301339
      9          1           0        0.344566    1.385369    1.474238
     10          1           0        0.362110    0.798646   -1.740823
     11          1           0        0.843419   -1.240328    1.499507
     12          1           0        0.477759   -1.998886   -0.105282
 ---------------------------------------------------------------------

 SCF Done:  E(RHF) =  -304.833551527     A.U. after    2 cycles

 The electronic state is 1-A.
 Alpha  occ. eigenvalues --  -20.57614 -20.57454 -11.34245 -11.32385 -11.31260
 Alpha  occ. eigenvalues --  -11.26771  -1.50086  -1.47164  -1.13468  -0.98099
 Alpha  occ. eigenvalues --   -0.85748  -0.79963  -0.72358  -0.69749  -0.65715
 Alpha  occ. eigenvalues --   -0.64160  -0.59418  -0.56412  -0.55721  -0.50891
 Alpha  occ. eigenvalues --   -0.45549  -0.41443  -0.36917
 Alpha virt. eigenvalues --    0.03769   0.03958   0.04446   0.04812   0.06480
 Alpha virt. eigenvalues --    0.07623   0.09082   0.09872   0.10550   0.12980
 Alpha virt. eigenvalues --    0.13900   0.14147   0.14989   0.15514   0.15782

 Mulliken charges:
               1
     1  O   -1.580118
     2  C    1.139603
     3  C   -0.642101
     4  C    0.544877
     5  O   -1.290835
     6  C    0.645961
     7  H    0.340745
     8  H    0.444351
     9  H    0.133399
    10  H    0.079080
    11  H    0.099381
    12  H    0.085657
 Sum of Mulliken charges =  -0.00000

 Dipole moment (field-independent basis, Debye):
    X=              0.0894    Y=             -0.1669    Z=              0.0049  Tot=              0.1894

 Test job not archived.
 1\1\GINC-SE051\SP\RHF\Aug-CC-pVDZ\C4H6O2\OHZDE\09-Apr-2025\0\\#t hf au
 g-cc-pvdz iop(5/13=1,5/36=2,99/5=2) pseudo=read geom=check guess=(read
 ,tcheck) scf=(maxcycle=1)\\title\\0,1\O,0,0.366883,-1.49191061,-1.1149
 6351\C,0,0.07788975,-0.55140804,-0.13208291\C,0,-1.14562815,-0.5687590
 9,0.6443059\C,0,-0.63392096,0.81108949,-0.35974107\O,0,0.41607524,1.54
 789464,0.24378732\C,0,1.24927675,0.33720385,0.33370141\H,0,-0.3816517,
 -2.12212399,-1.10440956\H,0,-1.70858486,0.67114517,0.18136056\H,0,-1.0
 0625861,-0.16292606,1.65740765\H,0,-0.95376585,1.04907929,-1.37730061\

 Normal termination of Gaussian 16 at Wed Apr  9 03:14:54 2025.
