 Gaussian 16, Revision C.01,

 ----------------------------------------------------------------------
 #t hf aug-cc-pvdz symm=none int=(grid=ultrafine) guess=(read,tcheck) s
 table=(opt,rrhf)
 ----------------------------------------------------------------------
 -----
 title
 -----
 Symbolic Z-matrix:
 Charge =  0 Multiplicity = 1

 SCF Done:  E(RHF) =  -360.933511872     A.U. after   12 cycles
 Normal termination of Gaussian 16 at Wed Apr  9 19:07:59 2025.
 Gaussian 16:  ES64L-G16RevC.01  3-Jul-2019

 ----------------------------------------------------------------------
 #t hf aug-cc-pvdz iop(5/13=1,5/36=2,99/5=2) pseudo=read geom=check gue
 ss=(read,tcheck) scf=(maxcycle=1)
 ----------------------------------------------------------------------
 -----
 title
 -----
 Structure from the checkpoint file:  "Grambow2020_wb97xd3_008627_reverse_mol2.chk"
 Charge =  0 Multiplicity = 1

                         Standard orientation:
 ---------------------------------------------------------------------
 Center     Atomic      Atomic             Coordinates (Angstroms)
 Number     Number       Type             X           Y           Z
 ---------------------------------------------------------------------
      1          6           0       -0.287075    0.943692   -0.765577
      2          6           0       -1.624002    0.727886   -0.076673
      3          6           0       -1.555478   -0.769233    0.192989
      4          8           0       -0.191613   -1.044545    0.472909
      5          6           0        0.658327   -0.018848   -0.009263
      6          8           0        1.659186   -0.536784   -0.830470
      7          7           0        1.363506    0.529544    1.115096
      8          1           0       -0.353240    0.638408   -1.814306
      9          1           0        0.083699    1.967067   -0.738730
     10          1           0        1.240620   -0.991249   -1.564215
     11          1           0       -1.674805    1.283154    0.863542
     12          1           0       -2.484197    1.012576   -0.682231
     13          1           0       -2.150206   -1.090733    1.048959
     14          1           0       -1.882208   -1.341097   -0.685421
     15          1           0        2.057458    1.198498    0.812298
     16          1           0        0.727126    0.966227    1.766072
 ---------------------------------------------------------------------

 SCF Done:  E(RHF) =  -361.309288861     A.U. after    2 cycles

 The electronic state is 1-A.
 Alpha  occ. eigenvalues --  -20.55011 -20.54169 -15.48358 -11.36845 -11.28785
 Alpha  occ. eigenvalues --  -11.24315 -11.24007  -1.50653  -1.43821  -1.18072
 Alpha  occ. eigenvalues --   -1.07942  -0.97104  -0.83802  -0.82286  -0.73990
 Alpha  occ. eigenvalues --   -0.70835  -0.68643  -0.64173  -0.62813  -0.60619
 Alpha  occ. eigenvalues --   -0.59270  -0.54550  -0.51668  -0.51054  -0.49608
 Alpha  occ. eigenvalues --   -0.47136  -0.43113  -0.41995
 Alpha virt. eigenvalues --    0.03267   0.03512   0.03937   0.04373   0.05851
 Alpha virt. eigenvalues --    0.06308   0.06774   0.07176   0.08911   0.11619
 Alpha virt. eigenvalues --    0.13155   0.13669   0.13943   0.14072   0.14991

 Mulliken charges:
               1
     1  C   -0.183921
     2  C   -0.441513
     3  C    0.587810
     4  O   -1.638027
     5  C    1.333130
     6  O   -1.581845
     7  N    0.647097
     8  H    0.097697
     9  H    0.136428
    10  H    0.244536
    11  H    0.096624
    12  H    0.139828
    13  H    0.051940
    14  H    0.094447
    15  H    0.231779
    16  H    0.183988
 Sum of Mulliken charges =   0.00000

 Dipole moment (field-independent basis, Debye):
    X=             -2.8873    Y=              2.3278    Z=             -1.5882  Tot=              4.0345

 Test job not archived.
 1\1\GINC-SE015\SP\RHF\Aug-CC-pVDZ\C4H9N1O2\OHZDE\09-Apr-2025\0\\#t hf
 aug-cc-pvdz iop(5/13=1,5/36=2,99/5=2) pseudo=read geom=check guess=(re
 ad,tcheck) scf=(maxcycle=1)\\title\\0,1\C,0,-0.6593411,-0.33611909,-0.
 75041338\C,0,-0.89373044,1.06680442,-0.2161847\C,0,-0.30559545,0.93015
 17,1.18174349\O,0,0.79599488,0.04541669,1.04749458\C,0,0.70893313,-0.7
 2119517,-0.14064142\O,0,0.80612791,-2.08553825,0.13043186\N,0,1.868483
 1,-0.42893421,-0.93576444\H,0,-1.42985854,-1.01424564,-0.37113042\H,0,
 -0.64755076,-0.41831441,-1.83604503\H,0,0.09660539,-2.32402085,0.73028

 Normal termination of Gaussian 16 at Wed Apr  9 19:08:04 2025.
