 Gaussian 16, Revision C.01,

 ----------------------------------------------------------------------
 #t hf aug-cc-pvdz symm=none int=(grid=ultrafine) guess=(read,tcheck) s
 table=(opt,rrhf)
 ----------------------------------------------------------------------
 -----
 title
 -----
 Symbolic Z-matrix:
 Charge =  0 Multiplicity = 1

 SCF Done:  E(RHF) =  -301.573883354     A.U. after   15 cycles
 Normal termination of Gaussian 16 at Wed Apr  9 19:11:59 2025.
 Gaussian 16:  ES64L-G16RevC.01  3-Jul-2019

 ----------------------------------------------------------------------
 #t hf aug-cc-pvdz iop(5/13=1,5/36=2,99/5=2) pseudo=read geom=check gue
 ss=(read,tcheck) scf=(maxcycle=1)
 ----------------------------------------------------------------------
 -----
 title
 -----
 Structure from the checkpoint file:  "Grambow2020_wb97xd3_008864_forward_mol1.chk"
 Charge =  0 Multiplicity = 1

                         Standard orientation:
 ---------------------------------------------------------------------
 Center     Atomic      Atomic             Coordinates (Angstroms)
 Number     Number       Type             X           Y           Z
 ---------------------------------------------------------------------
      1          7           0        1.704189   -0.679760   -0.455855
      2          6           0        1.770804   -0.269244    0.655228
      3          6           0        0.670194    0.776133   -0.116984
      4          6           0       -0.582981    0.554896   -0.860861
      5          6           0       -1.201633   -0.800497   -0.587676
      6          6           0       -1.121905   -0.416902    0.902675
      7          7           0       -0.582721    0.942682    0.588708
      8          1           0        1.213138    1.691307   -0.291091
      9          1           0       -0.869012    1.244682   -1.646167
     10          1           0       -2.225753   -0.864956   -0.949011
     11          1           0       -0.633764   -1.665693   -0.926862
     12          1           0       -2.087972   -0.312586    1.390153
     13          1           0       -0.453794   -0.999522    1.538722
 ---------------------------------------------------------------------

 SCF Done:  E(RHF) =  -301.884439301     A.U. after    2 cycles

 The electronic state is 1-A.
 Alpha  occ. eigenvalues --  -15.55891 -15.53154 -11.35008 -11.29856 -11.27943
 Alpha  occ. eigenvalues --  -11.27913 -11.25423  -1.34994  -1.28440  -1.04547
 Alpha  occ. eigenvalues --   -0.96987  -0.85250  -0.78709  -0.74178  -0.70542
 Alpha  occ. eigenvalues --   -0.67871  -0.65464  -0.59873  -0.57097  -0.53472
 Alpha  occ. eigenvalues --   -0.52396  -0.51469  -0.48995  -0.47415  -0.41587
 Alpha virt. eigenvalues --    0.03225   0.04062   0.04308   0.04746   0.05617
 Alpha virt. eigenvalues --    0.07030   0.08134   0.09029   0.09570   0.10586
 Alpha virt. eigenvalues --    0.11372   0.13039   0.13401   0.14088   0.14669

 Mulliken charges:
               1
     1  N    0.531619
     2  C   -0.669320
     3  C   -0.310747
     4  C    0.163683
     5  C    0.146544
     6  C   -0.022680
     7  N    0.363823
     8  H   -0.252996
     9  H   -0.161411
    10  H    0.096995
    11  H    0.081543
    12  H   -0.032286
    13  H    0.065234
 Sum of Mulliken charges =  -0.00000

 Dipole moment (field-independent basis, Debye):
    X=             -2.1675    Y=              0.0190    Z=             -1.3687  Tot=              2.5636

 Test job not archived.
 1\1\GINC-SE125\SP\RHF\Aug-CC-pVDZ\C5H6N2\OHZDE\09-Apr-2025\0\\#t hf au
 g-cc-pvdz iop(5/13=1,5/36=2,99/5=2) pseudo=read geom=check guess=(read
 ,tcheck) scf=(maxcycle=1)\\title\\0,1\N,0,1.95692572,-0.34666258,0.880
 09765\C,0,1.87881326,0.83711611,0.88581373\C,0,1.12491847,0.37018506,-
 0.56817499\C,0,0.01465639,-0.54699544,-0.882573\C,0,-0.85356185,-0.858
 51951,0.31892511\C,0,-0.9944662,0.66775458,0.47792069\N,0,-0.19492877,
 0.93361832,-0.75812941\H,0,1.83055296,0.6050226,-1.34892929\H,0,-0.004
 46999,-1.05761239,-1.83820293\H,0,-1.78850218,-1.3379801,0.03688914\H,

 Normal termination of Gaussian 16 at Wed Apr  9 19:12:04 2025.
