 Gaussian 16, Revision C.01,

 ----------------------------------------------------------------------
 #t hf aug-cc-pvdz symm=none int=(grid=ultrafine) guess=(read,tcheck) s
 table=(opt,rrhf)
 ----------------------------------------------------------------------
 -----
 title
 -----
 Symbolic Z-matrix:
 Charge =  0 Multiplicity = 1

 SCF Done:  E(RHF) =  -307.849103737     A.U. after   12 cycles

 1\1\GINC-SE112\Stability\RHF\Aug-CC-pVDZ\C6H10O1\OHZDE\09-Apr-2025\0\\
 #t hf aug-cc-pvdz symm=none int=(grid=ultrafine) guess=(read,tcheck) s
 table=(opt,rrhf)\\title\\0,1\C,0,-2.0729332,0.20688464,-0.01190507\C,0
 ,-0.58172504,0.06372048,-0.03260617\C,0,0.3618711,0.22694614,-1.255053
 28\C,0,1.263939,-0.11117656,-0.06410197\O,0,2.63614128,-0.22479262,-0.
 16315342\C,0,0.240421,-1.19727026,0.33924977\C,0,0.44637027,0.89456246
 ,0.77763216\H,0,-2.54312134,-0.51392708,-0.68414291\H,0,-2.46576109,0.
 03830332,0.99306191\H,0,-2.37176802,1.20857183,-0.3278657\H,0,0.456056

 Normal termination of Gaussian 16 at Wed Apr  9 18:45:55 2025.
 Gaussian 16:  ES64L-G16RevC.01  3-Jul-2019

 ----------------------------------------------------------------------
 #t hf aug-cc-pvdz iop(5/13=1,5/36=2,99/5=2) pseudo=read geom=check gue
 ss=(read,tcheck) scf=(maxcycle=1)
 ----------------------------------------------------------------------
 -----
 title
 -----
 Structure from the checkpoint file:  "Grambow2020_wb97xd3_008044_forward_mol2.chk"
 Charge =  0 Multiplicity = 1

                         Standard orientation:
 ---------------------------------------------------------------------
 Center     Atomic      Atomic             Coordinates (Angstroms)
 Number     Number       Type             X           Y           Z
 ---------------------------------------------------------------------
      1          6           0        2.394091   -0.008790   -0.000591
      2          6           0        0.895896   -0.002748    0.000209
      3          6           0       -0.039597    1.236700   -0.003703
      4          6           0       -0.958253    0.010945    0.000140
      5          8           0       -2.335929    0.098513   -0.000715
      6          6           0       -0.039659   -0.612393    1.076020
      7          6           0       -0.039875   -0.619434   -1.071143
      8          1           0        2.786443    0.500267    0.882286
      9          1           0        2.778742   -1.030913   -0.000543
     10          1           0        2.784462    0.499094   -0.884998
     11          1           0       -0.040925    1.843370   -0.910864
     12          1           0       -0.039925    1.848104    0.900278
     13          1           0       -2.702365   -0.788137    0.000646
     14          1           0       -0.039457   -1.702332    1.154573
     15          1           0       -0.037347   -0.129937    2.054939
     16          1           0       -0.039581   -1.709825   -1.142843
     17          1           0       -0.038230   -0.143474   -2.053351
 ---------------------------------------------------------------------

 SCF Done:  E(RHF) =  -308.176775209     A.U. after    2 cycles

 The electronic state is 1-A.
 Alpha  occ. eigenvalues --  -20.55203 -11.29796 -11.25108 -11.23095 -11.23060
 Alpha  occ. eigenvalues --  -11.22905 -11.22703  -1.46224  -1.22283  -0.98822
 Alpha  occ. eigenvalues --   -0.91676  -0.91638  -0.80799  -0.73978  -0.68983
 Alpha  occ. eigenvalues --   -0.63303  -0.63291  -0.60896  -0.58793  -0.56843
 Alpha  occ. eigenvalues --   -0.54518  -0.50778  -0.47186  -0.45522  -0.45192
 Alpha  occ. eigenvalues --   -0.43619  -0.40748
 Alpha virt. eigenvalues --    0.03334   0.03421   0.03976   0.04258   0.05989
 Alpha virt. eigenvalues --    0.06230   0.06326   0.07179   0.07216   0.09532
 Alpha virt. eigenvalues --    0.11335   0.13073   0.13212   0.13326   0.13671

 Mulliken charges:
               1
     1  C   -0.716841
     2  C    0.001955
     3  C   -0.156882
     4  C    1.918025
     5  O   -1.553333
     6  C   -0.070695
     7  C   -0.070737
     8  H    0.219748
     9  H    0.219251
    10  H    0.220101
    11  H   -0.021103
    12  H   -0.020741
    13  H    0.199099
    14  H   -0.046986
    15  H   -0.036860
    16  H   -0.047292
    17  H   -0.036710
 Sum of Mulliken charges =   0.00000

 Dipole moment (field-independent basis, Debye):
    X=              0.9719    Y=             -1.3423    Z=              0.0021  Tot=              1.6572

 Test job not archived.
 1\1\GINC-SE112\SP\RHF\Aug-CC-pVDZ\C6H10O1\OHZDE\09-Apr-2025\0\\#t hf a
 ug-cc-pvdz iop(5/13=1,5/36=2,99/5=2) pseudo=read geom=check guess=(rea
 d,tcheck) scf=(maxcycle=1)\\title\\0,1\C,0,-2.0729332,0.20688464,-0.01
 190507\C,0,-0.58172504,0.06372048,-0.03260617\C,0,0.3618711,0.22694614
 ,-1.25505328\C,0,1.263939,-0.11117656,-0.06410197\O,0,2.63614128,-0.22
 479262,-0.16315342\C,0,0.240421,-1.19727026,0.33924977\C,0,0.44637027,
 0.89456246,0.77763216\H,0,-2.54312134,-0.51392708,-0.68414291\H,0,-2.4
 6576109,0.03830332,0.99306191\H,0,-2.37176802,1.20857183,-0.3278657\H,

 Normal termination of Gaussian 16 at Wed Apr  9 18:46:01 2025.
