 Gaussian 16, Revision C.01,

 ----------------------------------------------------------------------
 #t hf aug-cc-pvdz symm=none int=(grid=ultrafine) guess=(read,tcheck) s
 table=(opt,rrhf)
 ----------------------------------------------------------------------
 -----
 title
 -----
 Symbolic Z-matrix:
 Charge =  0 Multiplicity = 1

 SCF Done:  E(RHF) =  -306.552332601     A.U. after   16 cycles
 Normal termination of Gaussian 16 at Wed Apr  9 03:51:45 2025.
 Gaussian 16:  ES64L-G16RevC.01  3-Jul-2019

 ----------------------------------------------------------------------
 #t hf aug-cc-pvdz iop(5/13=1,5/36=2,99/5=2) pseudo=read geom=check gue
 ss=(read,tcheck) scf=(maxcycle=1)
 ----------------------------------------------------------------------
 -----
 title
 -----
 Structure from the checkpoint file:  "Grambow2020_wb97xd3_008176_forward_mol1.chk"
 Charge =  0 Multiplicity = 1

                         Standard orientation:
 ---------------------------------------------------------------------
 Center     Atomic      Atomic             Coordinates (Angstroms)
 Number     Number       Type             X           Y           Z
 ---------------------------------------------------------------------
      1          6           0       -1.494218   -0.602847    0.210011
      2          6           0       -1.007933    0.553106   -0.638223
      3          8           0       -0.228920    1.352294    0.151719
      4          6           0        0.651967    0.421530    0.788942
      5          6           0        1.658620   -0.010498   -0.284714
      6          6           0        0.618106   -0.951424   -0.859256
      7          6           0       -0.065304   -0.942659    0.560575
      8          1           0       -2.160922   -0.307268    1.023560
      9          1           0       -1.948893   -1.387152   -0.395603
     10          1           0       -1.640990    1.130408   -1.309130
     11          1           0        0.947653    0.815493    1.760941
     12          1           0        2.157803    0.732085   -0.907739
     13          1           0        2.402312   -0.659542    0.189012
     14          1           0       -0.259253   -0.174795   -1.463404
     15          1           0        0.166215   -1.770825    1.224601
 ---------------------------------------------------------------------

 SCF Done:  E(RHF) =  -306.870977285     A.U. after    2 cycles

 The electronic state is 1-A.
 Alpha  occ. eigenvalues --  -20.57249 -11.33466 -11.29693 -11.25175 -11.24649
 Alpha  occ. eigenvalues --  -11.24618 -11.23396  -1.51526  -1.16154  -1.05838
 Alpha  occ. eigenvalues --   -0.93745  -0.85256  -0.80059  -0.77281  -0.71788
 Alpha  occ. eigenvalues --   -0.66103  -0.64817  -0.60107  -0.58916  -0.54477
 Alpha  occ. eigenvalues --   -0.52945  -0.51226  -0.47538  -0.45388  -0.42486
 Alpha  occ. eigenvalues --   -0.32078
 Alpha virt. eigenvalues --    0.03179   0.03501   0.03951   0.04457   0.05831
 Alpha virt. eigenvalues --    0.06122   0.06219   0.07750   0.09434   0.10847
 Alpha virt. eigenvalues --    0.12269   0.12538   0.13254   0.13761   0.13812

 Mulliken charges:
               1
     1  C    0.055673
     2  C    0.349414
     3  O   -1.518108
     4  C    1.206782
     5  C   -0.049760
     6  C   -0.605726
     7  C   -0.126677
     8  H    0.045611
     9  H    0.153281
    10  H   -0.070490
    11  H   -0.053183
    12  H   -0.028958
    13  H    0.179043
    14  H    0.580983
    15  H   -0.117885
 Sum of Mulliken charges =  -0.00000

 Dipole moment (field-independent basis, Debye):
    X=             -0.8491    Y=              0.4860    Z=              1.6290  Tot=              1.9002

 Test job not archived.
 1\1\GINC-SE115\SP\RHF\Aug-CC-pVDZ\C6H8O1\OHZDE\09-Apr-2025\0\\#t hf au
 g-cc-pvdz iop(5/13=1,5/36=2,99/5=2) pseudo=read geom=check guess=(read
 ,tcheck) scf=(maxcycle=1)\\title\\0,1\C,0,-1.5250708,-0.1008463,-0.443
 87874\C,0,-0.92246622,-0.58025514,0.85966869\O,0,0.09549874,-1.4416766
 6,0.55755963\C,0,0.84009663,-0.73056795,-0.43654065\C,0,1.59561855,0.3
 7483717,0.31179125\C,0,0.32161917,1.19536694,0.3538163\C,0,-0.16337017
 ,0.36881223,-0.89703928\H,0,-2.01076337,-0.88835318,-1.02496234\H,0,-2
 .20212125,0.74019826,-0.29261594\H,0,-1.5028003,-0.91469218,1.71729227

 Normal termination of Gaussian 16 at Wed Apr  9 03:51:51 2025.
