 Gaussian 16, Revision C.01,

 ----------------------------------------------------------------------
 #t hf aug-cc-pvdz symm=none int=(grid=ultrafine) guess=(read,tcheck) s
 table=(opt,rrhf)
 ----------------------------------------------------------------------
 -----
 title
 -----
 Symbolic Z-matrix:
 Charge =  0 Multiplicity = 1

 SCF Done:  E(RHF) =  -304.662572773     A.U. after   14 cycles
 Normal termination of Gaussian 16 at Wed Apr  9 03:15:51 2025.
 Gaussian 16:  ES64L-G16RevC.01  3-Jul-2019

 ----------------------------------------------------------------------
 #t hf aug-cc-pvdz iop(5/13=1,5/36=2,99/5=2) pseudo=read geom=check gue
 ss=(read,tcheck) scf=(maxcycle=1)
 ----------------------------------------------------------------------
 -----
 title
 -----
 Structure from the checkpoint file:  "Grambow2020_b97d3_006985_reverse_mol2.chk"
 Charge =  0 Multiplicity = 1

                         Standard orientation:
 ---------------------------------------------------------------------
 Center     Atomic      Atomic             Coordinates (Angstroms)
 Number     Number       Type             X           Y           Z
 ---------------------------------------------------------------------
      1          6           0       -2.133001   -0.112368    0.476466
      2          6           0       -0.974935    0.105107   -0.473795
      3          6           0        0.092823    1.130028   -0.141863
      4          6           0        0.930399    0.072972   -0.012111
      5          8           0        2.206196   -0.230575    0.278578
      6          8           0        0.079559   -0.967383   -0.290824
      7          1           0       -1.776438   -0.148176    1.513286
      8          1           0       -2.662519   -1.047158    0.242647
      9          1           0       -2.846232    0.719410    0.380170
     10          1           0       -1.291863    0.068470   -1.525701
     11          1           0        2.672418    0.609960    0.446447
     12          1           0        0.126878    2.206735   -0.051060
 ---------------------------------------------------------------------

 SCF Done:  E(RHF) =  -304.971934186     A.U. after    2 cycles

 The electronic state is 1-A.
 Alpha  occ. eigenvalues --  -20.60912 -20.56798 -11.37483 -11.31056 -11.23529
 Alpha  occ. eigenvalues --  -11.22380  -1.54009  -1.47532  -1.05854  -0.99790
 Alpha  occ. eigenvalues --   -0.86685  -0.77629  -0.71474  -0.68727  -0.66607
 Alpha  occ. eigenvalues --   -0.60821  -0.59263  -0.56141  -0.54745  -0.51196
 Alpha  occ. eigenvalues --   -0.49230  -0.47247  -0.33256
 Alpha virt. eigenvalues --    0.02914   0.03851   0.04640   0.04724   0.06533
 Alpha virt. eigenvalues --    0.06918   0.10110   0.10665   0.11770   0.12296
 Alpha virt. eigenvalues --    0.13475   0.15067   0.15289   0.15895   0.16186

 Mulliken charges:
               1
     1  C   -0.464068
     2  C    0.445143
     3  C    0.059806
     4  C    1.774339
     5  O   -1.323309
     6  O   -1.342921
     7  H    0.217209
     8  H    0.200992
     9  H    0.230609
    10  H    0.032797
    11  H    0.344450
    12  H   -0.175047
 Sum of Mulliken charges =  -0.00000

 Dipole moment (field-independent basis, Debye):
    X=             -0.1562    Y=              2.5954    Z=              0.2875  Tot=              2.6159

 Test job not archived.
 1\1\GINC-SE073\SP\RHF\Aug-CC-pVDZ\C4H6O2\OHZDE\09-Apr-2025\0\\#t hf au
 g-cc-pvdz iop(5/13=1,5/36=2,99/5=2) pseudo=read geom=check guess=(read
 ,tcheck) scf=(maxcycle=1)\\title\\0,1\C,0,-1.65572573,-0.30399258,0.46
 096849\C,0,-0.53361863,-0.03643341,-0.51918207\C,0,0.58331224,0.919817
 09,-0.14662468\C,0,1.38785078,-0.17033035,-0.15242714\O,0,2.66365908,-
 0.53899132,0.04931964\O,0,0.48928676,-1.15360461,-0.48364042\H,0,-1.25
 538298,-0.44599725,1.47239103\H,0,-2.22776918,-1.19635854,0.16883571\H
 ,0,-2.34261822,0.55498286,0.47385521\H,0,-0.89761735,0.03361699,-1.554

 Normal termination of Gaussian 16 at Wed Apr  9 03:15:55 2025.
