 Gaussian 16, Revision C.01,

 ----------------------------------------------------------------------
 #t hf aug-cc-pvdz symm=none int=(grid=ultrafine) guess=(read,tcheck) s
 table=(opt,rrhf)
 ----------------------------------------------------------------------
 -----
 title
 -----
 Symbolic Z-matrix:
 Charge =  0 Multiplicity = 1

 SCF Done:  E(RHF) =  -344.772536456     A.U. after   15 cycles

 1\1\GINC-SE173\Stability\RHF\Aug-CC-pVDZ\C5H10O2\OHZDE\09-Apr-2025\0\\
 #t hf aug-cc-pvdz symm=none int=(grid=ultrafine) guess=(read,tcheck) s
 table=(opt,rrhf)\\title\\0,1\C,0,2.22927291,0.56700411,-0.75435145\C,0
 ,1.12839216,-0.2956583,-0.19363297\C,0,0.32268537,-0.30380141,1.864581
 66\O,0,-0.83076537,0.22140543,1.39528351\C,0,-1.17302447,-0.29687325,0
 .1238957\C,0,-2.43772384,0.32376611,-0.39110004\O,0,-0.09314358,0.0686
 941,-0.70255122\H,0,2.29133263,0.43281644,-1.83630638\H,0,3.188513,0.2
 8858344,-0.31740777\H,0,2.03396444,1.61924642,-0.54619482\H,0,1.328872

 Normal termination of Gaussian 16 at Wed Apr  9 18:07:54 2025.
 Gaussian 16:  ES64L-G16RevC.01  3-Jul-2019

 ----------------------------------------------------------------------
 #t hf aug-cc-pvdz iop(5/13=1,5/36=2,99/5=2) pseudo=read geom=check gue
 ss=(read,tcheck) scf=(maxcycle=1)
 ----------------------------------------------------------------------
 -----
 title
 -----
 Structure from the checkpoint file:  "Grambow2020_wb97xd3_007113_reverse_mol1.chk"
 Charge =  0 Multiplicity = 1

                         Standard orientation:
 ---------------------------------------------------------------------
 Center     Atomic      Atomic             Coordinates (Angstroms)
 Number     Number       Type             X           Y           Z
 ---------------------------------------------------------------------
      1          6           0        2.460261   -0.625748   -0.325284
      2          6           0        1.261825   -0.062446    0.393724
      3          6           0        0.159116    1.799899   -0.054808
      4          8           0       -0.894734    1.056603   -0.459088
      5          6           0       -1.060123   -0.105947    0.330409
      6          6           0       -2.214152   -0.931232   -0.156417
      7          8           0        0.141548   -0.818765    0.155267
      8          1           0        2.678321   -1.629110    0.046468
      9          1           0        3.334678    0.002410   -0.153845
     10          1           0        2.269135   -0.687066   -1.396918
     11          1           0        1.437044    0.136171    1.453500
     12          1           0        1.196892    1.105814   -0.243758
     13          1           0        0.124786    1.919412    1.045636
     14          1           0       -1.161718    0.198523    1.384180
     15          1           0       -2.059091   -1.195446   -1.201916
     16          1           0       -2.299957   -1.841993    0.435264
     17          1           0       -3.136167   -0.358573   -0.063787
 ---------------------------------------------------------------------

 SCF Done:  E(RHF) =  -345.131496489     A.U. after    2 cycles

 The electronic state is 1-A.
 Alpha  occ. eigenvalues --  -20.57867 -20.57072 -11.35488 -11.33627 -11.28789
 Alpha  occ. eigenvalues --  -11.24848 -11.23769  -1.55304  -1.46628  -1.08558
 Alpha  occ. eigenvalues --   -1.01360  -0.91078  -0.85985  -0.83548  -0.74729
 Alpha  occ. eigenvalues --   -0.70750  -0.65784  -0.64912  -0.59286  -0.58660
 Alpha  occ. eigenvalues --   -0.57057  -0.55895  -0.54643  -0.52450  -0.51580
 Alpha  occ. eigenvalues --   -0.47192  -0.44808  -0.32993
 Alpha virt. eigenvalues --    0.03203   0.03731   0.03860   0.04790   0.05797
 Alpha virt. eigenvalues --    0.06245   0.06383   0.07158   0.08589   0.09270
 Alpha virt. eigenvalues --    0.11610   0.12356   0.12916   0.14073   0.14096

 Mulliken charges:
               1
     1  C   -0.461206
     2  C    0.153474
     3  C   -0.160166
     4  O   -1.276888
     5  C    1.690957
     6  C   -0.517732
     7  O   -1.527049
     8  H    0.187588
     9  H    0.153257
    10  H    0.186599
    11  H   -0.007701
    12  H    0.675019
    13  H    0.299610
    14  H   -0.011382
    15  H    0.234151
    16  H    0.197964
    17  H    0.183507
 Sum of Mulliken charges =  -0.00000

 Dipole moment (field-independent basis, Debye):
    X=              0.5618    Y=             -2.3677    Z=              2.2019  Tot=              3.2818

 Test job not archived.
 1\1\GINC-SE173\SP\RHF\Aug-CC-pVDZ\C5H10O2\OHZDE\09-Apr-2025\0\\#t hf a
 ug-cc-pvdz iop(5/13=1,5/36=2,99/5=2) pseudo=read geom=check guess=(rea
 d,tcheck) scf=(maxcycle=1)\\title\\0,1\C,0,2.22927291,0.56700411,-0.75
 435145\C,0,1.12839216,-0.2956583,-0.19363297\C,0,0.32268537,-0.3038014
 1,1.86458166\O,0,-0.83076537,0.22140543,1.39528351\C,0,-1.17302447,-0.
 29687325,0.1238957\C,0,-2.43772384,0.32376611,-0.39110004\O,0,-0.09314
 358,0.0686941,-0.70255122\H,0,2.29133263,0.43281644,-1.83630638\H,0,3.
 188513,0.28858344,-0.31740777\H,0,2.03396444,1.61924642,-0.54619482\H,

 Normal termination of Gaussian 16 at Wed Apr  9 18:08:01 2025.
