 Gaussian 16, Revision C.01,

 ----------------------------------------------------------------------
 #t hf aug-cc-pvdz symm=none int=(grid=ultrafine) guess=(read,tcheck) s
 table=(opt,rrhf)
 ----------------------------------------------------------------------
 -----
 title
 -----
 Symbolic Z-matrix:
 Charge =  0 Multiplicity = 1

 SCF Done:  E(RHF) =  -355.960759730     A.U. after   14 cycles
 Normal termination of Gaussian 16 at Wed Apr  9 03:58:50 2025.
 Gaussian 16:  ES64L-G16RevC.01  3-Jul-2019

 ----------------------------------------------------------------------
 #t hf aug-cc-pvdz iop(5/13=1,5/36=2,99/5=2) pseudo=read geom=check gue
 ss=(read,tcheck) scf=(maxcycle=1)
 ----------------------------------------------------------------------
 -----
 title
 -----
 Structure from the checkpoint file:  "Grambow2020_wb97xd3_008714_forward_mol2.chk"
 Charge =  0 Multiplicity = 1

                         Standard orientation:
 ---------------------------------------------------------------------
 Center     Atomic      Atomic             Coordinates (Angstroms)
 Number     Number       Type             X           Y           Z
 ---------------------------------------------------------------------
      1          6           0        2.491750   -0.437131    0.006808
      2          7           0        1.083270   -0.755197    0.015512
      3          6           0        0.264534    0.218407   -0.004284
      4          7           0        0.524451    1.545819   -0.047294
      5          6           0       -1.230677   -0.075936    0.001890
      6          8           0       -2.042611    0.829433    0.025328
      7          7           0       -1.521411   -1.382967   -0.017063
      8          1           0        2.785796    0.146616    0.889972
      9          1           0        2.775183    0.139021   -0.884119
     10          1           0        3.076455   -1.355540    0.009683
     11          1           0       -0.268774    2.160480    0.029184
     12          1           0        1.448812    1.904308    0.093166
     13          1           0       -0.755327   -2.036058   -0.021847
     14          1           0       -2.479063   -1.679926   -0.003237
 ---------------------------------------------------------------------

 SCF Done:  E(RHF) =  -356.325231936     A.U. after    2 cycles

 The electronic state is 1-A.
 Alpha  occ. eigenvalues --  -20.52018 -15.52650 -15.52578 -15.48468 -11.36678
 Alpha  occ. eigenvalues --  -11.32845 -11.26097  -1.47213  -1.28528  -1.23195
 Alpha  occ. eigenvalues --   -1.17786  -0.98818  -0.88862  -0.82305  -0.79190
 Alpha  occ. eigenvalues --   -0.75538  -0.69863  -0.67292  -0.64020  -0.61662
 Alpha  occ. eigenvalues --   -0.59555  -0.58138  -0.53405  -0.47569  -0.44108
 Alpha  occ. eigenvalues --   -0.43128  -0.40500
 Alpha virt. eigenvalues --    0.03101   0.04240   0.04575   0.05466   0.05818
 Alpha virt. eigenvalues --    0.06992   0.07877   0.09565   0.10662   0.11343
 Alpha virt. eigenvalues --    0.11581   0.13702   0.13838   0.14132   0.15311

 Mulliken charges:
               1
     1  C   -0.330063
     2  N    0.916589
     3  C   -2.177287
     4  N    0.816923
     5  C    0.770148
     6  O   -1.440808
     7  N    0.803863
     8  H    0.154159
     9  H    0.166607
    10  H   -0.071929
    11  H    0.148169
    12  H    0.028586
    13  H    0.148927
    14  H    0.066115
 Sum of Mulliken charges =  -0.00000

 Dipole moment (field-independent basis, Debye):
    X=              1.9239    Y=             -0.0767    Z=              0.2513  Tot=              1.9417

 Test job not archived.
 1\1\GINC-SE120\SP\RHF\Aug-CC-pVDZ\C3H7N3O1\OHZDE\09-Apr-2025\0\\#t hf
 aug-cc-pvdz iop(5/13=1,5/36=2,99/5=2) pseudo=read geom=check guess=(re
 ad,tcheck) scf=(maxcycle=1)\\title\\0,1\C,0,1.8942072,0.72047204,-0.48
 740641\N,0,0.45276455,0.72574186,-0.40212022\C,0,-0.1020962,-0.2661836
 6,0.16957711\N,0,0.47472352,-1.35032185,0.73821993\C,0,-1.62158979,-0.
 29680814,0.28152973\O,0,-2.18905019,-1.24795568,0.78430884\N,0,-2.2195
 6028,0.79213975,-0.21830882\H,0,2.26758682,-0.1350466,-1.06695669\H,0,
 2.36226367,0.68144704,0.50528534\H,0,2.23692303,1.62782266,-0.98200136

 Normal termination of Gaussian 16 at Wed Apr  9 03:58:55 2025.
