 Gaussian 16, Revision C.01,

 ----------------------------------------------------------------------
 #t hf aug-cc-pvdz symm=none int=(grid=ultrafine) guess=(read,tcheck) s
 table=(opt,rrhf)
 ----------------------------------------------------------------------
 -----
 title
 -----
 Symbolic Z-matrix:
 Charge =  0 Multiplicity = 1

 SCF Done:  E(RHF) =  -344.930932068     A.U. after   13 cycles

 1\1\GINC-SE229\Stability\RHF\Aug-CC-pVDZ\C5H10O2\OHZDE\09-Apr-2025\0\\
 #t hf aug-cc-pvdz symm=none int=(grid=ultrafine) guess=(read,tcheck) s
 table=(opt,rrhf)\\title\\0,1\C,0,-2.373516,-0.53545983,-0.39709385\C,0
 ,-1.16753617,0.36077074,-0.63815366\C,0,0.09896042,-0.15964941,0.02065
 562\O,0,0.40729414,-1.41232949,-0.55756157\C,0,1.26251273,0.8115016,-0
 .14800048\C,0,2.54110545,0.35181259,0.48916428\O,0,2.69503499,-0.71865
 834,1.01894903\H,0,-3.2634642,-0.1343442,-0.88462188\H,0,-2.19223683,-
 1.53766254,-0.78505343\H,0,-2.58902158,-0.62349158,0.67076459\H,0,-0.9

 Normal termination of Gaussian 16 at Wed Apr  9 18:37:38 2025.
 Gaussian 16:  ES64L-G16RevC.01  3-Jul-2019

 ----------------------------------------------------------------------
 #t hf aug-cc-pvdz iop(5/13=1,5/36=2,99/5=2) pseudo=read geom=check gue
 ss=(read,tcheck) scf=(maxcycle=1)
 ----------------------------------------------------------------------
 -----
 title
 -----
 Structure from the checkpoint file:  "Grambow2020_wb97xd3_007828_forward_mol2.chk"
 Charge =  0 Multiplicity = 1

                         Standard orientation:
 ---------------------------------------------------------------------
 Center     Atomic      Atomic             Coordinates (Angstroms)
 Number     Number       Type             X           Y           Z
 ---------------------------------------------------------------------
      1          6           0        2.808554   -0.222734   -0.324050
      2          6           0        1.649947    0.661542    0.113458
      3          6           0        0.291929    0.033251   -0.150963
      4          8           0        0.204139   -1.152016    0.614574
      5          6           0       -0.847433    0.984697    0.198379
      6          6           0       -2.215257    0.418878   -0.048599
      7          8           0       -2.434049   -0.709663   -0.407486
      8          1           0        3.766844    0.256780   -0.118305
      9          1           0        2.783426   -1.177840    0.200282
     10          1           0        2.761527   -0.427968   -1.396516
     11          1           0        1.724348    0.874195    1.184970
     12          1           0        1.694616    1.624473   -0.404959
     13          1           0        0.218176   -0.213217   -1.220633
     14          1           0       -0.605279   -1.598781    0.347372
     15          1           0       -0.771203    1.923605   -0.362290
     16          1           0       -0.798932    1.263363    1.258800
     17          1           0       -3.060680    1.115009    0.125227
 ---------------------------------------------------------------------

 SCF Done:  E(RHF) =  -345.291115223     A.U. after    2 cycles

 The electronic state is 1-A.
 Alpha  occ. eigenvalues --  -20.55997 -20.53762 -11.35491 -11.29046 -11.25474
 Alpha  occ. eigenvalues --  -11.23089 -11.21880  -1.49596  -1.44619  -1.08708
 Alpha  occ. eigenvalues --   -1.02736  -0.91076  -0.82018  -0.78814  -0.71711
 Alpha  occ. eigenvalues --   -0.69349  -0.65306  -0.63325  -0.60713  -0.58917
 Alpha  occ. eigenvalues --   -0.57049  -0.53355  -0.51414  -0.51239  -0.49404
 Alpha  occ. eigenvalues --   -0.48186  -0.43968  -0.42133
 Alpha virt. eigenvalues --    0.02975   0.03647   0.03934   0.04742   0.05644
 Alpha virt. eigenvalues --    0.06316   0.06909   0.07241   0.08866   0.09637
 Alpha virt. eigenvalues --    0.10711   0.11209   0.11745   0.13686   0.15099

 Mulliken charges:
               1
     1  C   -0.391880
     2  C   -0.194753
     3  C    0.802981
     4  O   -1.322539
     5  C   -0.542063
     6  C    1.110988
     7  O   -1.174916
     8  H    0.130771
     9  H    0.202523
    10  H    0.152808
    11  H    0.127880
    12  H    0.129772
    13  H    0.116025
    14  H    0.325695
    15  H    0.198374
    16  H    0.223391
    17  H    0.104942
 Sum of Mulliken charges =  -0.00000

 Dipole moment (field-independent basis, Debye):
    X=             -0.1458    Y=              3.0898    Z=             -0.2146  Tot=              3.1006

 Test job not archived.
 1\1\GINC-SE229\SP\RHF\Aug-CC-pVDZ\C5H10O2\OHZDE\09-Apr-2025\0\\#t hf a
 ug-cc-pvdz iop(5/13=1,5/36=2,99/5=2) pseudo=read geom=check guess=(rea
 d,tcheck) scf=(maxcycle=1)\\title\\0,1\C,0,-2.373516,-0.53545983,-0.39
 709385\C,0,-1.16753617,0.36077074,-0.63815366\C,0,0.09896042,-0.159649
 41,0.02065562\O,0,0.40729414,-1.41232949,-0.55756157\C,0,1.26251273,0.
 8115016,-0.14800048\C,0,2.54110545,0.35181259,0.48916428\O,0,2.6950349
 9,-0.71865834,1.01894903\H,0,-3.2634642,-0.1343442,-0.88462188\H,0,-2.
 19223683,-1.53766254,-0.78505343\H,0,-2.58902158,-0.62349158,0.6707645

 Normal termination of Gaussian 16 at Wed Apr  9 18:37:44 2025.
