 Gaussian 16, Revision C.01,

 ----------------------------------------------------------------------
 #t hf aug-cc-pvdz symm=none int=(grid=ultrafine) guess=(read,tcheck) s
 table=(opt,rrhf)
 ----------------------------------------------------------------------
 -----
 title
 -----
 Symbolic Z-matrix:
 Charge =  0 Multiplicity = 1

 SCF Done:  E(RHF) =  -359.674529367     A.U. after   15 cycles
 Normal termination of Gaussian 16 at Wed Apr  9 03:52:39 2025.
 Gaussian 16:  ES64L-G16RevC.01  3-Jul-2019

 ----------------------------------------------------------------------
 #t hf aug-cc-pvdz iop(5/13=1,5/36=2,99/5=2) pseudo=read geom=check gue
 ss=(read,tcheck) scf=(maxcycle=1)
 ----------------------------------------------------------------------
 -----
 title
 -----
 Structure from the checkpoint file:  "Grambow2020_wb97xd3_008267_forward_mol1.chk"
 Charge =  0 Multiplicity = 1

                         Standard orientation:
 ---------------------------------------------------------------------
 Center     Atomic      Atomic             Coordinates (Angstroms)
 Number     Number       Type             X           Y           Z
 ---------------------------------------------------------------------
      1          6           0       -2.155041   -0.844115   -0.112858
      2          6           0       -1.372603    0.355230   -0.408700
      3          6           0       -0.666581    1.252830    0.501534
      4          7           0        0.581262    0.990013   -0.164842
      5          6           0        1.240127   -0.315132    0.025441
      6          8           0        2.429945   -0.325861   -0.222213
      7          8           0        0.408996   -1.168207    0.393885
      8          1           0       -2.078943   -1.155656    0.923045
      9          1           0       -1.868968   -1.670128   -0.764123
     10          1           0       -3.192585   -0.578594   -0.374634
     11          1           0       -1.398376    0.715938   -1.432338
     12          1           0       -0.689507    0.962900    1.550564
     13          1           0       -0.954949    2.296891    0.370596
     14          1           0        1.127547    1.758226   -0.525093
 ---------------------------------------------------------------------

 SCF Done:  E(RHF) =  -360.038178957     A.U. after    2 cycles

 The electronic state is 1-A.
 Alpha  occ. eigenvalues --  -20.46479 -20.45671 -15.53190 -11.41014 -11.35119
 Alpha  occ. eigenvalues --  -11.32594 -11.28875  -1.45042  -1.36820  -1.25410
 Alpha  occ. eigenvalues --   -1.11725  -1.00002  -0.86760  -0.80835  -0.72525
 Alpha  occ. eigenvalues --   -0.71039  -0.68026  -0.64705  -0.61781  -0.59650
 Alpha  occ. eigenvalues --   -0.58890  -0.57717  -0.55801  -0.43985  -0.41307
 Alpha  occ. eigenvalues --   -0.38295  -0.37429
 Alpha virt. eigenvalues --    0.00396   0.01226   0.02617   0.03045   0.04588
 Alpha virt. eigenvalues --    0.05377   0.06171   0.06878   0.09417   0.10876
 Alpha virt. eigenvalues --    0.12124   0.12440   0.12949   0.13350   0.14072

 Mulliken charges:
               1
     1  C   -0.569603
     2  C    0.325014
     3  C   -0.284060
     4  N    0.548304
     5  C    1.207952
     6  O   -1.157850
     7  O   -1.113002
     8  H    0.270782
     9  H    0.344853
    10  H    0.258272
    11  H   -0.146012
    12  H    0.064356
    13  H    0.124641
    14  H    0.126354
 Sum of Mulliken charges =  -0.00000

 Dipole moment (field-independent basis, Debye):
    X=             -9.3248    Y=              4.8316    Z=             -1.0168  Tot=             10.5513

 Test job not archived.
 1\1\GINC-SE174\SP\RHF\Aug-CC-pVDZ\C4H7N1O2\OHZDE\09-Apr-2025\0\\#t hf
 aug-cc-pvdz iop(5/13=1,5/36=2,99/5=2) pseudo=read geom=check guess=(re
 ad,tcheck) scf=(maxcycle=1)\\title\\0,1\C,0,-1.58749116,-0.91878378,-0
 .17825378\C,0,-0.65420685,0.13890375,-0.56353052\C,0,-0.04054243,1.181
 07949,0.25498345\N,0,1.27573871,0.70812828,-0.08259859\C,0,1.76263552,
 -0.55271459,0.50640293\O,0,2.97106499,-0.68237208,0.50461967\O,0,0.801
 60927,-1.25461174,0.87793156\H,0,-1.72821238,-0.99053689,0.89458948\H,
 0,-1.26927529,-1.88506068,-0.5698262\H,0,-2.53129971,-0.66509766,-0.68

 Normal termination of Gaussian 16 at Wed Apr  9 03:52:44 2025.
