 Gaussian 16, Revision C.01,

 ----------------------------------------------------------------------
 #t hf aug-cc-pvdz symm=none int=(grid=ultrafine) guess=(read,tcheck) s
 table=(opt,rrhf)
 ----------------------------------------------------------------------
 -----
 title
 -----
 Symbolic Z-matrix:
 Charge =  0 Multiplicity = 1

 SCF Done:  E(RHF) =  -268.724611407     A.U. after   16 cycles
 Normal termination of Gaussian 16 at Wed Apr  9 15:59:54 2025.
 Gaussian 16:  ES64L-G16RevC.01  3-Jul-2019

 ----------------------------------------------------------------------
 #t hf aug-cc-pvdz iop(5/13=1,5/36=2,99/5=2) pseudo=read geom=check gue
 ss=(read,tcheck) scf=(maxcycle=1)
 ----------------------------------------------------------------------
 -----
 title
 -----
 Structure from the checkpoint file:  "Grambow2020_b97d3_007071_reverse_mol2.chk"
 Charge =  0 Multiplicity = 1

                         Standard orientation:
 ---------------------------------------------------------------------
 Center     Atomic      Atomic             Coordinates (Angstroms)
 Number     Number       Type             X           Y           Z
 ---------------------------------------------------------------------
      1          6           0        1.940454   -0.739048   -0.079138
      2          6           0        0.556280   -0.172085   -0.052332
      3          6           0        0.170228    1.166712   -0.165842
      4          6           0       -1.229744    1.013111   -0.077167
      5          8           0       -1.764420   -0.226407    0.082777
      6          6           0       -0.615496   -1.107565    0.109423
      7          1           0        2.125311   -1.393388    0.789553
      8          1           0        2.686645    0.060624   -0.094843
      9          1           0        2.083253   -1.371743   -0.972563
     10          1           0        2.491698    2.518144    0.382712
     11          1           0        3.180566    2.745154    0.576920
     12          1           0       -2.014754    1.769835   -0.117897
     13          1           0       -0.737162   -1.837820   -0.703826
     14          1           0       -0.630533   -1.646302    1.068066
 ---------------------------------------------------------------------

 SCF Done:  E(RHF) =  -269.004874421     A.U. after    2 cycles

 The electronic state is 1-A.
 Alpha  occ. eigenvalues --  -20.61912 -11.36296 -11.32356 -11.29491 -11.25088
 Alpha  occ. eigenvalues --  -11.18091  -1.53847  -1.10971  -1.02274  -0.97074
 Alpha  occ. eigenvalues --   -0.82066  -0.75942  -0.70502  -0.69212  -0.61791
 Alpha  occ. eigenvalues --   -0.59465  -0.58526  -0.55692  -0.54541  -0.52533
 Alpha  occ. eigenvalues --   -0.51626  -0.36464  -0.33218
 Alpha virt. eigenvalues --    0.02904   0.02955   0.03613   0.04784   0.04908
 Alpha virt. eigenvalues --    0.06800   0.06954   0.08314   0.08925   0.10284
 Alpha virt. eigenvalues --    0.11069   0.12546   0.13346   0.14016   0.14397

 Mulliken charges:
               1
     1  C   -0.614407
     2  C    0.320090
     3  C   -0.825541
     4  C    1.072484
     5  O   -1.318446
     6  C    0.355154
     7  H    0.254783
     8  H    0.128414
     9  H    0.300125
    10  H    0.034258
    11  H   -0.028305
    12  H   -0.007228
    13  H    0.161033
    14  H    0.167585
 Sum of Mulliken charges =  -0.00000

 Dipole moment (field-independent basis, Debye):
    X=             -1.2545    Y=             -3.9012    Z=              0.3484  Tot=              4.1127

 Test job not archived.
 1\1\GINC-SE129\SP\RHF\Aug-CC-pVDZ\C5H8O1\OHZDE\09-Apr-2025\0\\#t hf au
 g-cc-pvdz iop(5/13=1,5/36=2,99/5=2) pseudo=read geom=check guess=(read
 ,tcheck) scf=(maxcycle=1)\\title\\0,1\C,0,-1.43848715,0.62372892,0.154
 20259\C,0,-0.1538086,-0.14270616,0.13744709\C,0,1.15048835,0.36021465,
 0.12412427\C,0,1.86802634,-0.85490531,0.12534819\O,0,1.19563947,-2.036
 32155,0.12943071\C,0,-0.20003194,-1.65009072,0.13957105\H,0,-2.1191250
 6,0.28787188,-0.64635316\H,0,-1.25168554,1.69586382,0.04394603\H,0,-1.
 97800604,0.45583808,1.10269351\H,0,0.79421012,2.95443975,-0.68801161\H

 Normal termination of Gaussian 16 at Wed Apr  9 15:59:58 2025.
