 Gaussian 16, Revision C.01,

 ----------------------------------------------------------------------
 #t hf aug-cc-pvdz symm=none int=(grid=ultrafine) guess=(read,tcheck) s
 table=(opt,rrhf)
 ----------------------------------------------------------------------
 -----
 title
 -----
 Symbolic Z-matrix:
 Charge =  0 Multiplicity = 1

 SCF Done:  E(RHF) =  -323.922901507     A.U. after   15 cycles
 Normal termination of Gaussian 16 at Wed Apr  9 18:16:23 2025.
 Gaussian 16:  ES64L-G16RevC.01  3-Jul-2019

 ----------------------------------------------------------------------
 #t hf aug-cc-pvdz iop(5/13=1,5/36=2,99/5=2) pseudo=read geom=check gue
 ss=(read,tcheck) scf=(maxcycle=1)
 ----------------------------------------------------------------------
 -----
 title
 -----
 Structure from the checkpoint file:  "Grambow2020_wb97xd3_007254_reverse_mol2.chk"
 Charge =  0 Multiplicity = 1

                         Standard orientation:
 ---------------------------------------------------------------------
 Center     Atomic      Atomic             Coordinates (Angstroms)
 Number     Number       Type             X           Y           Z
 ---------------------------------------------------------------------
      1          6           0       -1.612528   -1.577268    0.037530
      2          6           0       -0.503881   -0.571516    0.064698
      3          6           0       -1.222816    1.785791   -0.404411
      4          6           0       -0.813535    0.777536    0.671235
      5          8           0        2.424299    0.158117    0.529298
      6          6           0        1.738223   -0.067132   -0.433470
      7          7           0        0.616002   -0.872779   -0.444128
      8          1           0       -1.320192   -2.460504   -0.525215
      9          1           0       -2.512986   -1.140680   -0.402174
     10          1           0       -1.866107   -1.866452    1.060785
     11          1           0       -1.470580    2.747023    0.046520
     12          1           0       -0.411488    1.950151   -1.116026
     13          1           0       -2.095025    1.442778   -0.964633
     14          1           0        0.063788    1.138718    1.208852
     15          1           0       -1.621049    0.663215    1.397329
     16          1           0        2.014456    0.285796   -1.444415
 ---------------------------------------------------------------------

 SCF Done:  E(RHF) =  -324.259481627     A.U. after    2 cycles

 The electronic state is 1-A.
 Alpha  occ. eigenvalues --  -20.53208 -15.50649 -11.35867 -11.32014 -11.25354
 Alpha  occ. eigenvalues --  -11.24950 -11.24934  -1.47491  -1.26111  -1.07875
 Alpha  occ. eigenvalues --   -1.01919  -0.91440  -0.88421  -0.74889  -0.69826
 Alpha  occ. eigenvalues --   -0.67341  -0.66195  -0.61726  -0.60576  -0.58078
 Alpha  occ. eigenvalues --   -0.56641  -0.54795  -0.52933  -0.51462  -0.46657
 Alpha  occ. eigenvalues --   -0.45556  -0.41594
 Alpha virt. eigenvalues --    0.03103   0.03522   0.03696   0.04433   0.05659
 Alpha virt. eigenvalues --    0.06319   0.07245   0.07579   0.08490   0.10109
 Alpha virt. eigenvalues --    0.11179   0.11666   0.12446   0.13588   0.14080

 Mulliken charges:
               1
     1  C   -0.554975
     2  C   -1.278045
     3  C   -0.307808
     4  C   -0.118947
     5  O   -1.072400
     6  C    0.766195
     7  N    1.027747
     8  H    0.157471
     9  H    0.243410
    10  H    0.283267
    11  H    0.124534
    12  H    0.161978
    13  H    0.170112
    14  H    0.167650
    15  H    0.121938
    16  H    0.107874
 Sum of Mulliken charges =  -0.00000

 Dipole moment (field-independent basis, Debye):
    X=             -4.2443    Y=              0.9922    Z=             -0.7690  Tot=              4.4261

 Test job not archived.
 1\1\GINC-SE224\SP\RHF\Aug-CC-pVDZ\C5H9N1O1\OHZDE\09-Apr-2025\0\\#t hf
 aug-cc-pvdz iop(5/13=1,5/36=2,99/5=2) pseudo=read geom=check guess=(re
 ad,tcheck) scf=(maxcycle=1)\\title\\0,1\C,0,0.88585678,1.66067748,0.77
 471746\C,0,-0.11253037,0.66998414,0.26176182\C,0,0.8785271,-1.49416368
 ,-0.53076242\C,0,0.12653604,-0.7840821,0.59679963\O,0,-2.99679312,-0.1
 7526211,-0.27586744\C,0,-2.10041235,0.28496264,-0.93393514\N,0,-1.0783
 621,1.07773629,-0.44866752\H,0,0.686728,2.65258367,0.37632136\H,0,1.90
 028214,1.35271825,0.50849503\H,0,0.83895985,1.69197494,1.86641423\H,0,

 Normal termination of Gaussian 16 at Wed Apr  9 18:16:29 2025.
