 Gaussian 16, Revision C.01,

 ----------------------------------------------------------------------
 #t hf aug-cc-pvdz symm=none int=(grid=ultrafine) guess=(read,tcheck) s
 table=(opt,rrhf)
 ----------------------------------------------------------------------
 -----
 title
 -----
 Symbolic Z-matrix:
 Charge =  0 Multiplicity = 1

 SCF Done:  E(RHF) =  -337.371731958     A.U. after   18 cycles
 Normal termination of Gaussian 16 at Wed Apr  9 19:21:48 2025.
 Gaussian 16:  ES64L-G16RevC.01  3-Jul-2019

 ----------------------------------------------------------------------
 #t hf aug-cc-pvdz iop(5/13=1,5/36=2,99/5=2) pseudo=read geom=check gue
 ss=(read,tcheck) scf=(maxcycle=1)
 ----------------------------------------------------------------------
 -----
 title
 -----
 Structure from the checkpoint file:  "Grambow2020_wb97xd3_009445_reverse_mol1.chk"
 Charge =  0 Multiplicity = 1

                         Standard orientation:
 ---------------------------------------------------------------------
 Center     Atomic      Atomic             Coordinates (Angstroms)
 Number     Number       Type             X           Y           Z
 ---------------------------------------------------------------------
      1          7           0       -2.613318    0.856121   -0.273484
      2          6           0       -1.771194    0.065073    0.067485
      3          6           0       -0.801854   -0.831306    0.469410
      4          8           0        0.160482   -1.207478   -0.427100
      5          6           0        1.476435   -0.849297   -0.065705
      6          6           0        1.628714    0.612933    0.005336
      7          7           0        1.692517    1.756141    0.068926
      8          1           0       -0.713693   -1.112050    1.510591
      9          1           0       -1.211911    1.028596    0.407731
     10          1           0        1.755939   -1.276771    0.903260
     11          1           0        2.138818   -1.250199   -0.832029
 ---------------------------------------------------------------------

 SCF Done:  E(RHF) =  -337.702825095     A.U. after    2 cycles

 The electronic state is 1-A.
 Alpha  occ. eigenvalues --  -20.61744 -15.56324 -15.54076 -11.37103 -11.33691
 Alpha  occ. eigenvalues --  -11.33598 -11.30379  -1.54186  -1.28425  -1.26309
 Alpha  occ. eigenvalues --   -1.07474  -0.99854  -0.79978  -0.77746  -0.72712
 Alpha  occ. eigenvalues --   -0.70157  -0.66123  -0.64654  -0.63278  -0.59684
 Alpha  occ. eigenvalues --   -0.53627  -0.53091  -0.52659  -0.50775  -0.33098
 Alpha virt. eigenvalues --    0.02231   0.03075   0.03924   0.05449   0.06054
 Alpha virt. eigenvalues --    0.08087   0.08280   0.09746   0.10831   0.11343
 Alpha virt. eigenvalues --    0.11619   0.12376   0.13346   0.14368   0.14558

 Mulliken charges:
               1
     1  N    0.682504
     2  C   -1.981646
     3  C    1.431515
     4  O   -1.301622
     5  C    0.808743
     6  C   -1.369757
     7  N    0.829682
     8  H    0.074491
     9  H    0.473866
    10  H    0.279756
    11  H    0.072467
 Sum of Mulliken charges =   0.00000

 Dipole moment (field-independent basis, Debye):
    X=              3.2294    Y=             -4.6751    Z=              2.0579  Tot=              6.0432

 Test job not archived.
 1\1\GINC-SE018\SP\RHF\Aug-CC-pVDZ\C4H4N2O1\OHZDE\09-Apr-2025\0\\#t hf
 aug-cc-pvdz iop(5/13=1,5/36=2,99/5=2) pseudo=read geom=check guess=(re
 ad,tcheck) scf=(maxcycle=1)\\title\\0,1\N,0,2.71013963,0.88586485,0.90
 407473\C,0,1.90945243,0.32645185,0.19898757\C,0,0.98634649,-0.30050754
 ,-0.61308283\O,0,0.0985476,-1.17506216,-0.04890756\C,0,-1.25560169,-0.
 79423882,-0.15792735\C,0,-1.51311229,0.46454908,0.56005184\N,0,-1.6597
 9331,1.45769673,1.11428968\H,0,0.86625776,0.0060855,-1.64372587\H,0,1.
 2678995,1.2718999,0.42588374\H,0,-1.55246776,-0.66612544,-1.20444876\H

 Normal termination of Gaussian 16 at Wed Apr  9 19:21:52 2025.
