 Gaussian 16, Revision C.01,

 ----------------------------------------------------------------------
 #t hf aug-cc-pvdz symm=none int=(grid=ultrafine) guess=(read,tcheck) s
 table=(opt,rrhf)
 ----------------------------------------------------------------------
 -----
 title
 -----
 Symbolic Z-matrix:
 Charge =  0 Multiplicity = 1

 SCF Done:  E(RHF) =  -305.627213126     A.U. after   15 cycles
 Normal termination of Gaussian 16 at Wed Apr  9 15:48:50 2025.
 Gaussian 16:  ES64L-G16RevC.01  3-Jul-2019

 ----------------------------------------------------------------------
 #t hf aug-cc-pvdz iop(5/13=1,5/36=2,99/5=2) pseudo=read geom=check gue
 ss=(read,tcheck) scf=(maxcycle=1)
 ----------------------------------------------------------------------
 -----
 title
 -----
 Structure from the checkpoint file:  "Grambow2020_b97d3_006759_forward_mol1.chk"
 Charge =  0 Multiplicity = 1

                         Standard orientation:
 ---------------------------------------------------------------------
 Center     Atomic      Atomic             Coordinates (Angstroms)
 Number     Number       Type             X           Y           Z
 ---------------------------------------------------------------------
      1          6           0       -1.248973   -1.092920   -0.157972
      2          6           0       -1.952239    0.191414   -0.089642
      3          6           0       -0.100192    1.106315    0.516746
      4          8           0        0.558316    1.816208   -0.153263
      5          6           0        0.995778   -0.877634    0.581179
      6          8           0        1.819605   -0.667125   -0.521465
      7          1           0       -0.731564   -1.386350   -1.066079
      8          1           0       -2.495104   -0.976339   -0.592089
      9          1           0       -1.391554   -1.821669    0.633507
     10          1           0       -2.607313    0.392445    0.752804
     11          1           0       -2.054388    0.811777   -0.976878
     12          1           0        1.396330   -0.525461    1.541832
     13          1           0        0.805377   -1.952987    0.644543
     14          1           0        1.888607    0.302871   -0.641676
 ---------------------------------------------------------------------

 SCF Done:  E(RHF) =  -305.935313111     A.U. after    2 cycles

 The electronic state is 1-A.
 Alpha  occ. eigenvalues --  -20.58983 -20.52919 -11.34424 -11.32645 -11.31815
 Alpha  occ. eigenvalues --  -11.26171  -1.52543  -1.42776  -1.11760  -0.88526
 Alpha  occ. eigenvalues --   -0.85275  -0.76204  -0.69934  -0.67699  -0.65520
 Alpha  occ. eigenvalues --   -0.61920  -0.59689  -0.58102  -0.56661  -0.55748
 Alpha  occ. eigenvalues --   -0.52122  -0.46705  -0.42572  -0.25847
 Alpha virt. eigenvalues --    0.02607   0.03564   0.03658   0.04994   0.06506
 Alpha virt. eigenvalues --    0.06587   0.07215   0.07899   0.08502   0.09815
 Alpha virt. eigenvalues --    0.12614   0.12986   0.13407   0.14467   0.14680

 Mulliken charges:
               1
     1  C   -0.030687
     2  C   -0.189877
     3  C    0.900294
     4  O   -0.936866
     5  C    0.446552
     6  O   -1.184434
     7  H    0.182751
     8  H    0.203820
     9  H    0.082805
    10  H    0.053567
    11  H    0.069449
    12  H    0.117386
    13  H   -0.136570
    14  H    0.421811
 Sum of Mulliken charges =   0.00000

 Dipole moment (field-independent basis, Debye):
    X=             -4.6579    Y=             -0.8398    Z=              0.0098  Tot=              4.7330

 Test job not archived.
 1\1\GINC-SE092\SP\RHF\Aug-CC-pVDZ\C4H8O2\OHZDE\09-Apr-2025\0\\#t hf au
 g-cc-pvdz iop(5/13=1,5/36=2,99/5=2) pseudo=read geom=check guess=(read
 ,tcheck) scf=(maxcycle=1)\\title\\0,1\C,0,-1.05145104,-0.22370955,-0.5
 195629\C,0,-1.31642503,-0.34881269,0.91671807\C,0,0.80025504,-0.163701
 24,1.26345703\O,0,1.3333179,0.77960509,1.72444613\C,0,1.27977687,-0.12
 553089,-0.9523858\O,0,1.67202634,1.20815507,-1.03145497\H,0,-0.9955502
 5,0.75646771,-0.982811\H,0,-2.29191702,-0.2237455,-0.05466044\H,0,-1.0
 8429199,-1.10870862,-1.14689174\H,0,-1.54355995,-1.32691319,1.3302154\

 Normal termination of Gaussian 16 at Wed Apr  9 15:48:54 2025.
