 Gaussian 16, Revision C.01,

 ----------------------------------------------------------------------
 #t hf aug-cc-pvdz symm=none int=(grid=ultrafine) guess=(read,tcheck) s
 table=(opt,rrhf)
 ----------------------------------------------------------------------
 -----
 title
 -----
 Symbolic Z-matrix:
 Charge =  0 Multiplicity = 1

 SCF Done:  E(RHF) =  -342.416803299     A.U. after   16 cycles
 Normal termination of Gaussian 16 at Wed Apr  9 19:13:56 2025.
 Gaussian 16:  ES64L-G16RevC.01  3-Jul-2019

 ----------------------------------------------------------------------
 #t hf aug-cc-pvdz iop(5/13=1,5/36=2,99/5=2) pseudo=read geom=check gue
 ss=(read,tcheck) scf=(maxcycle=1)
 ----------------------------------------------------------------------
 -----
 title
 -----
 Structure from the checkpoint file:  "Grambow2020_wb97xd3_008947_reverse_mol2.chk"
 Charge =  0 Multiplicity = 1

                         Standard orientation:
 ---------------------------------------------------------------------
 Center     Atomic      Atomic             Coordinates (Angstroms)
 Number     Number       Type             X           Y           Z
 ---------------------------------------------------------------------
      1          8           0        2.374531   -0.478136   -0.552907
      2          6           0        1.753696    0.344617    0.061952
      3          6           0       -0.957283    1.481556   -0.451315
      4          6           0       -0.718848    0.299506    0.262045
      5          6           0       -1.250837   -0.700308   -0.762468
      6          8           0       -1.781586   -0.647468    0.517896
      7          6           0        0.585879   -0.020493    0.954030
      8          1           0       -2.040604    1.587800   -0.606885
      9          1           0        1.995674    1.419308   -0.013092
     10          1           0       -1.912810   -0.420751   -1.576395
     11          1           0       -0.528731   -1.483669   -0.983166
     12          1           0        0.632685    0.555361    1.881761
     13          1           0        0.634579   -1.082478    1.192402
 ---------------------------------------------------------------------

 SCF Done:  E(RHF) =  -342.757508045     A.U. after    2 cycles

 The electronic state is 1-A.
 Alpha  occ. eigenvalues --  -20.60001 -20.55582 -11.34990 -11.34952 -11.33628
 Alpha  occ. eigenvalues --  -11.28287 -11.26949  -1.54410  -1.49001  -1.10462
 Alpha  occ. eigenvalues --   -1.01325  -0.92504  -0.84546  -0.77804  -0.70926
 Alpha  occ. eigenvalues --   -0.69469  -0.66985  -0.65451  -0.61419  -0.59224
 Alpha  occ. eigenvalues --   -0.57090  -0.52591  -0.48852  -0.46838  -0.42161
 Alpha  occ. eigenvalues --   -0.38554
 Alpha virt. eigenvalues --    0.02956   0.03559   0.04297   0.04993   0.06231
 Alpha virt. eigenvalues --    0.06666   0.07716   0.08829   0.09383   0.09984
 Alpha virt. eigenvalues --    0.12461   0.13043   0.13571   0.14001   0.14937

 Mulliken charges:
               1
     1  O   -1.161425
     2  C    1.350992
     3  C   -0.272931
     4  C    0.985614
     5  C    0.281007
     6  O   -1.419443
     7  C   -0.485367
     8  H    0.099328
     9  H    0.175045
    10  H   -0.006764
    11  H    0.065602
    12  H    0.247615
    13  H    0.140726
 Sum of Mulliken charges =  -0.00000

 Dipole moment (field-independent basis, Debye):
    X=             -1.7697    Y=             -0.0139    Z=              0.8619  Tot=              1.9685

 Test job not archived.
 1\1\GINC-SE174\SP\RHF\Aug-CC-pVDZ\C5H6O2\OHZDE\09-Apr-2025\0\\#t hf au
 g-cc-pvdz iop(5/13=1,5/36=2,99/5=2) pseudo=read geom=check guess=(read
 ,tcheck) scf=(maxcycle=1)\\title\\0,1\O,0,-1.91795391,-1.52925622,0.89
 945952\C,0,-1.74785399,-0.73122828,0.01933054\C,0,0.00869073,1.6795209
 7,-0.07187246\C,0,0.43080416,0.38238216,-0.39160262\C,0,1.32216935,0.1
 2363175,0.82115612\O,0,1.83631514,0.04952281,-0.4649161\C,0,-0.4990370
 5,-0.72241605,-0.8369896\H,0,0.88575588,2.34252841,-0.05600628\H,0,-2.
 49353328,0.05474077,-0.19364975\H,0,1.7070664,0.91670953,1.45496835\H,

 Normal termination of Gaussian 16 at Wed Apr  9 19:14:00 2025.
