 Gaussian 16, Revision C.01,

 ----------------------------------------------------------------------
 #t hf aug-cc-pvdz symm=none int=(grid=ultrafine) guess=(read,tcheck) s
 table=(opt,rrhf)
 ----------------------------------------------------------------------
 -----
 title
 -----
 Symbolic Z-matrix:
 Charge =  0 Multiplicity = 1

 SCF Done:  E(RHF) =  -359.549602904     A.U. after   16 cycles
 Normal termination of Gaussian 16 at Wed Apr  9 03:46:34 2025.
 Gaussian 16:  ES64L-G16RevC.01  3-Jul-2019

 ----------------------------------------------------------------------
 #t hf aug-cc-pvdz iop(5/13=1,5/36=2,99/5=2) pseudo=read geom=check gue
 ss=(read,tcheck) scf=(maxcycle=1)
 ----------------------------------------------------------------------
 -----
 title
 -----
 Structure from the checkpoint file:  "Grambow2020_wb97xd3_007893_forward_mol1.chk"
 Charge =  0 Multiplicity = 1

                         Standard orientation:
 ---------------------------------------------------------------------
 Center     Atomic      Atomic             Coordinates (Angstroms)
 Number     Number       Type             X           Y           Z
 ---------------------------------------------------------------------
      1          6           0       -0.883748    1.808786   -0.005274
      2          6           0       -0.255934    0.476916    0.083144
      3          7           0       -0.795759   -0.673051    0.001132
      4          8           0       -2.169824   -0.766707   -0.085367
      5          6           0        1.208662    0.096799    0.366515
      6          6           0        1.049704   -1.348393    0.061525
      7          8           0        2.233999    0.413721   -0.398973
      8          1           0       -1.010750    2.221740    0.998632
      9          1           0       -0.208516    2.470709   -0.549914
     10          1           0       -1.856594    1.772259   -0.492820
     11          1           0       -2.334612   -1.674342   -0.353555
     12          1           0        1.342624    0.264886    1.461893
     13          1           0        1.310057   -2.143902    0.759195
     14          1           0        1.102600   -1.580758   -0.992091
 ---------------------------------------------------------------------

 SCF Done:  E(RHF) =  -359.913759811     A.U. after    2 cycles

 The electronic state is 1-A.
 Alpha  occ. eigenvalues --  -20.62288 -20.42720 -15.60293 -11.36042 -11.31266
 Alpha  occ. eigenvalues --  -11.28888 -11.25826  -1.54446  -1.34699  -1.24674
 Alpha  occ. eigenvalues --   -1.03221  -1.00544  -0.88514  -0.77913  -0.75256
 Alpha  occ. eigenvalues --   -0.69424  -0.69043  -0.65617  -0.61230  -0.59847
 Alpha  occ. eigenvalues --   -0.58390  -0.56184  -0.52907  -0.50231  -0.44149
 Alpha  occ. eigenvalues --   -0.33998  -0.33626
 Alpha virt. eigenvalues --    0.02299   0.03858   0.04126   0.04856   0.05435
 Alpha virt. eigenvalues --    0.05875   0.06753   0.07136   0.09993   0.10970
 Alpha virt. eigenvalues --    0.12176   0.12378   0.13454   0.14298   0.14627

 Mulliken charges:
               1
     1  C   -0.446451
     2  C   -1.014967
     3  N    1.484271
     4  O   -1.269603
     5  C    1.064469
     6  C    0.324273
     7  O   -1.530927
     8  H    0.280480
     9  H    0.245816
    10  H    0.179957
    11  H    0.262075
    12  H    0.290928
    13  H    0.017154
    14  H    0.112527
 Sum of Mulliken charges =   0.00000

 Dipole moment (field-independent basis, Debye):
    X=             -4.6136    Y=             -2.9285    Z=              1.2613  Tot=              5.6082

 Test job not archived.
 1\1\GINC-SE339\SP\RHF\Aug-CC-pVDZ\C4H7N1O2\OHZDE\09-Apr-2025\0\\#t hf
 aug-cc-pvdz iop(5/13=1,5/36=2,99/5=2) pseudo=read geom=check guess=(re
 ad,tcheck) scf=(maxcycle=1)\\title\\0,1\C,0,-1.41346141,-1.24077999,-0
 .17777759\C,0,-0.31160813,-0.26549349,-0.07491675\N,0,-0.30125407,0.87
 965736,0.48103604\O,0,-1.47623624,1.38837469,0.99575213\C,0,1.10935889
 ,-0.32110606,-0.66448298\C,0,1.61998737,0.86880729,0.06368714\O,0,2.01
 994134,-1.22418483,-0.35949546\H,0,-1.86457576,-1.18100106,-1.17146273
 \H,0,-0.99605431,-2.24278329,-0.06609019\H,0,-2.18751801,-1.06544367,0

 Normal termination of Gaussian 16 at Wed Apr  9 03:46:38 2025.
