 Gaussian 16, Revision C.01,

 ----------------------------------------------------------------------
 #t hf aug-cc-pvdz symm=none int=(grid=ultrafine) guess=(read,tcheck) s
 table=(opt,rrhf)
 ----------------------------------------------------------------------
 -----
 title
 -----
 Symbolic Z-matrix:
 Charge =  0 Multiplicity = 1

 SCF Done:  E(RHF) =  -359.553708221     A.U. after   17 cycles
 Normal termination of Gaussian 16 at Wed Apr  9 19:21:05 2025.
 Gaussian 16:  ES64L-G16RevC.01  3-Jul-2019

 ----------------------------------------------------------------------
 #t hf aug-cc-pvdz iop(5/13=1,5/36=2,99/5=2) pseudo=read geom=check gue
 ss=(read,tcheck) scf=(maxcycle=1)
 ----------------------------------------------------------------------
 -----
 title
 -----
 Structure from the checkpoint file:  "Grambow2020_wb97xd3_009413_forward_mol1.chk"
 Charge =  0 Multiplicity = 1

                         Standard orientation:
 ---------------------------------------------------------------------
 Center     Atomic      Atomic             Coordinates (Angstroms)
 Number     Number       Type             X           Y           Z
 ---------------------------------------------------------------------
      1          8           0       -2.223569    0.470678   -0.643856
      2          6           0       -1.107485    0.712601    0.175822
      3          6           0       -0.654541   -0.493841    0.976947
      4          8           0        0.056508   -1.391688    0.116643
      5          6           0        1.021692   -0.844593   -0.587393
      6          7           0        1.841033    0.125837   -0.194395
      7          6           0        1.579899    1.333395    0.072477
      8          1           0       -1.933828   -0.034679   -1.403384
      9          1           0       -1.414322    1.497455    0.877005
     10          1           0       -0.008354   -0.158545    1.795072
     11          1           0       -1.457753   -1.114363    1.390613
     12          1           0        1.403605   -1.515914   -1.351798
     13          1           0        2.295197    1.914673    0.650497
     14          1           0        0.527317    1.653221   -0.206648
 ---------------------------------------------------------------------

 SCF Done:  E(RHF) =  -359.917188045     A.U. after    2 cycles

 The electronic state is 1-A.
 Alpha  occ. eigenvalues --  -20.61994 -20.51028 -15.55971 -11.41900 -11.33547
 Alpha  occ. eigenvalues --  -11.28440 -11.21309  -1.55827  -1.41040  -1.30456
 Alpha  occ. eigenvalues --   -1.05095  -0.98126  -0.86366  -0.77769  -0.76032
 Alpha  occ. eigenvalues --   -0.72993  -0.71377  -0.67225  -0.60726  -0.60553
 Alpha  occ. eigenvalues --   -0.55498  -0.53354  -0.51972  -0.50659  -0.48597
 Alpha  occ. eigenvalues --   -0.41989  -0.24449
 Alpha virt. eigenvalues --    0.02730   0.03148   0.03741   0.04770   0.05521
 Alpha virt. eigenvalues --    0.05861   0.06611   0.07079   0.08810   0.09468
 Alpha virt. eigenvalues --    0.10141   0.12671   0.13394   0.14017   0.14502

 Mulliken charges:
               1
     1  O   -1.193704
     2  C    0.367059
     3  C    0.430772
     4  O   -1.081678
     5  C    0.274310
     6  N    0.742638
     7  C   -0.345850
     8  H    0.266580
     9  H   -0.050363
    10  H    0.180009
    11  H   -0.046267
    12  H    0.002515
    13  H   -0.006067
    14  H    0.460046
 Sum of Mulliken charges =  -0.00000

 Dipole moment (field-independent basis, Debye):
    X=              3.8609    Y=             -0.4324    Z=             -0.0338  Tot=              3.8852

 Test job not archived.
 1\1\GINC-SE036\SP\RHF\Aug-CC-pVDZ\C4H7N1O2\OHZDE\09-Apr-2025\0\\#t hf
 aug-cc-pvdz iop(5/13=1,5/36=2,99/5=2) pseudo=read geom=check guess=(re
 ad,tcheck) scf=(maxcycle=1)\\title\\0,1\O,0,-1.25792554,-0.25266962,1.
 9898339\C,0,-1.07383988,-0.02508195,0.61493093\C,0,-0.23329337,1.19752
 358,0.29684408\O,0,1.14769178,0.89313809,0.52503342\C,0,1.58266742,-0.
 20118417,-0.05790228\N,0,1.22452286,-0.66225372,-1.25232724\C,0,0.1043
 5885,-1.1052236,-1.63523355\H,0,-0.44479079,-0.610718,2.34596806\H,0,-
 2.07656177,0.12734742,0.19885925\H,0,-0.39316376,1.47992688,-0.7490999

 Normal termination of Gaussian 16 at Wed Apr  9 19:21:10 2025.
