 Gaussian 16, Revision C.01,

 ----------------------------------------------------------------------
 #t hf aug-cc-pvdz symm=none int=(grid=ultrafine) guess=(read,tcheck) s
 table=(opt,rrhf)
 ----------------------------------------------------------------------
 -----
 title
 -----
 Symbolic Z-matrix:
 Charge =  0 Multiplicity = 1

 SCF Done:  E(RHF) =  -357.282411165     A.U. after   15 cycles
 Normal termination of Gaussian 16 at Wed Apr  9 19:07:34 2025.
 Gaussian 16:  ES64L-G16RevC.01  3-Jul-2019

 ----------------------------------------------------------------------
 #t hf aug-cc-pvdz iop(5/13=1,5/36=2,99/5=2) pseudo=read geom=check gue
 ss=(read,tcheck) scf=(maxcycle=1)
 ----------------------------------------------------------------------
 -----
 title
 -----
 Structure from the checkpoint file:  "Grambow2020_wb97xd3_008631_forward_mol1.chk"
 Charge =  0 Multiplicity = 1

                         Standard orientation:
 ---------------------------------------------------------------------
 Center     Atomic      Atomic             Coordinates (Angstroms)
 Number     Number       Type             X           Y           Z
 ---------------------------------------------------------------------
      1          7           0       -2.347127   -0.373923    0.000855
      2          6           0       -1.156189   -0.027477    0.000001
      3          6           0       -0.523961    1.316116   -0.000301
      4          6           0        0.813097    1.194820   -0.000330
      5          6           0        0.988464   -0.237953   -0.000502
      6          8           0        2.199464   -0.547306    0.000920
      7          8           0       -0.069122   -0.997839   -0.001133
      8          1           0       -2.471109   -1.382506    0.000632
      9          1           0       -1.150993    2.196909    0.000540
     10          1           0        2.280783    0.691171    0.001343
 ---------------------------------------------------------------------

 SCF Done:  E(RHF) =  -357.633339232     A.U. after    2 cycles

 The electronic state is 1-A.
 Alpha  occ. eigenvalues --  -20.65946 -20.62568 -15.53283 -11.43784 -11.39095
 Alpha  occ. eigenvalues --  -11.28887 -11.24549  -1.62267  -1.55063  -1.26755
 Alpha  occ. eigenvalues --   -1.13480  -0.94689  -0.88010  -0.82758  -0.76521
 Alpha  occ. eigenvalues --   -0.72559  -0.71470  -0.69761  -0.62108  -0.58622
 Alpha  occ. eigenvalues --   -0.52936  -0.52363  -0.50872  -0.41633  -0.41029
 Alpha virt. eigenvalues --    0.02794   0.03275   0.04786   0.04838   0.08027
 Alpha virt. eigenvalues --    0.09390   0.10167   0.11268   0.12196   0.12594
 Alpha virt. eigenvalues --    0.13089   0.13423   0.14704   0.15045   0.15893

 Mulliken charges:
               1
     1  N    0.763795
     2  C   -0.456643
     3  C    0.667577
     4  C   -0.957096
     5  C    2.111953
     6  O   -1.380764
     7  O   -1.364262
     8  H    0.104521
     9  H   -0.061165
    10  H    0.572083
 Sum of Mulliken charges =  -0.00000

 Dipole moment (field-independent basis, Debye):
    X=             -0.0151    Y=             -0.7843    Z=             -0.0008  Tot=              0.7844

 Test job not archived.
 1\1\GINC-SE454\SP\RHF\Aug-CC-pVDZ\C4H3N1O2\OHZDE\09-Apr-2025\0\\#t hf
 aug-cc-pvdz iop(5/13=1,5/36=2,99/5=2) pseudo=read geom=check guess=(re
 ad,tcheck) scf=(maxcycle=1)\\title\\0,1\N,0,2.2617161,-0.18128634,0.11
 204131\C,0,1.02457378,-0.11892843,0.04920066\C,0,-0.01097463,-1.181641
 98,-0.00768574\C,0,-1.23329092,-0.62948752,-0.06688977\C,0,-0.93081089
 ,0.78177319,-0.04589382\O,0,-1.97280018,1.47037172,-0.09399646\O,0,0.3
 1558741,1.15373365,0.01775653\H,0,2.70817576,0.73118622,0.13812895\H,0
 ,0.29309411,-2.21912458,0.00408213\H,0,-2.45409355,0.32670406,-0.12261

 Normal termination of Gaussian 16 at Wed Apr  9 19:07:37 2025.
