 Gaussian 16, Revision C.01,

 ----------------------------------------------------------------------
 #t hf aug-cc-pvdz symm=none int=(grid=ultrafine) guess=(read,tcheck) s
 table=(opt,rrhf)
 ----------------------------------------------------------------------
 -----
 title
 -----
 Symbolic Z-matrix:
 Charge =  0 Multiplicity = 1

 SCF Done:  E(RHF) =  -337.467031922     A.U. after   16 cycles
 Normal termination of Gaussian 16 at Wed Apr  9 04:04:42 2025.
 Gaussian 16:  ES64L-G16RevC.01  3-Jul-2019

 ----------------------------------------------------------------------
 #t hf aug-cc-pvdz iop(5/13=1,5/36=2,99/5=2) pseudo=read geom=check gue
 ss=(read,tcheck) scf=(maxcycle=1)
 ----------------------------------------------------------------------
 -----
 title
 -----
 Structure from the checkpoint file:  "Grambow2020_wb97xd3_009179_forward_mol1.chk"
 Charge =  0 Multiplicity = 1

                         Standard orientation:
 ---------------------------------------------------------------------
 Center     Atomic      Atomic             Coordinates (Angstroms)
 Number     Number       Type             X           Y           Z
 ---------------------------------------------------------------------
      1          8           0        2.268248    0.030146    0.140506
      2          6           0        1.075585    0.032749   -0.022839
      3          6           0        0.238215    1.228115   -0.092443
      4          6           0       -1.095980    1.125247   -0.000644
      5          7           0       -1.701216   -0.103937    0.111707
      6          6           0       -0.992846   -1.242794   -0.047981
      7          7           0        0.335928   -1.174041   -0.189706
      8          1           0        0.721549    2.192118   -0.162277
      9          1           0       -1.754820    1.985276   -0.012031
     10          1           0       -2.696835   -0.169045    0.227818
     11          1           0       -0.208722   -2.163570    0.351874
 ---------------------------------------------------------------------

 SCF Done:  E(RHF) =  -337.804342090     A.U. after    2 cycles

 The electronic state is 1-A.
 Alpha  occ. eigenvalues --  -20.52112 -15.58314 -15.53410 -11.36577 -11.33333
 Alpha  occ. eigenvalues --  -11.32590 -11.26058  -1.47064  -1.34568  -1.23953
 Alpha  occ. eigenvalues --   -1.09739  -0.93935  -0.92843  -0.83763  -0.77297
 Alpha  occ. eigenvalues --   -0.68548  -0.66818  -0.64382  -0.62943  -0.56582
 Alpha  occ. eigenvalues --   -0.56205  -0.49645  -0.45954  -0.38856  -0.37946
 Alpha virt. eigenvalues --    0.01827   0.03744   0.04752   0.05631   0.07245
 Alpha virt. eigenvalues --    0.07753   0.08763   0.10024   0.10431   0.11249
 Alpha virt. eigenvalues --    0.11525   0.12409   0.13194   0.13814   0.14879

 Mulliken charges:
               1
     1  O   -1.261697
     2  C    0.508678
     3  C    0.687767
     4  C   -0.247048
     5  N    0.545404
     6  C   -1.022468
     7  N    0.432103
     8  H   -0.154172
     9  H   -0.204133
    10  H    0.184086
    11  H    0.531482
 Sum of Mulliken charges =  -0.00000

 Dipole moment (field-independent basis, Debye):
    X=             -5.6743    Y=              2.2636    Z=              0.6611  Tot=              6.1448

 Test job not archived.
 1\1\GINC-SE092\SP\RHF\Aug-CC-pVDZ\C4H4N2O1\OHZDE\09-Apr-2025\0\\#t hf
 aug-cc-pvdz iop(5/13=1,5/36=2,99/5=2) pseudo=read geom=check guess=(re
 ad,tcheck) scf=(maxcycle=1)\\title\\0,1\O,0,2.20329516,-1.43533329,0.0
 3531035\C,0,1.17463774,-0.82382761,-0.09529886\C,0,1.05320558,0.632171
 71,-0.07935494\C,0,-0.15160851,1.20882445,0.04303467\N,0,-1.29374423,0
 .44642575,0.1070741\C,0,-1.25462441,-0.88245768,-0.13130106\N,0,-0.071
 51898,-1.48286058,-0.30517172\H,0,1.95637615,1.22465542,-0.11156665\H,
 0,-0.28780302,2.28243337,0.09465648\H,0,-2.1870909,0.88398578,0.246540

 Normal termination of Gaussian 16 at Wed Apr  9 04:04:49 2025.
