 Gaussian 16, Revision C.01,

 ----------------------------------------------------------------------
 #t hf aug-cc-pvdz symm=none int=(grid=ultrafine) guess=(read,tcheck) s
 table=(opt,rrhf)
 ----------------------------------------------------------------------
 -----
 title
 -----
 Symbolic Z-matrix:
 Charge =  0 Multiplicity = 1

 SCF Done:  E(RHF) =  -286.642213818     A.U. after   16 cycles
 Normal termination of Gaussian 16 at Wed Apr  9 18:43:50 2025.
 Gaussian 16:  ES64L-G16RevC.01  3-Jul-2019

 ----------------------------------------------------------------------
 #t hf aug-cc-pvdz iop(5/13=1,5/36=2,99/5=2) pseudo=read geom=check gue
 ss=(read,tcheck) scf=(maxcycle=1)
 ----------------------------------------------------------------------
 -----
 title
 -----
 Structure from the checkpoint file:  "Grambow2020_wb97xd3_007997_forward_mol1.chk"
 Charge =  0 Multiplicity = 1

                         Standard orientation:
 ---------------------------------------------------------------------
 Center     Atomic      Atomic             Coordinates (Angstroms)
 Number     Number       Type             X           Y           Z
 ---------------------------------------------------------------------
      1          6           0        2.268222   -1.325287   -0.001191
      2          6           0        1.381104   -0.159575   -0.068078
      3          6           0        1.075952    1.035575    0.045568
      4          6           0        0.264525    2.122170    0.016934
      5          6           0       -1.111844   -0.048701   -0.502637
      6          6           0       -1.508470   -0.460929    0.830754
      7          7           0       -2.279230   -0.714136   -0.400994
      8          1           0        1.872140   -2.081059    0.681445
      9          1           0        3.265223   -1.047881    0.351647
     10          1           0        2.376376   -1.794943   -0.980711
     11          1           0        0.293080    2.806657   -0.823100
     12          1           0       -0.171406    2.501372    0.933922
     13          1           0       -0.509856    0.322983   -1.295214
     14          1           0       -1.980023    0.231982    1.517670
     15          1           0       -0.972421   -1.286967    1.285810
     16          1           0       -2.435437   -1.632710   -0.792613
 ---------------------------------------------------------------------

 SCF Done:  E(RHF) =  -286.947878131     A.U. after    2 cycles

 The electronic state is 1-A.
 Alpha  occ. eigenvalues --  -15.54912 -11.34170 -11.30517 -11.24207 -11.21463
 Alpha  occ. eigenvalues --  -11.21383 -11.21143  -1.33546  -1.05673  -0.98273
 Alpha  occ. eigenvalues --   -0.95055  -0.87914  -0.86459  -0.76649  -0.68585
 Alpha  occ. eigenvalues --   -0.65091  -0.59895  -0.59332  -0.58844  -0.57039
 Alpha  occ. eigenvalues --   -0.56917  -0.54274  -0.49099  -0.39143  -0.35058
 Alpha  occ. eigenvalues --   -0.25247
 Alpha virt. eigenvalues --    0.02577   0.03932   0.04096   0.04822   0.05019
 Alpha virt. eigenvalues --    0.06074   0.06696   0.06877   0.07515   0.08018
 Alpha virt. eigenvalues --    0.10182   0.11299   0.12468   0.13302   0.13635

 Mulliken charges:
               1
     1  C   -0.971145
     2  C    0.324641
     3  C   -0.013414
     4  C   -0.154234
     5  C   -0.692056
     6  C    0.351796
     7  N    0.604327
     8  H    0.200792
     9  H    0.245345
    10  H    0.223178
    11  H   -0.093819
    12  H   -0.124636
    13  H    0.008736
    14  H   -0.027990
    15  H   -0.030866
    16  H    0.149344
 Sum of Mulliken charges =  -0.00000

 Dipole moment (field-independent basis, Debye):
    X=             -1.4119    Y=             -3.1007    Z=              0.1650  Tot=              3.4110

 Test job not archived.
 1\1\GINC-SE014\SP\RHF\Aug-CC-pVDZ\C6H9N1\OHZDE\09-Apr-2025\0\\#t hf au
 g-cc-pvdz iop(5/13=1,5/36=2,99/5=2) pseudo=read geom=check guess=(read
 ,tcheck) scf=(maxcycle=1)\\title\\0,1\C,0,1.68176767,0.82299726,1.8025
 4396\C,0,1.095948,-0.09369466,0.81927053\C,0,1.10999775,-0.9616783,-0.
 06437191\C,0,0.59044145,-1.79693381,-0.9983586\C,0,-1.29899919,-0.2889
 3907,0.0180023\C,0,-1.24986155,0.86262498,-0.86328135\N,0,-2.4564761,0
 .37528086,-0.16904397\H,0,1.41902312,1.85958303,1.57777691\H,0,2.77271
 597,0.75118425,1.81415158\H,0,1.31935289,0.60542326,2.80904817\H,0,0.4

 Normal termination of Gaussian 16 at Wed Apr  9 18:43:56 2025.
