 Gaussian 16, Revision C.01,

 ----------------------------------------------------------------------
 #t hf aug-cc-pvdz symm=none int=(grid=ultrafine) guess=(read,tcheck) s
 table=(opt,rrhf)
 ----------------------------------------------------------------------
 -----
 title
 -----
 Symbolic Z-matrix:
 Charge =  0 Multiplicity = 1

 SCF Done:  E(RHF) =  -338.624977892     A.U. after   15 cycles
 Normal termination of Gaussian 16 at Wed Apr  9 03:40:47 2025.
 Gaussian 16:  ES64L-G16RevC.01  3-Jul-2019

 ----------------------------------------------------------------------
 #t hf aug-cc-pvdz iop(5/13=1,5/36=2,99/5=2) pseudo=read geom=check gue
 ss=(read,tcheck) scf=(maxcycle=1)
 ----------------------------------------------------------------------
 -----
 title
 -----
 Structure from the checkpoint file:  "Grambow2020_wb97xd3_007486_forward_mol1.chk"
 Charge =  0 Multiplicity = 1

                         Standard orientation:
 ---------------------------------------------------------------------
 Center     Atomic      Atomic             Coordinates (Angstroms)
 Number     Number       Type             X           Y           Z
 ---------------------------------------------------------------------
      1          6           0        2.451903    0.322611   -0.012791
      2          8           0        1.432837   -0.664996    0.010206
      3          6           0        0.188582   -0.194849    0.024759
      4          6           0       -0.351741    1.054231    0.023695
      5          7           0       -1.726384    0.912956   -0.087258
      6          6           0       -2.049014   -0.434436   -0.098846
      7          7           0       -0.846169   -1.082164    0.012098
      8          1           0        2.363426    0.943598   -0.907827
      9          1           0        3.398020   -0.212203   -0.027230
     10          1           0        2.397632    0.952073    0.879270
     11          1           0        0.130278    2.016414    0.050339
     12          1           0       -2.448074    0.399810    0.800999
     13          1           0       -0.734486   -2.080616    0.028014
 ---------------------------------------------------------------------

 SCF Done:  E(RHF) =  -338.969504263     A.U. after    2 cycles

 The electronic state is 1-A.
 Alpha  occ. eigenvalues --  -20.60785 -15.55357 -15.53488 -11.35511 -11.31669
 Alpha  occ. eigenvalues --  -11.27369 -11.25104  -1.54530  -1.35026  -1.19545
 Alpha  occ. eigenvalues --   -1.04174  -0.98360  -0.86591  -0.83508  -0.78876
 Alpha  occ. eigenvalues --   -0.71059  -0.69378  -0.66427  -0.63635  -0.62318
 Alpha  occ. eigenvalues --   -0.55889  -0.53695  -0.50858  -0.47528  -0.39586
 Alpha  occ. eigenvalues --   -0.34450
 Alpha virt. eigenvalues --    0.02952   0.04067   0.04156   0.04892   0.06232
 Alpha virt. eigenvalues --    0.07127   0.08574   0.10105   0.11124   0.11653
 Alpha virt. eigenvalues --    0.12174   0.13425   0.14048   0.14744   0.15030

 Mulliken charges:
               1
     1  C    0.101337
     2  O   -1.527681
     3  C    0.708645
     4  C   -0.358562
     5  N    0.443825
     6  C   -0.820157
     7  N    0.796946
     8  H    0.201492
     9  H   -0.042335
    10  H    0.191524
    11  H   -0.153460
    12  H    0.474323
    13  H   -0.015897
 Sum of Mulliken charges =   0.00000

 Dipole moment (field-independent basis, Debye):
    X=              4.6287    Y=             -0.2695    Z=              1.1322  Tot=              4.7728

 Test job not archived.
 1\1\GINC-SE083\SP\RHF\Aug-CC-pVDZ\C4H6N2O1\OHZDE\09-Apr-2025\0\\#t hf
 aug-cc-pvdz iop(5/13=1,5/36=2,99/5=2) pseudo=read geom=check guess=(re
 ad,tcheck) scf=(maxcycle=1)\\title\\0,1\C,0,-2.12937854,0.03502399,-0.
 18472473\O,0,-1.08675806,-0.74700498,0.37720635\C,0,0.14000336,-0.2615
 8751,0.2073556\C,0,0.64399313,0.84661192,-0.40095247\N,0,2.00472595,0.
 88305517,-0.13829366\C,0,2.36073473,-0.23974638,0.59127145\N,0,1.19208
 751,-0.93840446,0.748868\H,0,-2.14466185,1.0318194,0.26328029\H,0,-3.0
 5776414,-0.48399482,0.03908468\H,0,-2.00588907,0.11956212,-1.26756489\

 Normal termination of Gaussian 16 at Wed Apr  9 03:40:53 2025.
