 Gaussian 16, Revision C.01,

 ----------------------------------------------------------------------
 #t hf aug-cc-pvdz symm=none int=(grid=ultrafine) guess=(read,tcheck) s
 table=(opt,rrhf)
 ----------------------------------------------------------------------
 -----
 title
 -----
 Symbolic Z-matrix:
 Charge =  0 Multiplicity = 1

 SCF Done:  E(RHF) =  -288.004096319     A.U. after   14 cycles

 1\1\GINC-SE174\Stability\RHF\Aug-CC-pVDZ\C6H11N1\OHZDE\09-Apr-2025\0\\
 #t hf aug-cc-pvdz symm=none int=(grid=ultrafine) guess=(read,tcheck) s
 table=(opt,rrhf)\\title\\0,1\C,0,-2.56179061,0.20297833,0.16958111\C,0
 ,-1.3069869,-0.53905356,-0.26313212\C,0,-0.00190734,0.10840259,0.16376
 69\C,0,1.25950401,-0.62963061,-0.24731262\C,0,2.55787392,0.020426,0.20
 42745\C,0,0.0600747,1.57915904,-0.95754608\N,0,0.06018985,1.95930607,0
 .16372392\H,0,-3.45012944,-0.37639833,-0.08490213\H,0,-2.63518704,1.17
 239192,-0.32252074\H,0,-2.56902512,0.37425921,1.24835838\H,0,-1.295149

 Normal termination of Gaussian 16 at Wed Apr  9 17:18:50 2025.
 Gaussian 16:  ES64L-G16RevC.01  3-Jul-2019

 ----------------------------------------------------------------------
 #t hf aug-cc-pvdz iop(5/13=1,5/36=2,99/5=2) pseudo=read geom=check gue
 ss=(read,tcheck) scf=(maxcycle=1)
 ----------------------------------------------------------------------
 -----
 title
 -----
 Structure from the checkpoint file:  "Grambow2020_wb97xd3_006563_forward_mol1.chk"
 Charge =  0 Multiplicity = 1

                         Standard orientation:
 ---------------------------------------------------------------------
 Center     Atomic      Atomic             Coordinates (Angstroms)
 Number     Number       Type             X           Y           Z
 ---------------------------------------------------------------------
      1          6           0        2.561303   -0.189417   -0.244126
      2          6           0        1.283578   -0.861441    0.233565
      3          6           0       -0.000233   -0.191008   -0.221435
      4          6           0       -1.284559   -0.859959    0.234470
      5          6           0       -2.561733   -0.188493   -0.245352
      6          6           0       -0.002145    1.338865    0.819619
      7          7           0        0.004023    1.658284   -0.320421
      8          1           0        3.429960   -0.786075    0.036977
      9          1           0        2.672601    0.801631    0.194906
     10          1           0        2.567611   -0.076423   -1.330562
     11          1           0        1.233113   -1.877468   -0.176154
     12          1           0        1.281414   -0.956377    1.320881
     13          1           0       -0.000840   -0.117123   -1.308315
     14          1           0       -1.234950   -1.876986   -0.173062
     15          1           0       -1.283133   -0.952549    1.321938
     16          1           0       -2.566106   -0.075001   -1.331737
     17          1           0       -3.430614   -0.785486    0.034103
     18          1           0       -2.674489    0.802592    0.193529
 ---------------------------------------------------------------------

 SCF Done:  E(RHF) =  -288.311925337     A.U. after    2 cycles

 The electronic state is 1-A.
 Alpha  occ. eigenvalues --  -15.52614 -11.32457 -11.26069 -11.25168 -11.25144
 Alpha  occ. eigenvalues --  -11.23158 -11.23149  -1.27362  -1.10478  -1.04258
 Alpha  occ. eigenvalues --   -0.94215  -0.84761  -0.80920  -0.70766  -0.64890
 Alpha  occ. eigenvalues --   -0.64638  -0.62336  -0.59320  -0.57308  -0.55054
 Alpha  occ. eigenvalues --   -0.52411  -0.51902  -0.50354  -0.50257  -0.48969
 Alpha  occ. eigenvalues --   -0.48498  -0.46713
 Alpha virt. eigenvalues --    0.03169   0.03441   0.03747   0.04490   0.05664
 Alpha virt. eigenvalues --    0.05691   0.06218   0.07189   0.08913   0.08994
 Alpha virt. eigenvalues --    0.09493   0.10174   0.11102   0.13232   0.13727

 Mulliken charges:
               1
     1  C   -0.357117
     2  C   -0.079458
     3  C   -0.875647
     4  C   -0.074789
     5  C   -0.357902
     6  C   -0.596260
     7  N    0.439558
     8  H    0.124693
     9  H    0.215713
    10  H    0.197324
    11  H    0.199978
    12  H    0.122457
    13  H    0.182193
    14  H    0.199650
    15  H    0.122332
    16  H    0.197181
    17  H    0.124689
    18  H    0.215404
 Sum of Mulliken charges =  -0.00000

 Dipole moment (field-independent basis, Debye):
    X=             -0.0052    Y=             -3.4596    Z=             -0.4962  Tot=              3.4950

 Test job not archived.
 1\1\GINC-SE174\SP\RHF\Aug-CC-pVDZ\C6H11N1\OHZDE\09-Apr-2025\0\\#t hf a
 ug-cc-pvdz iop(5/13=1,5/36=2,99/5=2) pseudo=read geom=check guess=(rea
 d,tcheck) scf=(maxcycle=1)\\title\\0,1\C,0,-2.56179061,0.20297833,0.16
 958111\C,0,-1.3069869,-0.53905356,-0.26313212\C,0,-0.00190734,0.108402
 59,0.1637669\C,0,1.25950401,-0.62963061,-0.24731262\C,0,2.55787392,0.0
 20426,0.2042745\C,0,0.0600747,1.57915904,-0.95754608\N,0,0.06018985,1.
 95930607,0.16372392\H,0,-3.45012944,-0.37639833,-0.08490213\H,0,-2.635
 18704,1.17239192,-0.32252074\H,0,-2.56902512,0.37425921,1.24835838\H,0

 Normal termination of Gaussian 16 at Wed Apr  9 17:18:57 2025.
