 Gaussian 16, Revision C.01,

 ----------------------------------------------------------------------
 #t hf aug-cc-pvdz symm=none int=(grid=ultrafine) guess=(read,tcheck) s
 table=(opt,rrhf)
 ----------------------------------------------------------------------
 -----
 title
 -----
 Symbolic Z-matrix:
 Charge =  0 Multiplicity = 1

 SCF Done:  E(RHF) =  -286.755396831     A.U. after   15 cycles
 Normal termination of Gaussian 16 at Wed Apr  9 19:07:04 2025.
 Gaussian 16:  ES64L-G16RevC.01  3-Jul-2019

 ----------------------------------------------------------------------
 #t hf aug-cc-pvdz iop(5/13=1,5/36=2,99/5=2) pseudo=read geom=check gue
 ss=(read,tcheck) scf=(maxcycle=1)
 ----------------------------------------------------------------------
 -----
 title
 -----
 Structure from the checkpoint file:  "Grambow2020_wb97xd3_008587_reverse_mol1.chk"
 Charge =  0 Multiplicity = 1

                         Standard orientation:
 ---------------------------------------------------------------------
 Center     Atomic      Atomic             Coordinates (Angstroms)
 Number     Number       Type             X           Y           Z
 ---------------------------------------------------------------------
      1          6           0        1.580912   -1.127082   -0.601235
      2          6           0        0.865988   -0.152565    0.268368
      3          6           0       -0.158196   -0.428144    1.265088
      4          6           0       -0.923502    0.172517    0.195824
      5          6           0       -2.199295   -0.376713   -0.347138
      6          6           0       -0.171759    1.140020   -0.480595
      7          7           0        1.145251    1.225906    0.134945
      8          1           0        2.406140   -1.532439   -0.008780
      9          1           0        0.934373   -1.959634   -0.877665
     10          1           0        1.998080   -0.646701   -1.483600
     11          1           0       -0.418689   -1.467978    1.448286
     12          1           0       -2.660060    0.318533   -1.050851
     13          1           0       -2.893066   -0.579370    0.468960
     14          1           0       -2.011808   -1.320030   -0.865052
     15          1           0       -0.385539    1.586639   -1.440161
     16          1           0        1.048931    1.651444    1.062373
 ---------------------------------------------------------------------

 SCF Done:  E(RHF) =  -287.063875994     A.U. after    2 cycles

 The electronic state is 1-A.
 Alpha  occ. eigenvalues --  -15.51458 -11.35020 -11.29247 -11.26892 -11.25484
 Alpha  occ. eigenvalues --  -11.25013 -11.18531  -1.31729  -1.10381  -1.03705
 Alpha  occ. eigenvalues --   -0.97626  -0.91740  -0.79149  -0.73298  -0.68657
 Alpha  occ. eigenvalues --   -0.67905  -0.62461  -0.59744  -0.58636  -0.58077
 Alpha  occ. eigenvalues --   -0.56727  -0.54024  -0.50260  -0.46832  -0.42799
 Alpha  occ. eigenvalues --   -0.27020
 Alpha virt. eigenvalues --    0.03241   0.03719   0.03926   0.04565   0.05551
 Alpha virt. eigenvalues --    0.05898   0.06359   0.07322   0.08810   0.10402
 Alpha virt. eigenvalues --    0.10741   0.12007   0.12831   0.13596   0.14461

 Mulliken charges:
               1
     1  C   -0.418132
     2  C   -1.411816
     3  C   -0.400629
     4  C    0.629908
     5  C   -0.655777
     6  C   -0.063223
     7  N    0.587626
     8  H    0.257873
     9  H    0.231032
    10  H    0.232713
    11  H   -0.024756
    12  H    0.220751
    13  H    0.262193
    14  H    0.287283
    15  H   -0.273948
    16  H    0.538901
 Sum of Mulliken charges =  -0.00000

 Dipole moment (field-independent basis, Debye):
    X=             -0.8387    Y=             -1.6549    Z=             -2.6266  Tot=              3.2157

 Test job not archived.
 1\1\GINC-SE220\SP\RHF\Aug-CC-pVDZ\C6H9N1\OHZDE\09-Apr-2025\0\\#t hf au
 g-cc-pvdz iop(5/13=1,5/36=2,99/5=2) pseudo=read geom=check guess=(read
 ,tcheck) scf=(maxcycle=1)\\title\\0,1\C,0,1.83378558,-0.23829115,-0.69
 889432\C,0,0.95849013,0.12184909,0.45052596\C,0,0.07526645,-0.75157926
 ,1.20906824\C,0,-0.85921621,0.02852922,0.42933356\C,0,-2.00047044,-0.5
 3934369,-0.3447259\C,0,-0.38354361,1.32881766,0.22510958\N,0,0.9075322
 4,1.46524629,0.88487661\H,0,2.75819525,-0.6428997,-0.27690306\H,0,1.38
 23507,-1.01874489,-1.31099462\H,0,2.0856333,0.63282712,-1.29980111\H,0

 Normal termination of Gaussian 16 at Wed Apr  9 19:07:10 2025.
