 Gaussian 16, Revision C.01,

 ----------------------------------------------------------------------
 #t hf aug-cc-pvdz symm=none int=(grid=ultrafine) guess=(read,tcheck) s
 table=(opt,rrhf)
 ----------------------------------------------------------------------
 -----
 title
 -----
 Symbolic Z-matrix:
 Charge =  0 Multiplicity = 1

 SCF Done:  E(RHF) =  -394.456065445     A.U. after   13 cycles
 Normal termination of Gaussian 16 at Wed Apr  9 18:12:53 2025.
 Gaussian 16:  ES64L-G16RevC.01  3-Jul-2019

 ----------------------------------------------------------------------
 #t hf aug-cc-pvdz iop(5/13=1,5/36=2,99/5=2) pseudo=read geom=check gue
 ss=(read,tcheck) scf=(maxcycle=1)
 ----------------------------------------------------------------------
 -----
 title
 -----
 Structure from the checkpoint file:  "Grambow2020_wb97xd3_007194_reverse_mol2.chk"
 Charge =  0 Multiplicity = 1

                         Standard orientation:
 ---------------------------------------------------------------------
 Center     Atomic      Atomic             Coordinates (Angstroms)
 Number     Number       Type             X           Y           Z
 ---------------------------------------------------------------------
      1          7           0        2.307627   -0.531569    0.000052
      2          6           0        1.120791   -0.155229    0.000402
      3          8           0        0.009426   -0.959902   -0.000064
      4          6           0       -1.127563   -0.189582   -0.000213
      5          8           0       -2.221521   -0.628370    0.000237
      6          6           0        0.617040    1.259939    0.000182
      7          8           0       -0.797282    1.109622   -0.000367
      8          1           0        2.393913   -1.544217   -0.001051
      9          1           0        0.933774    1.801115   -0.891117
     10          1           0        0.932334    1.802522    0.891128
 ---------------------------------------------------------------------

 SCF Done:  E(RHF) =  -394.842100547     A.U. after    2 cycles

 The electronic state is 1-A.
 Alpha  occ. eigenvalues --  -20.65094 -20.63763 -20.56291 -15.52326 -11.47209
 Alpha  occ. eigenvalues --  -11.39204 -11.35233  -1.65071  -1.53471  -1.51088
 Alpha  occ. eigenvalues --   -1.26064  -1.05194  -0.90353  -0.88770  -0.78229
 Alpha  occ. eigenvalues --   -0.76310  -0.74696  -0.67975  -0.65053  -0.61866
 Alpha  occ. eigenvalues --   -0.60760  -0.60039  -0.53027  -0.49008  -0.48847
 Alpha  occ. eigenvalues --   -0.47630
 Alpha virt. eigenvalues --    0.02817   0.04438   0.04686   0.07599   0.08276
 Alpha virt. eigenvalues --    0.09619   0.10373   0.11412   0.11662   0.12345
 Alpha virt. eigenvalues --    0.13128   0.13645   0.15044   0.15878   0.16985

 Mulliken charges:
               1
     1  N    0.774956
     2  C   -0.281096
     3  O   -1.441681
     4  C    2.339622
     5  O   -1.182964
     6  C    0.374877
     7  O   -1.112277
     8  H    0.182002
     9  H    0.173479
    10  H    0.173082
 Sum of Mulliken charges =  -0.00000

 Dipole moment (field-independent basis, Debye):
    X=              2.0831    Y=              1.4611    Z=             -0.0015  Tot=              2.5444

 Test job not archived.
 1\1\GINC-SE112\SP\RHF\Aug-CC-pVDZ\C3H3N1O3\OHZDE\09-Apr-2025\0\\#t hf
 aug-cc-pvdz iop(5/13=1,5/36=2,99/5=2) pseudo=read geom=check guess=(re
 ad,tcheck) scf=(maxcycle=1)\\title\\0,1\N,0,-0.98843885,1.1954475,-1.3
 0893342\C,0,-0.33443537,0.50509432,-0.50525116\O,0,0.91103025,0.793247
 49,-0.00683868\C,0,1.31368835,-0.19948179,0.85251653\O,0,2.34608375,-0
 .20087013,1.42123337\C,0,-0.74318534,-0.80257393,0.11069624\O,0,0.3640
 108,-1.14186177,0.93646933\H,0,-0.49675904,2.04128389,-1.58409544\H,0,
 -0.89469557,-1.57433292,-0.64365147\H,0,-1.64209598,-0.70095567,0.7183

 Normal termination of Gaussian 16 at Wed Apr  9 18:12:57 2025.
