 Gaussian 16, Revision C.01,

 ----------------------------------------------------------------------
 #t hf aug-cc-pvdz symm=none int=(grid=ultrafine) guess=(read,tcheck) s
 table=(opt,rrhf)
 ----------------------------------------------------------------------
 -----
 title
 -----
 Symbolic Z-matrix:
 Charge =  0 Multiplicity = 1

 SCF Done:  E(RHF) =  -302.876447652     A.U. after   15 cycles
 Normal termination of Gaussian 16 at Wed Apr  9 19:18:03 2025.
 Gaussian 16:  ES64L-G16RevC.01  3-Jul-2019

 ----------------------------------------------------------------------
 #t hf aug-cc-pvdz iop(5/13=1,5/36=2,99/5=2) pseudo=read geom=check gue
 ss=(read,tcheck) scf=(maxcycle=1)
 ----------------------------------------------------------------------
 -----
 title
 -----
 Structure from the checkpoint file:  "Grambow2020_wb97xd3_009084_reverse_mol2.chk"
 Charge =  0 Multiplicity = 1

                         Standard orientation:
 ---------------------------------------------------------------------
 Center     Atomic      Atomic             Coordinates (Angstroms)
 Number     Number       Type             X           Y           Z
 ---------------------------------------------------------------------
      1          6           0       -2.315107   -0.468090    0.470558
      2          7           0       -0.653349    1.241969   -0.125756
      3          6           0       -1.150173   -0.102360   -0.441574
      4          6           0        0.065676   -0.949038   -0.341677
      5          6           0        1.069813   -0.135170   -0.022610
      6          6           0        2.517108   -0.370473    0.212847
      7          7           0        0.568165    1.207241    0.096931
      8          1           0       -3.113262    0.267054    0.372736
      9          1           0       -1.989436   -0.490348    1.511370
     10          1           0       -2.708708   -1.450342    0.208300
     11          1           0       -1.505010   -0.044387   -1.478990
     12          1           0        0.106536   -2.015459   -0.504153
     13          1           0        3.116541    0.192613   -0.505226
     14          1           0        2.765065   -1.427137    0.123303
     15          1           0        2.800658   -0.025681    1.209169
 ---------------------------------------------------------------------

 SCF Done:  E(RHF) =  -303.193079895     A.U. after    2 cycles

 The electronic state is 1-A.
 Alpha  occ. eigenvalues --  -15.55746 -15.55130 -11.27368 -11.27183 -11.24512
 Alpha  occ. eigenvalues --  -11.24354 -11.24262  -1.38326  -1.10349  -1.08769
 Alpha  occ. eigenvalues --   -0.96801  -0.93685  -0.83323  -0.77362  -0.69880
 Alpha  occ. eigenvalues --   -0.66321  -0.62142  -0.59271  -0.58440  -0.56793
 Alpha  occ. eigenvalues --   -0.56588  -0.55401  -0.51541  -0.50227  -0.43685
 Alpha  occ. eigenvalues --   -0.37516
 Alpha virt. eigenvalues --    0.03181   0.03687   0.03937   0.04536   0.05339
 Alpha virt. eigenvalues --    0.05960   0.06111   0.06687   0.08273   0.10758
 Alpha virt. eigenvalues --    0.11532   0.12546   0.13236   0.13932   0.14240

 Mulliken charges:
               1
     1  C   -0.192462
     2  N    0.159198
     3  C   -0.998219
     4  C    0.560227
     5  C   -0.232238
     6  C   -0.413547
     7  N   -0.094476
     8  H    0.182637
     9  H    0.236689
    10  H    0.212986
    11  H    0.154567
    12  H   -0.181756
    13  H    0.230500
    14  H    0.154957
    15  H    0.220937
 Sum of Mulliken charges =  -0.00000

 Dipole moment (field-independent basis, Debye):
    X=             -0.0945    Y=             -3.8328    Z=             -0.5201  Tot=              3.8690

 Test job not archived.
 1\1\GINC-SE229\SP\RHF\Aug-CC-pVDZ\C5H8N2\OHZDE\09-Apr-2025\0\\#t hf au
 g-cc-pvdz iop(5/13=1,5/36=2,99/5=2) pseudo=read geom=check guess=(read
 ,tcheck) scf=(maxcycle=1)\\title\\0,1\C,0,2.28010733,0.14675879,0.4325
 972\N,0,0.75010529,-0.42305631,-1.40471991\C,0,1.02210591,0.54099147,-
 0.33214299\C,0,-0.2469521,0.56281024,0.43866664\C,0,-1.07602574,-0.281
 72718,-0.17114399\C,0,-2.4755963,-0.69243543,0.1081268\N,0,-0.40770731
 ,-0.86165352,-1.3047415\H,0,3.12840398,0.08302262,-0.24812842\H,0,2.14
 483416,-0.82444468,0.91041501\H,0,2.50312049,0.88522828,1.20295331\H,0

 Normal termination of Gaussian 16 at Wed Apr  9 19:18:08 2025.
