 Gaussian 16, Revision C.01,

 ----------------------------------------------------------------------
 #t hf aug-cc-pvdz symm=none int=(grid=ultrafine) guess=(read,tcheck) s
 table=(opt,rrhf)
 ----------------------------------------------------------------------
 -----
 title
 -----
 Symbolic Z-matrix:
 Charge =  0 Multiplicity = 1

 SCF Done:  E(RHF) =  -374.490850518     A.U. after   15 cycles
 Normal termination of Gaussian 16 at Wed Apr  9 19:08:36 2025.
 Gaussian 16:  ES64L-G16RevC.01  3-Jul-2019

 ----------------------------------------------------------------------
 #t hf aug-cc-pvdz iop(5/13=1,5/36=2,99/5=2) pseudo=read geom=check gue
 ss=(read,tcheck) scf=(maxcycle=1)
 ----------------------------------------------------------------------
 -----
 title
 -----
 Structure from the checkpoint file:  "Grambow2020_wb97xd3_008644_reverse_mol1.chk"
 Charge =  0 Multiplicity = 1

                         Standard orientation:
 ---------------------------------------------------------------------
 Center     Atomic      Atomic             Coordinates (Angstroms)
 Number     Number       Type             X           Y           Z
 ---------------------------------------------------------------------
      1          6           0       -0.129948    1.970216   -0.066395
      2          7           0       -0.423501    0.594416    0.259691
      3          7           0        0.323630   -0.440754    0.983938
      4          6           0        1.416718   -0.814042    0.224692
      5          8           0        1.790521   -0.320106   -0.815059
      6          6           0       -1.172673   -0.359897   -0.036038
      7          8           0       -2.009291   -1.070620   -0.404757
      8          1           0        0.182302    2.468667    0.850108
      9          1           0        0.666057    2.006291   -0.807340
     10          1           0       -1.037404    2.435408   -0.446769
     11          1           0        1.953725   -1.637857    0.723575
 ---------------------------------------------------------------------

 SCF Done:  E(RHF) =  -374.861286703     A.U. after    2 cycles

 The electronic state is 1-A.
 Alpha  occ. eigenvalues --  -20.63382 -20.52896 -15.61973 -15.54409 -11.47758
 Alpha  occ. eigenvalues --  -11.35455 -11.32028  -1.58733  -1.47742  -1.40440
 Alpha  occ. eigenvalues --   -1.15001  -1.06475  -0.86278  -0.80784  -0.76403
 Alpha  occ. eigenvalues --   -0.75943  -0.70399  -0.66408  -0.64410  -0.63373
 Alpha  occ. eigenvalues --   -0.61665  -0.55857  -0.55029  -0.48198  -0.43099
 Alpha  occ. eigenvalues --   -0.42252
 Alpha virt. eigenvalues --    0.02826   0.04678   0.05048   0.05780   0.06972
 Alpha virt. eigenvalues --    0.08686   0.09251   0.09783   0.10458   0.11464
 Alpha virt. eigenvalues --    0.13614   0.14126   0.14540   0.15248   0.15720

 Mulliken charges:
               1
     1  C   -0.251588
     2  N    0.571975
     3  N   -0.306223
     4  C    0.630102
     5  O   -1.046737
     6  C    0.614544
     7  O   -0.878007
     8  H    0.194969
     9  H    0.217232
    10  H    0.110717
    11  H    0.143017
 Sum of Mulliken charges =  -0.00000

 Dipole moment (field-independent basis, Debye):
    X=             -1.4099    Y=              2.7521    Z=              0.2207  Tot=              3.1001

 Test job not archived.
 1\1\GINC-SE229\SP\RHF\Aug-CC-pVDZ\C3H4N2O2\OHZDE\09-Apr-2025\0\\#t hf
 aug-cc-pvdz iop(5/13=1,5/36=2,99/5=2) pseudo=read geom=check guess=(re
 ad,tcheck) scf=(maxcycle=1)\\title\\0,1\C,0,-1.47612463,-0.50525183,0.
 1447278\N,0,-0.4204333,0.41489071,-0.20767219\N,0,0.8265261,0.25982985
 ,-0.96619875\C,0,1.69983547,-0.52065664,-0.23216026\O,0,1.47479078,-1.
 08858267,0.81263502\C,0,0.06353096,1.53008996,0.07787447\O,0,0.2939393
 4,2.60455599,0.44317484\H,0,-1.78747054,-1.01655084,-0.76498076\H,0,-1
 .10492895,-1.22223929,0.87415824\H,0,-2.30996863,0.06546361,0.54914276

 Normal termination of Gaussian 16 at Wed Apr  9 19:08:40 2025.
