 Gaussian 16, Revision C.01,

 ----------------------------------------------------------------------
 #t hf aug-cc-pvdz symm=none int=(grid=ultrafine) guess=(read,tcheck) s
 table=(opt,rrhf)
 ----------------------------------------------------------------------
 -----
 title
 -----
 Symbolic Z-matrix:
 Charge =  0 Multiplicity = 1

 SCF Done:  E(RHF) =  -302.891344307     A.U. after   14 cycles
 Normal termination of Gaussian 16 at Wed Apr  9 19:17:04 2025.
 Gaussian 16:  ES64L-G16RevC.01  3-Jul-2019

 ----------------------------------------------------------------------
 #t hf aug-cc-pvdz iop(5/13=1,5/36=2,99/5=2) pseudo=read geom=check gue
 ss=(read,tcheck) scf=(maxcycle=1)
 ----------------------------------------------------------------------
 -----
 title
 -----
 Structure from the checkpoint file:  "Grambow2020_wb97xd3_009044_forward_mol2.chk"
 Charge =  0 Multiplicity = 1

                         Standard orientation:
 ---------------------------------------------------------------------
 Center     Atomic      Atomic             Coordinates (Angstroms)
 Number     Number       Type             X           Y           Z
 ---------------------------------------------------------------------
      1          7           0        0.747389    1.780941    0.022681
      2          6           0        0.423281    0.403820   -0.308798
      3          6           0        1.553927   -0.529702   -0.079909
      4          7           0        2.447983   -1.222927    0.113777
      5          6           0       -0.789963   -0.073938    0.454029
      6          6           0       -1.672223   -1.124044   -0.145491
      7          6           0       -2.148579    0.295038   -0.047015
      8          1           0        1.570041    2.092691   -0.476143
      9          1           0        0.937591    1.873761    1.012366
     10          1           0        0.196929    0.360683   -1.378499
     11          1           0       -0.649392   -0.108185    1.529270
     12          1           0       -1.408564   -1.505031   -1.124411
     13          1           0       -2.102432   -1.862472    0.516848
     14          1           0       -2.909937    0.532783    0.683122
     15          1           0       -2.200498    0.882627   -0.954653
 ---------------------------------------------------------------------

 SCF Done:  E(RHF) =  -303.206993019     A.U. after    2 cycles

 The electronic state is 1-A.
 Alpha  occ. eigenvalues --  -15.51423 -15.51066 -11.32283 -11.27418 -11.25988
 Alpha  occ. eigenvalues --  -11.24934 -11.24791  -1.24703  -1.21720  -1.16277
 Alpha  occ. eigenvalues --   -0.99422  -0.84469  -0.83030  -0.75005  -0.72406
 Alpha  occ. eigenvalues --   -0.70054  -0.65260  -0.62459  -0.60599  -0.55166
 Alpha  occ. eigenvalues --   -0.53695  -0.51129  -0.49348  -0.47118  -0.45079
 Alpha  occ. eigenvalues --   -0.44737
 Alpha virt. eigenvalues --    0.03187   0.03514   0.03865   0.04370   0.05404
 Alpha virt. eigenvalues --    0.05788   0.06782   0.08662   0.09216   0.10821
 Alpha virt. eigenvalues --    0.11947   0.13117   0.13459   0.14033   0.14599

 Mulliken charges:
               1
     1  N    0.408215
     2  C   -0.997161
     3  C   -1.702686
     4  N    1.007056
     5  C    0.874597
     6  C    0.174671
     7  C    0.336143
     8  H    0.155253
     9  H    0.244082
    10  H    0.113853
    11  H   -0.170393
    12  H   -0.134093
    13  H   -0.118907
    14  H   -0.093776
    15  H   -0.096854
 Sum of Mulliken charges =  -0.00000

 Dipole moment (field-independent basis, Debye):
    X=             -2.9238    Y=              2.0763    Z=             -0.2524  Tot=              3.5949

 Test job not archived.
 1\1\GINC-SE207\SP\RHF\Aug-CC-pVDZ\C5H8N2\OHZDE\09-Apr-2025\0\\#t hf au
 g-cc-pvdz iop(5/13=1,5/36=2,99/5=2) pseudo=read geom=check guess=(read
 ,tcheck) scf=(maxcycle=1)\\title\\0,1\N,0,1.87240622,-0.7563682,-0.001
 15034\C,0,0.81270813,0.15133851,0.40442907\C,0,1.25363521,1.56690215,0
 .46750836\N,0,1.62829411,2.65131553,0.50049075\C,0,-0.38806421,0.03524
 367,-0.50484899\C,0,-1.75333587,0.32734984,0.03481547\C,0,-1.35441376,
 -1.08307678,-0.28450284\H,0,2.68150827,-0.66428852,0.59855385\H,0,2.17
 005761,-0.5561773,-0.94751021\H,0,0.50540652,-0.12342059,1.4180513\H,0

 Normal termination of Gaussian 16 at Wed Apr  9 19:17:09 2025.
