 Gaussian 16, Revision C.01,

 ----------------------------------------------------------------------
 #t hf aug-cc-pvdz symm=none int=(grid=ultrafine) guess=(read,tcheck) s
 table=(opt,rrhf)
 ----------------------------------------------------------------------
 -----
 title
 -----
 Symbolic Z-matrix:
 Charge =  0 Multiplicity = 1

 SCF Done:  E(RHF) =  -306.493300564     A.U. after   16 cycles
 Normal termination of Gaussian 16 at Wed Apr  9 19:16:08 2025.
 Gaussian 16:  ES64L-G16RevC.01  3-Jul-2019

 ----------------------------------------------------------------------
 #t hf aug-cc-pvdz iop(5/13=1,5/36=2,99/5=2) pseudo=read geom=check gue
 ss=(read,tcheck) scf=(maxcycle=1)
 ----------------------------------------------------------------------
 -----
 title
 -----
 Structure from the checkpoint file:  "Grambow2020_wb97xd3_009023_reverse_mol1.chk"
 Charge =  0 Multiplicity = 1

                         Standard orientation:
 ---------------------------------------------------------------------
 Center     Atomic      Atomic             Coordinates (Angstroms)
 Number     Number       Type             X           Y           Z
 ---------------------------------------------------------------------
      1          6           0       -1.877590    0.013170   -0.295945
      2          6           0       -0.460341   -1.006989    0.427300
      3          8           0        0.448302   -1.227348   -0.607335
      4          6           0        1.319928   -0.190287   -0.150897
      5          6           0        0.717589    1.141638   -0.640050
      6          6           0       -0.326594    0.964057    0.434685
      7          6           0        0.483990   -0.036094    1.141797
      8          1           0       -2.057519   -0.797418   -0.998262
      9          1           0       -2.634748   -0.018498    0.481986
     10          1           0       -2.002265    0.931007   -0.889656
     11          1           0        2.378697   -0.416782   -0.255993
     12          1           0        1.387866    1.961147   -0.373878
     13          1           0        0.411899    1.220357   -1.685769
     14          1           0       -0.944914    1.725894    0.886835
     15          1           0        0.732677   -0.099898    2.192085
 ---------------------------------------------------------------------

 SCF Done:  E(RHF) =  -306.811345930     A.U. after    2 cycles

 The electronic state is 1-A.
 Alpha  occ. eigenvalues --  -20.55268 -11.30587 -11.29562 -11.29214 -11.25651
 Alpha  occ. eigenvalues --  -11.25366 -11.24247  -1.50202  -1.17273  -0.99693
 Alpha  occ. eigenvalues --   -0.95341  -0.87266  -0.80637  -0.73793  -0.69242
 Alpha  occ. eigenvalues --   -0.66621  -0.64480  -0.59813  -0.56387  -0.55456
 Alpha  occ. eigenvalues --   -0.54291  -0.50855  -0.46528  -0.45233  -0.39966
 Alpha  occ. eigenvalues --   -0.30982
 Alpha virt. eigenvalues --    0.02855   0.03412   0.03664   0.04551   0.05577
 Alpha virt. eigenvalues --    0.06119   0.06793   0.07418   0.09318   0.11779
 Alpha virt. eigenvalues --    0.12322   0.12397   0.13273   0.13842   0.14268

 Mulliken charges:
               1
     1  C   -0.314736
     2  C    0.384504
     3  O   -1.426349
     4  C    1.213910
     5  C   -0.171687
     6  C    0.137414
     7  C    0.023786
     8  H    0.135529
     9  H    0.134528
    10  H    0.072134
    11  H   -0.009445
    12  H    0.131198
    13  H    0.021068
    14  H   -0.143308
    15  H   -0.188546
 Sum of Mulliken charges =  -0.00000

 Dipole moment (field-independent basis, Debye):
    X=              1.0555    Y=              3.4596    Z=              0.5271  Tot=              3.6552

 Test job not archived.
 1\1\GINC-SE113\SP\RHF\Aug-CC-pVDZ\C6H8O1\OHZDE\09-Apr-2025\0\\#t hf au
 g-cc-pvdz iop(5/13=1,5/36=2,99/5=2) pseudo=read geom=check guess=(read
 ,tcheck) scf=(maxcycle=1)\\title\\0,1\C,0,1.69150132,-0.25385983,-0.41
 15256\C,0,0.70232952,1.11340465,0.4396672\O,0,-0.1742638,1.63140133,-0
 .5131839\C,0,-1.27886054,0.88349692,0.00069149\C,0,-1.1404566,-0.54816
 634,-0.55364721\C,0,-0.01304193,-0.72810667,0.43299619\C,0,-0.43223623
 ,0.44069067,1.21756215\H,0,2.05186945,0.49219075,-1.11595498\H,0,2.479
 9085,-0.47694659,0.30129694\H,0,1.4912632,-1.14481271,-1.02517615\H,0,

 Normal termination of Gaussian 16 at Wed Apr  9 19:16:13 2025.
