 Gaussian 16, Revision C.01,

 ----------------------------------------------------------------------
 #t hf aug-cc-pvdz symm=none int=(grid=ultrafine) guess=(read,tcheck) s
 table=(opt,rrhf)
 ----------------------------------------------------------------------
 -----
 title
 -----
 Symbolic Z-matrix:
 Charge =  0 Multiplicity = 1

 SCF Done:  E(RHF) =  -308.992254750     A.U. after   15 cycles

 1\1\GINC-SE116\Stability\RHF\Aug-CC-pVDZ\C6H12O1\OHZDE\09-Apr-2025\0\\
 #t hf aug-cc-pvdz symm=none int=(grid=ultrafine) guess=(read,tcheck) s
 table=(opt,rrhf)\\title\\0,1\C,0,-1.44226467,-1.15612536,-0.25658505\C
 ,0,-0.60834313,0.12020844,-0.32579969\C,0,-1.34726783,1.27775639,0.343
 37028\C,0,0.77026945,-0.07964087,0.30106524\O,0,1.45143118,-1.13424818
 ,-0.4487756\C,0,1.71128042,-2.29695778,0.0311279\C,0,1.67392583,1.1336
 8834,0.26442796\H,0,-2.41032549,-1.00558207,-0.73694115\H,0,-0.9544981
 5,-1.99394277,-0.75577524\H,0,-1.63022831,-1.44077867,0.78307609\H,0,-

 Normal termination of Gaussian 16 at Wed Apr  9 18:32:50 2025.
 Gaussian 16:  ES64L-G16RevC.01  3-Jul-2019

 ----------------------------------------------------------------------
 #t hf aug-cc-pvdz iop(5/13=1,5/36=2,99/5=2) pseudo=read geom=check gue
 ss=(read,tcheck) scf=(maxcycle=1)
 ----------------------------------------------------------------------
 -----
 title
 -----
 Structure from the checkpoint file:  "Grambow2020_wb97xd3_007698_reverse_mol2.chk"
 Charge =  0 Multiplicity = 1

                         Standard orientation:
 ---------------------------------------------------------------------
 Center     Atomic      Atomic             Coordinates (Angstroms)
 Number     Number       Type             X           Y           Z
 ---------------------------------------------------------------------
      1          6           0       -0.882133   -1.734050   -0.039068
      2          6           0       -0.894854   -0.238123   -0.341199
      3          6           0       -2.170935    0.404883    0.199055
      4          6           0        0.344058    0.455272    0.222514
      5          8           0        1.517347   -0.147608   -0.408650
      6          6           0        2.364516   -0.883597    0.216127
      7          6           0        0.423327    1.943056   -0.042666
      8          1           0       -1.756591   -2.218730   -0.476052
      9          1           0        0.002783   -2.227707   -0.441898
     10          1           0       -0.910746   -1.912076    1.040163
     11          1           0       -0.866322   -0.100152   -1.428066
     12          1           0       -2.193569    0.372789    1.292467
     13          1           0       -3.045961   -0.137274   -0.162301
     14          1           0       -2.277159    1.444583   -0.111296
     15          1           0        0.433347    0.244566    1.296482
     16          1           0        2.031655   -0.928419    1.292390
     17          1           0        0.293919    2.154338   -1.105666
     18          1           0        1.393483    2.329724    0.269918
     19          1           0       -0.347496    2.474581    0.514485
 ---------------------------------------------------------------------

 SCF Done:  E(RHF) =  -309.320932975     A.U. after    2 cycles

 The electronic state is 1-A.
 Alpha  occ. eigenvalues --  -20.60540 -11.30848 -11.29828 -11.24912 -11.24088
 Alpha  occ. eigenvalues --  -11.23750 -11.23080  -1.53438  -1.11965  -1.02666
 Alpha  occ. eigenvalues --   -0.94756  -0.90346  -0.83855  -0.80176  -0.69037
 Alpha  occ. eigenvalues --   -0.65797  -0.63931  -0.61739  -0.57599  -0.56968
 Alpha  occ. eigenvalues --   -0.56736  -0.55431  -0.53721  -0.52093  -0.50230
 Alpha  occ. eigenvalues --   -0.48688  -0.47355  -0.34980
 Alpha virt. eigenvalues --    0.03144   0.03296   0.03430   0.04496   0.05782
 Alpha virt. eigenvalues --    0.05868   0.06251   0.06684   0.07643   0.09060
 Alpha virt. eigenvalues --    0.09395   0.09587   0.10983   0.12722   0.13103

 Mulliken charges:
               1
     1  C   -0.045648
     2  C   -1.238817
     3  C   -0.011585
     4  C    0.687085
     5  O   -1.110596
     6  C   -0.027961
     7  C   -0.325098
     8  H    0.132948
     9  H    0.179056
    10  H    0.238439
    11  H    0.132111
    12  H    0.238098
    13  H    0.133856
    14  H    0.145410
    15  H    0.162920
    16  H    0.126090
    17  H    0.217265
    18  H    0.134684
    19  H    0.231742
 Sum of Mulliken charges =  -0.00000

 Dipole moment (field-independent basis, Debye):
    X=             -3.4616    Y=              1.7479    Z=              1.2683  Tot=              4.0800

 Test job not archived.
 1\1\GINC-SE116\SP\RHF\Aug-CC-pVDZ\C6H12O1\OHZDE\09-Apr-2025\0\\#t hf a
 ug-cc-pvdz iop(5/13=1,5/36=2,99/5=2) pseudo=read geom=check guess=(rea
 d,tcheck) scf=(maxcycle=1)\\title\\0,1\C,0,-1.44226467,-1.15612536,-0.
 25658505\C,0,-0.60834313,0.12020844,-0.32579969\C,0,-1.34726783,1.2777
 5639,0.34337028\C,0,0.77026945,-0.07964087,0.30106524\O,0,1.45143118,-
 1.13424818,-0.4487756\C,0,1.71128042,-2.29695778,0.0311279\C,0,1.67392
 583,1.13368834,0.26442796\H,0,-2.41032549,-1.00558207,-0.73694115\H,0,
 -0.95449815,-1.99394277,-0.75577524\H,0,-1.63022831,-1.44077867,0.7830

 Normal termination of Gaussian 16 at Wed Apr  9 18:32:58 2025.
