 Gaussian 16, Revision C.01,

 ----------------------------------------------------------------------
 #t hf aug-cc-pvdz symm=none int=(grid=ultrafine) guess=(read,tcheck) s
 table=(opt,rrhf)
 ----------------------------------------------------------------------
 -----
 title
 -----
 Symbolic Z-matrix:
 Charge =  0 Multiplicity = 1

 SCF Done:  E(RHF) =  -306.664354117     A.U. after   12 cycles
 Normal termination of Gaussian 16 at Wed Apr  9 03:51:39 2025.
 Gaussian 16:  ES64L-G16RevC.01  3-Jul-2019

 ----------------------------------------------------------------------
 #t hf aug-cc-pvdz iop(5/13=1,5/36=2,99/5=2) pseudo=read geom=check gue
 ss=(read,tcheck) scf=(maxcycle=1)
 ----------------------------------------------------------------------
 -----
 title
 -----
 Structure from the checkpoint file:  "Grambow2020_wb97xd3_008170_forward_mol2.chk"
 Charge =  0 Multiplicity = 1

                         Standard orientation:
 ---------------------------------------------------------------------
 Center     Atomic      Atomic             Coordinates (Angstroms)
 Number     Number       Type             X           Y           Z
 ---------------------------------------------------------------------
      1          6           0       -1.610400   -0.270564    0.242793
      2          6           0       -0.714049    0.416517   -0.797140
      3          8           0       -0.000559    1.362203   -0.000151
      4          6           0        0.713797    0.417290    0.796599
      5          6           0        1.610560   -0.270007   -0.242640
      6          6           0        0.270670   -0.812302   -0.732166
      7          6           0       -0.270191   -0.811889    0.732217
      8          1           0       -2.209074    0.377845    0.883019
      9          1           0       -2.216301   -1.068503   -0.188790
     10          1           0       -1.075395    0.867098   -1.717678
     11          1           0        1.075660    0.867413    1.717119
     12          1           0        2.210617    0.377236   -0.882760
     13          1           0        2.216025   -1.067394    0.190584
     14          1           0        0.137501   -1.633716   -1.431250
     15          1           0       -0.136886   -1.631874    1.432984
 ---------------------------------------------------------------------

 SCF Done:  E(RHF) =  -306.985702475     A.U. after    2 cycles

 The electronic state is 1-A.
 Alpha  occ. eigenvalues --  -20.53747 -11.28787 -11.28712 -11.24094 -11.24074
 Alpha  occ. eigenvalues --  -11.22950 -11.22920  -1.47897  -1.16240  -1.03660
 Alpha  occ. eigenvalues --   -0.92512  -0.84322  -0.78218  -0.75697  -0.72140
 Alpha  occ. eigenvalues --   -0.65268  -0.64565  -0.60267  -0.54777  -0.52490
 Alpha  occ. eigenvalues --   -0.50620  -0.49531  -0.47576  -0.44433  -0.41912
 Alpha  occ. eigenvalues --   -0.39490
 Alpha virt. eigenvalues --    0.03374   0.03498   0.03988   0.04249   0.05724
 Alpha virt. eigenvalues --    0.06153   0.06461   0.06550   0.11091   0.12345
 Alpha virt. eigenvalues --    0.12632   0.12776   0.13392   0.14103   0.14492

 Mulliken charges:
               1
     1  C   -0.011979
     2  C    0.997380
     3  O   -1.654716
     4  C    0.998947
     5  C   -0.012349
     6  C    0.054607
     7  C    0.053739
     8  H   -0.002350
     9  H    0.035579
    10  H   -0.052179
    11  H   -0.051950
    12  H   -0.003242
    13  H    0.036102
    14  H   -0.193738
    15  H   -0.193851
 Sum of Mulliken charges =  -0.00000

 Dipole moment (field-independent basis, Debye):
    X=              0.0009    Y=             -1.8012    Z=              0.0008  Tot=              1.8012

 Test job not archived.
 1\1\GINC-SE150\SP\RHF\Aug-CC-pVDZ\C6H8O1\OHZDE\09-Apr-2025\0\\#t hf au
 g-cc-pvdz iop(5/13=1,5/36=2,99/5=2) pseudo=read geom=check guess=(read
 ,tcheck) scf=(maxcycle=1)\\title\\0,1\C,0,-1.6054966,-0.13289782,-0.25
 210139\C,0,-0.66977088,-0.48204093,0.91387453\O,0,0.14567822,-1.507951
 31,0.3471901\C,0,0.78393481,-0.69943143,-0.64119109\C,0,1.5906528,0.28
 476003,0.21738629\C,0,0.19596436,0.79061234,0.57513177\C,0,-0.31254338
 ,0.41265165,-0.85158263\H,0,-2.12729403,-0.96196121,-0.73076273\H,0,-2
 .29250754,0.67882226,-0.00876175\H,0,-1.00573346,-0.74943004,1.9121817

 Normal termination of Gaussian 16 at Wed Apr  9 03:51:44 2025.
