 Gaussian 16, Revision C.01,

 ----------------------------------------------------------------------
 #t hf aug-cc-pvdz symm=none int=(grid=ultrafine) guess=(read,tcheck) s
 table=(opt,rrhf)
 ----------------------------------------------------------------------
 -----
 title
 -----
 Symbolic Z-matrix:
 Charge =  0 Multiplicity = 1

 SCF Done:  E(RHF) =  -268.679385514     A.U. after   18 cycles
 Normal termination of Gaussian 16 at Wed Apr  9 16:00:57 2025.
 Gaussian 16:  ES64L-G16RevC.01  3-Jul-2019

 ----------------------------------------------------------------------
 #t hf aug-cc-pvdz iop(5/13=1,5/36=2,99/5=2) pseudo=read geom=check gue
 ss=(read,tcheck) scf=(maxcycle=1)
 ----------------------------------------------------------------------
 -----
 title
 -----
 Structure from the checkpoint file:  "Grambow2020_b97d3_007088_forward_mol1.chk"
 Charge =  0 Multiplicity = 1

                         Standard orientation:
 ---------------------------------------------------------------------
 Center     Atomic      Atomic             Coordinates (Angstroms)
 Number     Number       Type             X           Y           Z
 ---------------------------------------------------------------------
      1          6           0        1.974580   -0.841955   -0.278324
      2          6           0        0.858425   -0.354468    0.646537
      3          6           0       -1.155281   -0.171112   -0.595034
      4          8           0       -2.110027   -0.672398    0.208145
      5          6           0       -0.121515    0.691481   -0.098865
      6          6           0        0.207718    1.997970   -0.102995
      7          1           0        1.578268   -1.426977   -1.119525
      8          1           0        2.676300   -1.481149    0.279578
      9          1           0        2.532187    0.010286   -0.687064
     10          1           0        1.277139    0.183832    1.503795
     11          1           0        0.299549   -1.212141    1.052361
     12          1           0       -1.075508   -0.764752   -1.507970
     13          1           0       -2.162842   -0.080652    0.992684
     14          1           0        1.171560    2.219236    0.393058
 ---------------------------------------------------------------------

 SCF Done:  E(RHF) =  -268.956527612     A.U. after    2 cycles

 The electronic state is 1-A.
 Alpha  occ. eigenvalues --  -20.68014 -11.44556 -11.26088 -11.23547 -11.22204
 Alpha  occ. eigenvalues --  -11.18168  -1.58481  -1.10170  -1.00569  -0.93915
 Alpha  occ. eigenvalues --   -0.84705  -0.82321  -0.74065  -0.67149  -0.63813
 Alpha  occ. eigenvalues --   -0.61653  -0.59784  -0.54538  -0.54229  -0.51120
 Alpha  occ. eigenvalues --   -0.49438  -0.34515  -0.28032
 Alpha virt. eigenvalues --    0.01608   0.02790   0.02929   0.03899   0.05029
 Alpha virt. eigenvalues --    0.05705   0.07033   0.07392   0.08452   0.09981
 Alpha virt. eigenvalues --    0.11736   0.13035   0.13149   0.13623   0.13918

 Mulliken charges:
               1
     1  C   -0.421539
     2  C   -0.579128
     3  C    1.297867
     4  O   -1.178691
     5  C    0.542277
     6  C   -0.775749
     7  H    0.139072
     8  H    0.141609
     9  H    0.203916
    10  H    0.162165
    11  H    0.072271
    12  H    0.024006
    13  H    0.440959
    14  H   -0.069033
 Sum of Mulliken charges =  -0.00000

 Dipole moment (field-independent basis, Debye):
    X=             -1.5590    Y=             -5.3890    Z=              0.7449  Tot=              5.6592

 Test job not archived.
 1\1\GINC-SE220\SP\RHF\Aug-CC-pVDZ\C5H8O1\OHZDE\09-Apr-2025\0\\#t hf au
 g-cc-pvdz iop(5/13=1,5/36=2,99/5=2) pseudo=read geom=check guess=(read
 ,tcheck) scf=(maxcycle=1)\\title\\0,1\C,0,-1.29954967,1.09609952,-0.43
 957474\C,0,-0.56605605,-0.23989782,-0.56570849\C,0,0.98863772,-0.44422
 034,1.21510876\O,0,0.87606068,-1.71645043,1.63544358\C,0,0.99640959,-0
 .10294268,-0.1785885\C,0,1.87067581,0.26845922,-1.13412208\H,0,-1.3298
 8695,1.44586159,0.60142461\H,0,-2.33687003,0.99331967,-0.79402876\H,0,
 -0.80131993,1.86455649,-1.04418175\H,0,-0.58947128,-0.59499398,-1.6017

 Normal termination of Gaussian 16 at Wed Apr  9 16:01:01 2025.
