 Gaussian 16, Revision C.01,

 ----------------------------------------------------------------------
 #t hf aug-cc-pvdz symm=none int=(grid=ultrafine) guess=(read,tcheck) s
 table=(opt,rrhf)
 ----------------------------------------------------------------------
 -----
 title
 -----
 Symbolic Z-matrix:
 Charge =  0 Multiplicity = 1

 SCF Done:  E(RHF) =  -286.726902355     A.U. after   16 cycles
 Normal termination of Gaussian 16 at Wed Apr  9 18:26:29 2025.
 Gaussian 16:  ES64L-G16RevC.01  3-Jul-2019

 ----------------------------------------------------------------------
 #t hf aug-cc-pvdz iop(5/13=1,5/36=2,99/5=2) pseudo=read geom=check gue
 ss=(read,tcheck) scf=(maxcycle=1)
 ----------------------------------------------------------------------
 -----
 title
 -----
 Structure from the checkpoint file:  "Grambow2020_wb97xd3_007562_reverse_mol2.chk"
 Charge =  0 Multiplicity = 1

                         Standard orientation:
 ---------------------------------------------------------------------
 Center     Atomic      Atomic             Coordinates (Angstroms)
 Number     Number       Type             X           Y           Z
 ---------------------------------------------------------------------
      1          6           0       -2.464065   -0.971176   -0.279439
      2          6           0        0.239376    0.972964   -0.468163
      3          6           0        0.898902   -0.256995    0.005813
      4          6           0        2.358146   -0.247961    0.030364
      5          6           0        3.553401   -0.250871    0.084263
      6          6           0       -1.168444    1.075720   -0.054482
      7          7           0       -1.848297   -0.016292    0.624635
      8          1           0       -1.697479   -1.507567   -0.843324
      9          1           0       -3.148267   -0.509993   -1.007406
     10          1           0       -3.020038   -1.713928    0.292943
     11          1           0        0.557968   -0.954844   -0.784884
     12          1           0        0.472902   -0.672079    0.928847
     13          1           0        4.616646   -0.241719    0.125993
     14          1           0       -1.056386    1.932186    0.635856
     15          1           0       -1.748250    1.502853   -0.889857
     16          1           0       -2.542917    0.349047    1.259252
 ---------------------------------------------------------------------

 SCF Done:  E(RHF) =  -287.030273981     A.U. after    2 cycles

 The electronic state is 1-A.
 Alpha  occ. eigenvalues --  -15.49859 -11.27360 -11.27144 -11.26656 -11.26516
 Alpha  occ. eigenvalues --  -11.23745 -11.22604  -1.22455  -1.09371  -1.02131
 Alpha  occ. eigenvalues --   -0.96880  -0.90591  -0.76688  -0.72460  -0.70621
 Alpha  occ. eigenvalues --   -0.66210  -0.64321  -0.63300  -0.60564  -0.55185
 Alpha  occ. eigenvalues --   -0.54715  -0.53810  -0.42814  -0.39270  -0.39183
 Alpha  occ. eigenvalues --   -0.35924
 Alpha virt. eigenvalues --    0.02988   0.04109   0.04127   0.04565   0.05217
 Alpha virt. eigenvalues --    0.06223   0.06407   0.06965   0.07898   0.08558
 Alpha virt. eigenvalues --    0.09511   0.11451   0.12077   0.12650   0.13831

 Mulliken charges:
               1
     1  C   -0.325937
     2  C   -0.534385
     3  C   -0.841493
     4  C    0.620613
     5  C    0.113663
     6  C   -0.623730
     7  N    0.359592
     8  H    0.074844
     9  H    0.156079
    10  H    0.049861
    11  H    0.404013
    12  H    0.235203
    13  H   -0.405405
    14  H    0.257358
    15  H    0.210072
    16  H    0.249653
 Sum of Mulliken charges =  -0.00000

 Dipole moment (field-independent basis, Debye):
    X=             -2.9358    Y=             -0.9125    Z=              0.7287  Tot=              3.1595

 Test job not archived.
 1\1\GINC-SE029\SP\RHF\Aug-CC-pVDZ\C6H9N1\OHZDE\09-Apr-2025\0\\#t hf au
 g-cc-pvdz iop(5/13=1,5/36=2,99/5=2) pseudo=read geom=check guess=(read
 ,tcheck) scf=(maxcycle=1)\\title\\0,1\C,0,-1.98446686,0.94108012,-0.41
 684503\C,0,0.84169595,0.21129441,1.19688131\C,0,1.15613232,-0.44698075
 ,-0.08383332\C,0,2.51567285,-0.95383549,-0.24139838\C,0,3.61688744,-1.
 40081293,-0.37954798\C,0,-0.60084184,0.28697109,1.47438397\N,0,-1.5918
 7891,-0.12177647,0.49119375\H,0,-1.14469704,1.22227909,-1.05641477\H,0
 ,-2.33007999,1.85184482,0.09483542\H,0,-2.78258099,0.58984898,-1.07110

 Normal termination of Gaussian 16 at Wed Apr  9 18:26:34 2025.
