 Gaussian 16, Revision C.01,

 ----------------------------------------------------------------------
 #t hf aug-cc-pvdz symm=none int=(grid=ultrafine) guess=(read,tcheck) s
 table=(opt,rrhf)
 ----------------------------------------------------------------------
 -----
 title
 -----
 Symbolic Z-matrix:
 Charge =  0 Multiplicity = 1

 SCF Done:  E(RHF) =  -317.721721331     A.U. after   14 cycles
 Normal termination of Gaussian 16 at Wed Apr  9 18:42:20 2025.
 Gaussian 16:  ES64L-G16RevC.01  3-Jul-2019

 ----------------------------------------------------------------------
 #t hf aug-cc-pvdz iop(5/13=1,5/36=2,99/5=2) pseudo=read geom=check gue
 ss=(read,tcheck) scf=(maxcycle=1)
 ----------------------------------------------------------------------
 -----
 title
 -----
 Structure from the checkpoint file:  "Grambow2020_wb97xd3_007989_reverse_mol2.chk"
 Charge =  0 Multiplicity = 1

                         Standard orientation:
 ---------------------------------------------------------------------
 Center     Atomic      Atomic             Coordinates (Angstroms)
 Number     Number       Type             X           Y           Z
 ---------------------------------------------------------------------
      1          7           0        2.204248   -0.076969   -0.050316
      2          6           0        0.842382   -0.072831   -0.006694
      3          7           0        0.199337    1.123706   -0.010871
      4          6           0       -1.152096    1.326172    0.003317
      5          6           0       -1.827795    0.085417    0.011958
      6          6           0       -1.148012   -1.105716    0.001039
      7          7           0        0.194283   -1.206533   -0.001281
      8          1           0        2.626676   -0.974615    0.110757
      9          1           0        2.710548    0.719614    0.291927
     10          1           0        0.775745    1.952291   -0.043653
     11          1           0       -2.910631    0.079815    0.020753
     12          1           0       -1.674285   -2.056785   -0.000231
 ---------------------------------------------------------------------

 SCF Done:  E(RHF) =  -318.044441094     A.U. after    2 cycles

 The electronic state is 1-A.
 Alpha  occ. eigenvalues --  -15.57182 -15.54924 -15.49884 -11.38266 -11.29751
 Alpha  occ. eigenvalues --  -11.24622 -11.21477  -1.35706  -1.23890  -1.22463
 Alpha  occ. eigenvalues --   -1.05365  -0.93145  -0.91458  -0.81713  -0.75789
 Alpha  occ. eigenvalues --   -0.75109  -0.69818  -0.66237  -0.65030  -0.55351
 Alpha  occ. eigenvalues --   -0.52549  -0.50070  -0.49130  -0.35714  -0.35145
 Alpha virt. eigenvalues --    0.02016   0.04432   0.04623   0.05474   0.05926
 Alpha virt. eigenvalues --    0.07596   0.09689   0.09948   0.11280   0.11747
 Alpha virt. eigenvalues --    0.12359   0.12737   0.13499   0.14901   0.15088

 Mulliken charges:
               1
     1  N    0.545742
     2  C   -1.474466
     3  N    0.471191
     4  C   -0.876813
     5  C    0.637695
     6  C   -0.178013
     7  N    0.633491
     8  H    0.210544
     9  H    0.118346
    10  H    0.193413
    11  H   -0.124253
    12  H   -0.156878
 Sum of Mulliken charges =  -0.00000

 Dipole moment (field-independent basis, Debye):
    X=              3.7203    Y=             -0.6166    Z=              0.7418  Tot=              3.8433

 Test job not archived.
 1\1\GINC-SE116\SP\RHF\Aug-CC-pVDZ\C4H5N3\OHZDE\09-Apr-2025\0\\#t hf au
 g-cc-pvdz iop(5/13=1,5/36=2,99/5=2) pseudo=read geom=check guess=(read
 ,tcheck) scf=(maxcycle=1)\\title\\0,1\N,0,2.09324228,-0.46479924,-0.01
 448939\C,0,0.77121513,-0.13498206,-0.00649525\N,0,-0.13675509,-1.11108
 668,0.25433913\C,0,-1.49367598,-0.96724705,0.32944639\C,0,-1.85117,0.3
 8089313,0.10398294\C,0,-0.90769081,1.34535592,-0.1423497\N,0,0.4150762
 ,1.10498628,-0.20894673\H,0,2.70314856,0.25413934,-0.36277138\H,0,2.36
 375135,-1.41101314,-0.21328181\H,0,0.22532729,-2.03792584,0.42678993\H

 Normal termination of Gaussian 16 at Wed Apr  9 18:42:24 2025.
