 Gaussian 16, Revision C.01,

 ----------------------------------------------------------------------
 #t hf aug-cc-pvdz symm=none int=(grid=ultrafine) guess=(read,tcheck) s
 table=(opt,rrhf)
 ----------------------------------------------------------------------
 -----
 title
 -----
 Symbolic Z-matrix:
 Charge =  0 Multiplicity = 1

 SCF Done:  E(RHF) =  -302.785979041     A.U. after   14 cycles
 Normal termination of Gaussian 16 at Wed Apr  9 19:13:02 2025.
 Gaussian 16:  ES64L-G16RevC.01  3-Jul-2019

 ----------------------------------------------------------------------
 #t hf aug-cc-pvdz iop(5/13=1,5/36=2,99/5=2) pseudo=read geom=check gue
 ss=(read,tcheck) scf=(maxcycle=1)
 ----------------------------------------------------------------------
 -----
 title
 -----
 Structure from the checkpoint file:  "Grambow2020_wb97xd3_008909_reverse_mol2.chk"
 Charge =  0 Multiplicity = 1

                         Standard orientation:
 ---------------------------------------------------------------------
 Center     Atomic      Atomic             Coordinates (Angstroms)
 Number     Number       Type             X           Y           Z
 ---------------------------------------------------------------------
      1          6           0        1.984831   -0.691423   -0.183380
      2          7           0        0.563032   -0.686814   -0.499891
      3          6           0       -0.309266   -0.714639    0.699132
      4          6           0       -1.732781   -0.785916    0.182709
      5          6           0       -1.605686    0.338304   -0.524109
      6          6           0       -0.159992    0.538743   -0.062915
      7          7           0        0.540616    1.711348    0.291064
      8          1           0        2.241939   -0.172303    0.746204
      9          1           0        2.314071   -1.729881   -0.120557
     10          1           0        2.528117   -0.210367   -0.998198
     11          1           0        0.096920   -0.959741    1.670755
     12          1           0       -2.477811   -1.569678    0.211755
     13          1           0       -2.211864    0.817038   -1.282955
     14          1           0        0.624950    2.346468   -0.490557
     15          1           0        0.095513    2.196322    1.056718
 ---------------------------------------------------------------------

 SCF Done:  E(RHF) =  -303.106778315     A.U. after    2 cycles

 The electronic state is 1-A.
 Alpha  occ. eigenvalues --  -15.50112 -15.49893 -11.29259 -11.26086 -11.24298
 Alpha  occ. eigenvalues --  -11.24163 -11.23941  -1.30318  -1.17706  -1.09781
 Alpha  occ. eigenvalues --   -0.94545  -0.86110  -0.81326  -0.73979  -0.71963
 Alpha  occ. eigenvalues --   -0.70247  -0.65613  -0.61733  -0.59672  -0.55543
 Alpha  occ. eigenvalues --   -0.53136  -0.50862  -0.48750  -0.43125  -0.39936
 Alpha  occ. eigenvalues --   -0.34228
 Alpha virt. eigenvalues --    0.03289   0.04234   0.04429   0.05025   0.05158
 Alpha virt. eigenvalues --    0.05886   0.06210   0.06933   0.10452   0.10611
 Alpha virt. eigenvalues --    0.12008   0.12972   0.13893   0.14229   0.14696

 Mulliken charges:
               1
     1  C   -0.368492
     2  N    0.556899
     3  C   -0.124558
     4  C    0.478018
     5  C    0.566237
     6  C   -2.146693
     7  N    0.613815
     8  H    0.169452
     9  H    0.056742
    10  H    0.064887
    11  H   -0.211653
    12  H   -0.075473
    13  H   -0.101805
    14  H    0.242837
    15  H    0.279786
 Sum of Mulliken charges =   0.00000

 Dipole moment (field-independent basis, Debye):
    X=             -0.6203    Y=              1.4506    Z=              1.0308  Tot=              1.8846

 Test job not archived.
 1\1\GINC-SE162\SP\RHF\Aug-CC-pVDZ\C5H8N2\OHZDE\09-Apr-2025\0\\#t hf au
 g-cc-pvdz iop(5/13=1,5/36=2,99/5=2) pseudo=read geom=check guess=(read
 ,tcheck) scf=(maxcycle=1)\\title\\0,1\C,0,-1.26528466,-1.26986849,0.80
 891895\N,0,-0.01046355,-0.53034733,0.79325331\C,0,0.72739391,-0.645760
 64,-0.48798852\C,0,2.02684318,0.11083709,-0.29522354\C,0,1.39954452,1.
 24694869,0.0135841\C,0,0.02051185,0.60747018,-0.16597223\N,0,-1.168344
 91,1.12168773,-0.72575416\H,0,-1.77099938,-1.32125921,-0.16130216\H,0,
 -1.05760524,-2.28112751,1.16242428\H,0,-1.94512606,-0.79408688,1.51740

 Normal termination of Gaussian 16 at Wed Apr  9 19:13:07 2025.
