 Gaussian 16, Revision C.01,

 ----------------------------------------------------------------------
 #t hf aug-cc-pvdz symm=none int=(grid=ultrafine) guess=(read,tcheck) s
 table=(opt,rrhf)
 ----------------------------------------------------------------------
 -----
 title
 -----
 Symbolic Z-matrix:
 Charge =  0 Multiplicity = 1

 SCF Done:  E(RHF) =  -262.494637489     A.U. after   16 cycles
 Normal termination of Gaussian 16 at Wed Apr  9 15:55:39 2025.
 Gaussian 16:  ES64L-G16RevC.01  3-Jul-2019

 ----------------------------------------------------------------------
 #t hf aug-cc-pvdz iop(5/13=1,5/36=2,99/5=2) pseudo=read geom=check gue
 ss=(read,tcheck) scf=(maxcycle=1)
 ----------------------------------------------------------------------
 -----
 title
 -----
 Structure from the checkpoint file:  "Grambow2020_b97d3_006896_reverse_mol2.chk"
 Charge =  0 Multiplicity = 1

                         Standard orientation:
 ---------------------------------------------------------------------
 Center     Atomic      Atomic             Coordinates (Angstroms)
 Number     Number       Type             X           Y           Z
 ---------------------------------------------------------------------
      1          6           0       -1.452877   -0.551135    0.661886
      2          6           0        2.140409   -0.688757    0.160869
      3          7           0        1.289449    0.160738   -0.030531
      4          7           0        0.466263    1.080036   -0.006929
      5          6           0       -0.952660    0.680426   -0.027412
      6          6           0       -1.438480   -0.593017   -0.644757
      7          1           0       -1.623226   -1.038852    1.615645
      8          1           0        2.701750   -1.186189   -0.628374
      9          1           0       -1.547954    1.595597   -0.061098
     10          1           0       -1.598907   -1.141073   -1.567474
 ---------------------------------------------------------------------

 SCF Done:  E(RHF) =  -262.757438806     A.U. after    2 cycles

 The electronic state is 1-A.
 Alpha  occ. eigenvalues --  -15.64186 -15.54986 -11.30059 -11.28893 -11.27527
 Alpha  occ. eigenvalues --  -11.27314  -1.39405  -1.20266  -1.15052  -0.91748
 Alpha  occ. eigenvalues --   -0.79181  -0.75087  -0.73180  -0.70507  -0.66146
 Alpha  occ. eigenvalues --   -0.64006  -0.54342  -0.47908  -0.44639  -0.39727
 Alpha  occ. eigenvalues --   -0.35190
 Alpha virt. eigenvalues --    0.03253   0.03828   0.04302   0.04935   0.06420
 Alpha virt. eigenvalues --    0.07801   0.08706   0.08835   0.10689   0.11699
 Alpha virt. eigenvalues --    0.11943   0.13713   0.13975   0.14966   0.15651

 Mulliken charges:
               1
     1  C    0.362737
     2  C   -0.346893
     3  N    0.274519
     4  N   -0.186356
     5  C   -0.112797
     6  C    0.360925
     7  H   -0.175024
     8  H    0.059561
     9  H   -0.057284
    10  H   -0.179386
 Sum of Mulliken charges =   0.00000

 Dipole moment (field-independent basis, Debye):
    X=             -0.9736    Y=             -2.5526    Z=             -1.1908  Tot=              2.9802

 Test job not archived.
 1\1\GINC-SE232\SP\RHF\Aug-CC-pVDZ\C4H4N2\OHZDE\09-Apr-2025\0\\#t hf au
 g-cc-pvdz iop(5/13=1,5/36=2,99/5=2) pseudo=read geom=check guess=(read
 ,tcheck) scf=(maxcycle=1)\\title\\0,1\C,0,-0.50232209,1.18678562,-0.74
 633111\C,0,2.07562599,-1.21886602,0.11893739\N,0,0.86070069,-1.2645358
 ,0.05351269\N,0,-0.33584077,-1.36266082,-0.23277489\C,0,-1.09883376,-0
 .10177761,-0.27107301\C,0,-0.73480521,1.10339909,0.53752029\H,0,-0.105
 12404,1.73211948,-1.59567655\H,0,2.64586684,-1.30698192,1.04225067\H,0
 ,-2.14020336,-0.35782644,-0.4785241\H,0,-0.67910229,1.53649941,1.53091

 Normal termination of Gaussian 16 at Wed Apr  9 15:55:42 2025.
