 Gaussian 16, Revision C.01,

 ----------------------------------------------------------------------
 #t hf aug-cc-pvdz symm=none int=(grid=ultrafine) guess=(read,tcheck) s
 table=(opt,rrhf)
 ----------------------------------------------------------------------
 -----
 title
 -----
 Symbolic Z-matrix:
 Charge =  0 Multiplicity = 1

 SCF Done:  E(RHF) =  -353.432770387     A.U. after   17 cycles
 Normal termination of Gaussian 16 at Wed Apr  9 17:14:14 2025.
 Gaussian 16:  ES64L-G16RevC.01  3-Jul-2019

 ----------------------------------------------------------------------
 #t hf aug-cc-pvdz iop(5/13=1,5/36=2,99/5=2) pseudo=read geom=check gue
 ss=(read,tcheck) scf=(maxcycle=1)
 ----------------------------------------------------------------------
 -----
 title
 -----
 Structure from the checkpoint file:  "Grambow2020_wb97xd3_006535_forward_mol1.chk"
 Charge =  0 Multiplicity = 1

                         Standard orientation:
 ---------------------------------------------------------------------
 Center     Atomic      Atomic             Coordinates (Angstroms)
 Number     Number       Type             X           Y           Z
 ---------------------------------------------------------------------
      1          8           0        2.183960    0.030166    0.264870
      2          6           0        1.023743    0.042998   -0.035743
      3          7           0        0.317222   -1.141452   -0.309768
      4          7           0       -1.025569   -1.124194   -0.046002
      5          6           0       -1.681652   -0.039275    0.234751
      6          6           0       -0.986824    1.180847   -0.014783
      7          7           0        0.285602    1.222333   -0.209331
      8          1           0       -0.373457   -2.033463    0.324454
      9          1           0       -2.722546   -0.121460    0.510702
     10          1           0       -1.548068    2.109358   -0.103748
 ---------------------------------------------------------------------

 SCF Done:  E(RHF) =  -353.782635390     A.U. after    2 cycles

 The electronic state is 1-A.
 Alpha  occ. eigenvalues --  -20.51952 -15.64417 -15.57762 -15.54528 -11.38869
 Alpha  occ. eigenvalues --  -11.34303 -11.33187  -1.48352  -1.41704  -1.27604
 Alpha  occ. eigenvalues --   -1.17403  -0.99821  -0.97282  -0.82708  -0.78785
 Alpha  occ. eigenvalues --   -0.71623  -0.70327  -0.64754  -0.62276  -0.59418
 Alpha  occ. eigenvalues --   -0.56510  -0.51760  -0.49279  -0.43812  -0.39394
 Alpha virt. eigenvalues --   -0.00794   0.01998   0.03688   0.04050   0.08094
 Alpha virt. eigenvalues --    0.08760   0.09413   0.10126   0.10776   0.11192
 Alpha virt. eigenvalues --    0.12280   0.12303   0.13003   0.13518   0.15175

 Mulliken charges:
               1
     1  O   -1.138773
     2  C    0.462373
     3  N   -0.027119
     4  N    0.235148
     5  C   -0.029187
     6  C   -0.473234
     7  N    0.761274
     8  H    0.319607
     9  H   -0.076422
    10  H   -0.033667
 Sum of Mulliken charges =   0.00000

 Dipole moment (field-independent basis, Debye):
    X=             -6.9725    Y=             -0.2602    Z=              1.3167  Tot=              7.1005

 Test job not archived.
 1\1\GINC-SE045\SP\RHF\Aug-CC-pVDZ\C3H3N3O1\OHZDE\09-Apr-2025\0\\#t hf
 aug-cc-pvdz iop(5/13=1,5/36=2,99/5=2) pseudo=read geom=check guess=(re
 ad,tcheck) scf=(maxcycle=1)\\title\\0,1\O,0,2.26568264,-1.33650347,-0.
 09231707\C,0,1.23311902,-0.78045376,0.15518465\N,0,1.19530718,0.568549
 94,0.55008178\N,0,0.06142996,1.26494151,0.23020625\C,0,-1.01905125,0.6
 9917737,-0.21565065\C,0,-1.06262724,-0.72130093,-0.09694234\N,0,-0.011
 63846,-1.42564104,0.14381452\H,0,1.11648729,1.74112238,0.00802843\H,0,
 -1.84259849,1.32705594,-0.52208553\H,0,-2.02070064,-1.23517893,-0.1523

 Normal termination of Gaussian 16 at Wed Apr  9 17:14:22 2025.
