 Gaussian 16, Revision C.01,

 ----------------------------------------------------------------------
 #t hf aug-cc-pvdz symm=none int=(grid=ultrafine) guess=(read,tcheck) s
 table=(opt,rrhf)
 ----------------------------------------------------------------------
 -----
 title
 -----
 Symbolic Z-matrix:
 Charge =  0 Multiplicity = 1

 SCF Done:  E(RHF) =  -265.042885696     A.U. after   14 cycles
 Normal termination of Gaussian 16 at Wed Apr  9 15:50:57 2025.
 Gaussian 16:  ES64L-G16RevC.01  3-Jul-2019

 ----------------------------------------------------------------------
 #t hf aug-cc-pvdz iop(5/13=1,5/36=2,99/5=2) pseudo=read geom=check gue
 ss=(read,tcheck) scf=(maxcycle=1)
 ----------------------------------------------------------------------
 -----
 title
 -----
 Structure from the checkpoint file:  "Grambow2020_b97d3_006847_forward_mol2.chk"
 Charge =  0 Multiplicity = 1

                         Standard orientation:
 ---------------------------------------------------------------------
 Center     Atomic      Atomic             Coordinates (Angstroms)
 Number     Number       Type             X           Y           Z
 ---------------------------------------------------------------------
      1          6           0       -2.061137    0.294851    0.094512
      2          7           0       -1.012847   -0.648419   -0.309164
      3          6           0        0.270218   -0.439214    0.360796
      4          6           0        1.277317   -1.524508   -0.053722
      5          6           0        0.833425    0.916402    0.105893
      6          7           0        1.206180    1.992899   -0.166001
      7          1           0       -2.278565    0.148750    1.162044
      8          1           0       -2.974098    0.066897   -0.470249
      9          1           0       -1.803323    1.358773   -0.061743
     10          1           0       -0.863660   -0.578597   -1.319078
     11          1           0        0.088180   -0.514796    1.444455
     12          1           0        2.226867   -1.400562    0.481211
     13          1           0        0.852366   -2.508615    0.176444
     14          1           0        1.479965   -1.468394   -1.131798
 ---------------------------------------------------------------------

 SCF Done:  E(RHF) =  -265.318610094     A.U. after    2 cycles

 The electronic state is 1-A.
 Alpha  occ. eigenvalues --  -15.51922 -15.51643 -11.32307 -11.28349 -11.26980
 Alpha  occ. eigenvalues --  -11.25686  -1.24541  -1.21367  -1.05557  -0.92713
 Alpha  occ. eigenvalues --   -0.89675  -0.75620  -0.67717  -0.66485  -0.62052
 Alpha  occ. eigenvalues --   -0.61193  -0.57178  -0.56071  -0.54918  -0.54144
 Alpha  occ. eigenvalues --   -0.49640  -0.48678  -0.44332
 Alpha virt. eigenvalues --    0.03322   0.04028   0.04222   0.05081   0.05403
 Alpha virt. eigenvalues --    0.05526   0.06754   0.09379   0.09871   0.10454
 Alpha virt. eigenvalues --    0.12945   0.13494   0.13720   0.14222   0.15038

 Mulliken charges:
               1
     1  C   -0.436478
     2  N    0.448681
     3  C   -0.966547
     4  C   -0.011708
     5  C   -1.327621
     6  N    0.900402
     7  H    0.163313
     8  H    0.051792
     9  H    0.181503
    10  H    0.302980
    11  H    0.091563
    12  H    0.195524
    13  H    0.195845
    14  H    0.210751
 Sum of Mulliken charges =  -0.00000

 Dipole moment (field-independent basis, Debye):
    X=             -1.4096    Y=             -3.3071    Z=              0.5161  Tot=              3.6318

 Test job not archived.
 1\1\GINC-SE168\SP\RHF\Aug-CC-pVDZ\C4H8N2\OHZDE\09-Apr-2025\0\\#t hf au
 g-cc-pvdz iop(5/13=1,5/36=2,99/5=2) pseudo=read geom=check guess=(read
 ,tcheck) scf=(maxcycle=1)\\title\\0,1\C,0,1.92463399,-0.03118252,0.370
 82269\N,0,0.58178534,-0.62006993,0.41072995\C,0,-0.39631808,0.06334739
 ,-0.4349198\C,0,-1.74531202,-0.67355264,-0.40130029\C,0,-0.57643732,1.
 49367039,-0.05861121\N,0,-0.66600457,2.59802035,0.32100124\H,0,2.32436
 193,-0.1269671,-0.64863237\H,0,2.57736575,-0.60106467,1.04431473\H,0,1
 .96416755,1.03619034,0.65712019\H,0,0.2358933,-0.61208503,1.37372146\H

 Normal termination of Gaussian 16 at Wed Apr  9 15:51:01 2025.
