 Gaussian 16, Revision C.01,

 ----------------------------------------------------------------------
 #t hf aug-cc-pvdz symm=none int=(grid=ultrafine) guess=(read,tcheck) s
 table=(opt,rrhf)
 ----------------------------------------------------------------------
 -----
 title
 -----
 Symbolic Z-matrix:
 Charge =  0 Multiplicity = 1

 SCF Done:  E(RHF) =  -380.590324640     A.U. after   16 cycles
 Normal termination of Gaussian 16 at Wed Apr  9 19:02:56 2025.
 Gaussian 16:  ES64L-G16RevC.01  3-Jul-2019

 ----------------------------------------------------------------------
 #t hf aug-cc-pvdz iop(5/13=1,5/36=2,99/5=2) pseudo=read geom=check gue
 ss=(read,tcheck) scf=(maxcycle=1)
 ----------------------------------------------------------------------
 -----
 title
 -----
 Structure from the checkpoint file:  "Grambow2020_wb97xd3_008484_reverse_mol1.chk"
 Charge =  0 Multiplicity = 1

                         Standard orientation:
 ---------------------------------------------------------------------
 Center     Atomic      Atomic             Coordinates (Angstroms)
 Number     Number       Type             X           Y           Z
 ---------------------------------------------------------------------
      1          6           0        2.516730    0.891029   -0.121603
      2          8           0        2.029705   -0.394667   -0.549133
      3          6           0        0.972686   -0.916484    0.057404
      4          8           0        0.440755   -0.197101    0.971484
      5          6           0       -0.885420   -0.672137   -0.171514
      6          6           0       -1.775214    0.485146    0.259577
      7          8           0       -2.990388    0.383361   -0.454347
      8          1           0        2.762909    0.885252    0.939538
      9          1           0        3.410183    1.069559   -0.713762
     10          1           0        1.776475    1.668684   -0.310638
     11          1           0       -0.765128   -0.655939   -1.253971
     12          1           0       -1.207032   -1.643901    0.179858
     13          1           0       -1.929184    0.476211    1.340570
     14          1           0       -1.327148    1.439179   -0.014797
     15          1           0       -3.534334   -0.297118   -0.054010
 ---------------------------------------------------------------------

 SCF Done:  E(RHF) =  -380.974838296     A.U. after    2 cycles

 The electronic state is 1-A.
 Alpha  occ. eigenvalues --  -20.57209 -20.57185 -20.57082 -11.35051 -11.32933
 Alpha  occ. eigenvalues --  -11.30776 -11.28710  -1.53869  -1.47593  -1.44590
 Alpha  occ. eigenvalues --   -1.04177  -0.96944  -0.88599  -0.78930  -0.72729
 Alpha  occ. eigenvalues --   -0.69638  -0.67670  -0.66286  -0.64194  -0.62182
 Alpha  occ. eigenvalues --   -0.60310  -0.56021  -0.54453  -0.51397  -0.49168
 Alpha  occ. eigenvalues --   -0.48148  -0.45123  -0.33476
 Alpha virt. eigenvalues --    0.02986   0.03876   0.04356   0.04944   0.05990
 Alpha virt. eigenvalues --    0.06629   0.06862   0.08129   0.09972   0.10827
 Alpha virt. eigenvalues --    0.11712   0.12831   0.13715   0.14775   0.15500

 Mulliken charges:
               1
     1  C    0.237694
     2  O   -1.179397
     3  C    1.103236
     4  O   -0.883075
     5  C   -0.048767
     6  C    0.679858
     7  O   -1.121179
     8  H    0.135904
     9  H   -0.021770
    10  H    0.101825
    11  H    0.308840
    12  H    0.144184
    13  H    0.184836
    14  H    0.073213
    15  H    0.284600
 Sum of Mulliken charges =  -0.00000

 Dipole moment (field-independent basis, Debye):
    X=             -1.5807    Y=              0.9407    Z=              0.6002  Tot=              1.9348

 Test job not archived.
 1\1\GINC-SE135\SP\RHF\Aug-CC-pVDZ\C4H8O3\OHZDE\09-Apr-2025\0\\#t hf au
 g-cc-pvdz iop(5/13=1,5/36=2,99/5=2) pseudo=read geom=check guess=(read
 ,tcheck) scf=(maxcycle=1)\\title\\0,1\C,0,-2.60301802,0.30295835,-0.42
 688959\O,0,-2.04690239,-0.23002605,0.7895201\C,0,-0.90583742,-0.902658
 1,0.73469836\O,0,-0.36451083,-0.99225871,-0.42069808\C,0,0.90186582,-0
 .35823194,0.71294287\C,0,1.7244336,0.24025943,-0.41934169\O,0,2.883646
 96,0.81574085,0.14788096\H,0,-2.76327247,-0.48334727,-1.16357051\H,0,-
 3.55213431,0.74575712,-0.13725099\H,0,-1.94668946,1.06161354,-0.853661

 Normal termination of Gaussian 16 at Wed Apr  9 19:03:01 2025.
