 Gaussian 16, Revision C.01,

 ----------------------------------------------------------------------
 #t hf aug-cc-pvdz symm=none int=(grid=ultrafine) guess=(read,tcheck) s
 table=(opt,rrhf)
 ----------------------------------------------------------------------
 -----
 title
 -----
 Symbolic Z-matrix:
 Charge =  0 Multiplicity = 1

 SCF Done:  E(RHF) =  -360.764343027     A.U. after   16 cycles
 Normal termination of Gaussian 16 at Wed Apr  9 03:58:46 2025.
 Gaussian 16:  ES64L-G16RevC.01  3-Jul-2019

 ----------------------------------------------------------------------
 #t hf aug-cc-pvdz iop(5/13=1,5/36=2,99/5=2) pseudo=read geom=check gue
 ss=(read,tcheck) scf=(maxcycle=1)
 ----------------------------------------------------------------------
 -----
 title
 -----
 Structure from the checkpoint file:  "Grambow2020_wb97xd3_008688_reverse_mol1.chk"
 Charge =  0 Multiplicity = 1

                         Standard orientation:
 ---------------------------------------------------------------------
 Center     Atomic      Atomic             Coordinates (Angstroms)
 Number     Number       Type             X           Y           Z
 ---------------------------------------------------------------------
      1          6           0        2.729610   -0.497642   -0.221065
      2          7           0        1.479467   -0.315807    0.486984
      3          6           0        0.279579   -0.368623   -0.171972
      4          6           0       -0.663629    0.866402   -0.073056
      5          8           0       -0.150454    1.961614    0.088265
      6          8           0       -1.871093    0.528275   -0.186438
      7          6           0       -2.027795   -1.563763    0.118664
      8          1           0        2.680410   -1.404464   -0.825292
      9          1           0        3.541288   -0.621817    0.495154
     10          1           0        2.964727    0.348766   -0.875465
     11          1           0        1.500489    0.387664    1.210448
     12          1           0       -0.522940   -1.128374    0.254185
     13          1           0        0.388044   -0.682626   -1.213842
     14          1           0       -2.572691   -1.456222   -0.805220
     15          1           0       -2.553471   -1.248568    1.006743
     16          1           0       -1.516339   -2.521072    0.214364
 ---------------------------------------------------------------------

 SCF Done:  E(RHF) =  -361.136365295     A.U. after    2 cycles

 The electronic state is 1-A.
 Alpha  occ. eigenvalues --  -20.50512 -20.47962 -15.51273 -11.37904 -11.33857
 Alpha  occ. eigenvalues --  -11.30521 -11.27331  -1.46456  -1.38167  -1.24604
 Alpha  occ. eigenvalues --   -1.02502  -0.99194  -0.90579  -0.77926  -0.70276
 Alpha  occ. eigenvalues --   -0.68884  -0.68223  -0.66204  -0.64016  -0.60452
 Alpha  occ. eigenvalues --   -0.59906  -0.57722  -0.55927  -0.53598  -0.42338
 Alpha  occ. eigenvalues --   -0.40837  -0.39559  -0.37241
 Alpha virt. eigenvalues --   -0.00531   0.02692   0.03744   0.04216   0.04540
 Alpha virt. eigenvalues --    0.05512   0.06165   0.06410   0.08466   0.08676
 Alpha virt. eigenvalues --    0.11039   0.11186   0.12024   0.14231   0.14677

 Mulliken charges:
               1
     1  C   -0.391332
     2  N    0.520176
     3  C   -1.388224
     4  C    1.986469
     5  O   -1.288742
     6  O   -1.224139
     7  C   -0.277238
     8  H    0.134161
     9  H    0.050277
    10  H    0.173193
    11  H    0.279432
    12  H    0.727532
    13  H    0.164790
    14  H    0.207600
    15  H    0.217117
    16  H    0.108927
 Sum of Mulliken charges =  -0.00000

 Dipole moment (field-independent basis, Debye):
    X=              0.5324    Y=             -7.2329    Z=             -0.0362  Tot=              7.2525

 Test job not archived.
 1\1\GINC-SE362\SP\RHF\Aug-CC-pVDZ\C4H9N1O2\OHZDE\09-Apr-2025\0\\#t hf
 aug-cc-pvdz iop(5/13=1,5/36=2,99/5=2) pseudo=read geom=check guess=(re
 ad,tcheck) scf=(maxcycle=1)\\title\\0,1\C,0,-2.49922857,-0.09632968,0.
 40068051\N,0,-1.24064094,-0.47020635,-0.21040517\C,0,-0.06675522,0.127
 06564,0.16642864\C,0,0.78002506,0.83309349,-0.93320676\O,0,0.18935055,
 1.29543967,-1.89560146\O,0,2.0049419,0.82280956,-0.64229689\C,0,2.3366
 0707,-0.62202333,0.87319692\H,0,-2.40267421,-0.12570015,1.48679851\H,0
 ,-3.27031544,-0.81250785,0.1183255\H,0,-2.82506474,0.90638172,0.103483

 Normal termination of Gaussian 16 at Wed Apr  9 03:58:50 2025.
