 Gaussian 16, Revision C.01,

 ----------------------------------------------------------------------
 #t hf aug-cc-pvdz symm=none int=(grid=ultrafine) guess=(read,tcheck) s
 table=(opt,rrhf)
 ----------------------------------------------------------------------
 -----
 title
 -----
 Symbolic Z-matrix:
 Charge =  0 Multiplicity = 1

 SCF Done:  E(RHF) =  -320.616608797     A.U. after   15 cycles
 Normal termination of Gaussian 16 at Wed Apr  9 16:07:42 2025.
 Gaussian 16:  ES64L-G16RevC.01  3-Jul-2019

 ----------------------------------------------------------------------
 #t hf aug-cc-pvdz iop(5/13=1,5/36=2,99/5=2) pseudo=read geom=check gue
 ss=(read,tcheck) scf=(maxcycle=1)
 ----------------------------------------------------------------------
 -----
 title
 -----
 Structure from the checkpoint file:  "Grambow2020_b97d3_007133_forward_mol1.chk"
 Charge =  0 Multiplicity = 1

                         Standard orientation:
 ---------------------------------------------------------------------
 Center     Atomic      Atomic             Coordinates (Angstroms)
 Number     Number       Type             X           Y           Z
 ---------------------------------------------------------------------
      1          8           0        2.133972   -0.197962    0.033104
      2          6           0        0.971603    0.173165    0.005371
      3          7           0       -0.060483   -1.033519    0.209914
      4          6           0       -1.283567   -0.705810   -0.251628
      5          6           0       -1.693225    0.589826    0.184335
      6          8           0        0.369610    1.265552   -0.185296
      7          1           0        0.333964   -1.931178   -0.064138
      8          1           0       -1.730030   -1.135485   -1.157146
      9          1           0       -2.329837   -0.662467    0.550099
     10          1           0       -1.410556    0.929101    1.172361
     11          1           0       -2.437684    1.150858   -0.381509
 ---------------------------------------------------------------------

 SCF Done:  E(RHF) =  -320.936948903     A.U. after    2 cycles

 The electronic state is 1-A.
 Alpha  occ. eigenvalues --  -20.50571 -20.48908 -15.53537 -11.38872 -11.38241
 Alpha  occ. eigenvalues --  -11.37580  -1.46704  -1.39267  -1.26823  -1.10376
 Alpha  occ. eigenvalues --   -0.88223  -0.79703  -0.77250  -0.71312  -0.67759
 Alpha  occ. eigenvalues --   -0.65511  -0.60777  -0.60003  -0.55438  -0.46524
 Alpha  occ. eigenvalues --   -0.43854  -0.40169  -0.39931
 Alpha virt. eigenvalues --    0.01360   0.02729   0.03217   0.04684   0.04782
 Alpha virt. eigenvalues --    0.06430   0.09525   0.10917   0.11668   0.12313
 Alpha virt. eigenvalues --    0.12433   0.12685   0.13907   0.15089   0.15601

 Mulliken charges:
               1
     1  O   -1.102962
     2  C    1.574503
     3  N    0.511023
     4  C   -0.533607
     5  C   -0.030886
     6  O   -1.017987
     7  H    0.122733
     8  H   -0.046437
     9  H    0.418459
    10  H    0.073785
    11  H    0.031375
 Sum of Mulliken charges =  -0.00000

 Dipole moment (field-independent basis, Debye):
    X=             -8.7622    Y=             -2.0582    Z=             -0.3682  Tot=              9.0082

 Test job not archived.
 1\1\GINC-SE173\SP\RHF\Aug-CC-pVDZ\C3H5N1O2\OHZDE\09-Apr-2025\0\\#t hf
 aug-cc-pvdz iop(5/13=1,5/36=2,99/5=2) pseudo=read geom=check guess=(re
 ad,tcheck) scf=(maxcycle=1)\\title\\0,1\O,0,2.78497838,-0.05719723,-0.
 08073274\C,0,1.61668314,0.26170183,-0.2323737\N,0,0.61411214,-0.684179
 05,0.582051\C,0,-0.6331253,-0.61441516,0.07620352\C,0,-1.04412037,0.73
 218922,-0.15681156\O,0,0.98940215,1.12653769,-0.90366811\H,0,1.0105900
 9,-1.60429761,0.76280245\H,0,-1.11182462,-1.4280441,-0.48305248\H,0,-1
 .64385527,-0.17772161,0.80218535\H,0,-0.72396873,1.50837243,0.52601085

 Normal termination of Gaussian 16 at Wed Apr  9 16:07:46 2025.
