 Gaussian 16, Revision C.01,

 ----------------------------------------------------------------------
 #t hf aug-cc-pvdz symm=none int=(grid=ultrafine) guess=(read,tcheck) s
 table=(opt,rrhf)
 ----------------------------------------------------------------------
 -----
 title
 -----
 Symbolic Z-matrix:
 Charge =  0 Multiplicity = 1

 SCF Done:  E(RHF) =  -360.779194855     A.U. after   15 cycles
 Normal termination of Gaussian 16 at Wed Apr  9 17:41:45 2025.
 Gaussian 16:  ES64L-G16RevC.01  3-Jul-2019

 ----------------------------------------------------------------------
 #t hf aug-cc-pvdz iop(5/13=1,5/36=2,99/5=2) pseudo=read geom=check gue
 ss=(read,tcheck) scf=(maxcycle=1)
 ----------------------------------------------------------------------
 -----
 title
 -----
 Structure from the checkpoint file:  "Grambow2020_wb97xd3_006774_forward_mol1.chk"
 Charge =  0 Multiplicity = 1

                         Standard orientation:
 ---------------------------------------------------------------------
 Center     Atomic      Atomic             Coordinates (Angstroms)
 Number     Number       Type             X           Y           Z
 ---------------------------------------------------------------------
      1          6           0       -2.174499   -1.044597    0.265584
      2          7           0       -1.914879    0.340165    0.028725
      3          6           0       -1.288614    1.279826   -0.218730
      4          8           0        0.780223    1.284283   -0.451006
      5          6           0        1.340764    0.653115    0.645902
      6          6           0        1.890727   -0.710617    0.224044
      7          8           0        0.942689   -1.358591   -0.606746
      8          1           0       -1.249679   -1.604329    0.113473
      9          1           0       -2.533042   -1.156363    1.287349
     10          1           0       -2.951674   -1.374916   -0.421008
     11          1           0       -0.579377    2.119043   -0.338650
     12          1           0        2.152236    1.245500    1.096616
     13          1           0        0.594965    0.486207    1.452501
     14          1           0        2.832342   -0.575164   -0.323059
     15          1           0        2.080529   -1.354595    1.085819
     16          1           0        0.664283   -0.638442   -1.192899
 ---------------------------------------------------------------------

 SCF Done:  E(RHF) =  -361.152050513     A.U. after    2 cycles

 The electronic state is 1-A.
 Alpha  occ. eigenvalues --  -20.51764 -20.44556 -15.59954 -11.38536 -11.32495
 Alpha  occ. eigenvalues --  -11.24895 -11.24032  -1.42566  -1.34934  -1.32318
 Alpha  occ. eigenvalues --   -1.07913  -0.95475  -0.83349  -0.78875  -0.75902
 Alpha  occ. eigenvalues --   -0.69881  -0.68913  -0.66353  -0.62055  -0.57952
 Alpha  occ. eigenvalues --   -0.57350  -0.55602  -0.52630  -0.50102  -0.46831
 Alpha  occ. eigenvalues --   -0.42119  -0.35993  -0.34153
 Alpha virt. eigenvalues --    0.02482   0.03968   0.04576   0.05346   0.06020
 Alpha virt. eigenvalues --    0.06353   0.06968   0.07305   0.08239   0.09756
 Alpha virt. eigenvalues --    0.10163   0.10959   0.12619   0.13226   0.14119

 Mulliken charges:
               1
     1  C   -0.297923
     2  N    0.792243
     3  C   -0.567408
     4  O   -1.379118
     5  C    0.368644
     6  C    0.663422
     7  O   -1.284118
     8  H    0.170158
     9  H    0.183415
    10  H    0.139342
    11  H    0.339614
    12  H    0.030269
    13  H    0.174314
    14  H    0.062295
    15  H    0.090461
    16  H    0.514390
 Sum of Mulliken charges =   0.00000

 Dipole moment (field-independent basis, Debye):
    X=             -4.7885    Y=             -0.1440    Z=              1.4087  Tot=              4.9935

 Test job not archived.
 1\1\GINC-SE103\SP\RHF\Aug-CC-pVDZ\C4H9N1O2\OHZDE\09-Apr-2025\0\\#t hf
 aug-cc-pvdz iop(5/13=1,5/36=2,99/5=2) pseudo=read geom=check guess=(re
 ad,tcheck) scf=(maxcycle=1)\\title\\0,1\C,0,1.8222101,-0.37007298,-1.6
 1252832\N,0,1.90048841,0.53964279,-0.51372886\C,0,1.57883498,1.0492235
 1,0.47281692\O,0,-0.20767951,0.65882479,1.46781024\C,0,-1.24346462,0.7
 6330815,0.55565871\C,0,-1.79725345,-0.62969983,0.250643\O,0,-0.7181402
 1,-1.52768013,0.05569911\H,0,0.95233012,-1.01433983,-1.47125677\H,0,1.
 73288755,0.20802895,-2.53060657\H,0,2.74117438,-0.95210656,-1.64802858

 Normal termination of Gaussian 16 at Wed Apr  9 17:41:51 2025.
