 Gaussian 16, Revision C.01,

 ----------------------------------------------------------------------
 #t hf aug-cc-pvdz symm=none int=(grid=ultrafine) guess=(read,tcheck) s
 table=(opt,rrhf)
 ----------------------------------------------------------------------
 -----
 title
 -----
 Symbolic Z-matrix:
 Charge =  0 Multiplicity = 1

 SCF Done:  E(RHF) =  -301.468420707     A.U. after   17 cycles
 Normal termination of Gaussian 16 at Wed Apr  9 19:10:56 2025.
 Gaussian 16:  ES64L-G16RevC.01  3-Jul-2019

 ----------------------------------------------------------------------
 #t hf aug-cc-pvdz iop(5/13=1,5/36=2,99/5=2) pseudo=read geom=check gue
 ss=(read,tcheck) scf=(maxcycle=1)
 ----------------------------------------------------------------------
 -----
 title
 -----
 Structure from the checkpoint file:  "Grambow2020_wb97xd3_008855_reverse_mol1.chk"
 Charge =  0 Multiplicity = 1

                         Standard orientation:
 ---------------------------------------------------------------------
 Center     Atomic      Atomic             Coordinates (Angstroms)
 Number     Number       Type             X           Y           Z
 ---------------------------------------------------------------------
      1          7           0       -2.333875   -0.243651   -0.150722
      2          6           0       -1.191240    0.147439   -0.114979
      3          6           0       -0.100272    1.130057   -0.154185
      4          6           0        0.795847    0.517049    0.858347
      5          6           0        0.292075   -0.916245    0.682590
      6          6           0        1.072080   -0.916287   -0.627770
      7          7           0        1.208238    0.572995   -0.556265
      8          1           0       -0.266380    2.175741   -0.376544
      9          1           0        1.292633    1.037031    1.665900
     10          1           0        0.374151   -1.711047    1.420340
     11          1           0       -1.401882   -0.956314    0.465197
     12          1           0        2.080497   -1.326309   -0.556608
     13          1           0        0.589502   -1.296592   -1.533396
 ---------------------------------------------------------------------

 SCF Done:  E(RHF) =  -301.783469230     A.U. after    2 cycles

 The electronic state is 1-A.
 Alpha  occ. eigenvalues --  -15.52979 -15.52439 -11.36004 -11.30580 -11.29455
 Alpha  occ. eigenvalues --  -11.27772 -11.24620  -1.35070  -1.28107  -1.03174
 Alpha  occ. eigenvalues --   -0.98692  -0.90788  -0.78832  -0.75021  -0.70931
 Alpha  occ. eigenvalues --   -0.68540  -0.63282  -0.62613  -0.60941  -0.55814
 Alpha  occ. eigenvalues --   -0.52336  -0.48609  -0.48230  -0.44021  -0.32887
 Alpha virt. eigenvalues --    0.03120   0.03845   0.04173   0.04483   0.05336
 Alpha virt. eigenvalues --    0.07181   0.08412   0.09091   0.09874   0.11354
 Alpha virt. eigenvalues --    0.12428   0.12773   0.13710   0.13862   0.14279

 Mulliken charges:
               1
     1  N    0.950202
     2  C   -1.912741
     3  C    0.366116
     4  C    0.345547
     5  C   -0.221452
     6  C    0.100996
     7  N    0.393866
     8  H   -0.130240
     9  H   -0.256428
    10  H   -0.218264
    11  H    0.615275
    12  H   -0.019742
    13  H   -0.013135
 Sum of Mulliken charges =   0.00000

 Dipole moment (field-independent basis, Debye):
    X=              2.2075    Y=             -0.3515    Z=              1.8011  Tot=              2.8707

 Test job not archived.
 1\1\GINC-SE114\SP\RHF\Aug-CC-pVDZ\C5H6N2\OHZDE\09-Apr-2025\0\\#t hf au
 g-cc-pvdz iop(5/13=1,5/36=2,99/5=2) pseudo=read geom=check guess=(read
 ,tcheck) scf=(maxcycle=1)\\title\\0,1\N,0,1.84842433,-0.72698184,1.575
 92385\C,0,1.24519166,-0.26241694,0.63776985\C,0,1.07586262,0.37474365,
 -0.67472447\C,0,-0.1416832,-0.3465275,-1.12347749\C,0,-0.67072045,-0.6
 6897411,0.2747909\C,0,-1.05647012,0.80433381,0.3523219\N,0,-0.20141503
 ,1.09943947,-0.84074464\H,0,1.91208061,0.7342541,-1.25951711\H,0,-0.29
 502392,-0.790665,-2.09741141\H,0,-1.35836359,-1.47466395,0.52123244\H,

 Normal termination of Gaussian 16 at Wed Apr  9 19:11:00 2025.
