 Gaussian 16, Revision C.01,

 ----------------------------------------------------------------------
 #t hf aug-cc-pvdz symm=none int=(grid=ultrafine) guess=(read,tcheck) s
 table=(opt,rrhf)
 ----------------------------------------------------------------------
 -----
 title
 -----
 Symbolic Z-matrix:
 Charge =  0 Multiplicity = 1

 SCF Done:  E(RHF) =  -283.612906651     A.U. after   16 cycles
 Normal termination of Gaussian 16 at Wed Apr  9 15:44:40 2025.
 Gaussian 16:  ES64L-G16RevC.01  3-Jul-2019

 ----------------------------------------------------------------------
 #t hf aug-cc-pvdz iop(5/13=1,5/36=2,99/5=2) pseudo=read geom=check gue
 ss=(read,tcheck) scf=(maxcycle=1)
 ----------------------------------------------------------------------
 -----
 title
 -----
 Structure from the checkpoint file:  "Grambow2020_b97d3_006730_reverse_mol2.chk"
 Charge =  0 Multiplicity = 1

                         Standard orientation:
 ---------------------------------------------------------------------
 Center     Atomic      Atomic             Coordinates (Angstroms)
 Number     Number       Type             X           Y           Z
 ---------------------------------------------------------------------
      1          6           0        0.626141    0.863077    0.477959
      2          6           0        1.576922   -0.015394   -0.339361
      3          8           0        2.126557   -1.013058    0.083660
      4          6           0       -2.326562   -0.990554   -0.055124
      5          7           0       -1.593143   -0.005013   -0.065298
      6          6           0       -0.723246    0.938571   -0.197533
      7          1           0        0.554021    0.451376    1.492588
      8          1           0        1.048451    1.878692    0.534357
      9          1           0        1.703870    0.322928   -1.397216
     10          1           0       -3.115360   -1.048766    0.709939
     11          1           0       -0.970963    1.761128   -0.867504
 ---------------------------------------------------------------------

 SCF Done:  E(RHF) =  -283.893396125     A.U. after    2 cycles

 The electronic state is 1-A.
 Alpha  occ. eigenvalues --  -20.55854 -15.59724 -11.35718 -11.31377 -11.28880
 Alpha  occ. eigenvalues --  -11.27759  -1.47953  -1.30701  -1.10010  -1.00669
 Alpha  occ. eigenvalues --   -0.82637  -0.76986  -0.71053  -0.68650  -0.66231
 Alpha  occ. eigenvalues --   -0.64711  -0.58118  -0.57863  -0.52774  -0.49902
 Alpha  occ. eigenvalues --   -0.43066  -0.32921
 Alpha virt. eigenvalues --    0.02725   0.04027   0.04216   0.04855   0.05789
 Alpha virt. eigenvalues --    0.07158   0.08086   0.09386   0.10023   0.11058
 Alpha virt. eigenvalues --    0.12236   0.13104   0.13683   0.14411   0.15028

 Mulliken charges:
               1
     1  C   -0.611580
     2  C    1.110368
     3  O   -1.085516
     4  C   -0.283665
     5  N    0.972589
     6  C   -0.747789
     7  H    0.118126
     8  H    0.285184
     9  H    0.174614
    10  H    0.110176
    11  H   -0.042506
 Sum of Mulliken charges =   0.00000

 Dipole moment (field-independent basis, Debye):
    X=             -1.0818    Y=              4.0529    Z=              0.3746  Tot=              4.2115

 Test job not archived.
 1\1\GINC-SE026\SP\RHF\Aug-CC-pVDZ\C4H5N1O1\OHZDE\09-Apr-2025\0\\#t hf
 aug-cc-pvdz iop(5/13=1,5/36=2,99/5=2) pseudo=read geom=check guess=(re
 ad,tcheck) scf=(maxcycle=1)\\title\\0,1\C,0,-0.97276311,0.25969328,-0.
 20827327\C,0,-0.72584777,-0.56343436,-1.47523908\O,0,-0.377273,-0.0969
 7774,-2.54167875\C,0,2.35931878,0.39563317,0.93947642\N,0,1.15579674,0
 .15388609,0.9883744\C,0,-0.07594692,-0.22157056,0.90839174\H,0,-0.8053
 2333,1.31900035,-0.44065623\H,0,-2.02145024,0.12351473,0.09948091\H,0,
 -0.86235746,-1.66343122,-1.3303013\H,0,2.74186088,1.26588442,1.4937652

 Normal termination of Gaussian 16 at Wed Apr  9 15:44:44 2025.
