 Gaussian 16, Revision C.01,

 ----------------------------------------------------------------------
 #t hf aug-cc-pvdz symm=none int=(grid=ultrafine) guess=(read,tcheck) s
 table=(opt,rrhf)
 ----------------------------------------------------------------------
 -----
 title
 -----
 Symbolic Z-matrix:
 Charge =  0 Multiplicity = 1

 SCF Done:  E(RHF) =  -306.895803240     A.U. after   16 cycles

 1\1\GINC-SE042\Stability\RHF\Aug-CC-pVDZ\C4H10O2\OHZDE\09-Apr-2025\0\\
 #t hf aug-cc-pvdz symm=none int=(grid=ultrafine) guess=(read,tcheck) s
 table=(opt,rrhf)\\title\\0,1\C,0,2.38640378,-1.02970238,-0.37898467\O,
 0,1.85224667,0.05406201,0.3758582\C,0,-0.01294935,0.78188904,-0.590033
 29\C,0,-1.05123506,0.60276925,0.44443059\C,0,-2.46852871,0.36227458,-0
 .0857014\O,0,-0.45199238,-0.56185937,0.94133213\H,0,1.59381207,-1.7103
 9754,-0.7309639\H,0,2.93132146,-0.62664192,-1.24381234\H,0,3.09574288,
 -1.6052535,0.23894173\H,0,-0.0152772,0.07467962,-1.41774873\H,0,0.6408

 Normal termination of Gaussian 16 at Wed Apr  9 03:08:01 2025.
 Gaussian 16:  ES64L-G16RevC.01  3-Jul-2019

 ----------------------------------------------------------------------
 #t hf aug-cc-pvdz iop(5/13=1,5/36=2,99/5=2) pseudo=read geom=check gue
 ss=(read,tcheck) scf=(maxcycle=1)
 ----------------------------------------------------------------------
 -----
 title
 -----
 Structure from the checkpoint file:  "Grambow2020_b97d3_006571_reverse_mol1.chk"
 Charge =  0 Multiplicity = 1

                         Standard orientation:
 ---------------------------------------------------------------------
 Center     Atomic      Atomic             Coordinates (Angstroms)
 Number     Number       Type             X           Y           Z
 ---------------------------------------------------------------------
      1          6           0       -2.510252   -0.058863    0.539118
      2          8           0       -1.684809    0.057723   -0.616178
      3          6           0        0.244468    1.009283   -0.055766
      4          6           0        1.263647    0.003777   -0.416968
      5          6           0        2.546386    0.042321    0.420107
      6          8           0        0.425917   -1.066784   -0.078631
      7          1           0       -1.930073   -0.366479    1.424670
      8          1           0       -2.987443    0.911316    0.734976
      9          1           0       -3.303152   -0.804527    0.361497
     10          1           0        0.026525    1.130871    1.003942
     11          1           0       -0.180651    1.736835   -0.742026
     12          1           0        1.521162    0.051668   -1.494589
     13          1           0        3.120983   -0.872047    0.215201
     14          1           0        2.297371    0.057362    1.490058
     15          1           0        3.170469    0.915682    0.179421
     16          1           0       -0.929549   -0.667299   -0.533616
 ---------------------------------------------------------------------

 SCF Done:  E(RHF) =  -307.219011136     A.U. after    2 cycles

 The electronic state is 1-A.
 Alpha  occ. eigenvalues --  -20.53217 -20.47238 -11.38083 -11.29497 -11.27766
 Alpha  occ. eigenvalues --  -11.23680  -1.42828  -1.35509  -1.04714  -0.96347
 Alpha  occ. eigenvalues --   -0.91404  -0.81090  -0.70787  -0.68955  -0.63377
 Alpha  occ. eigenvalues --   -0.61084  -0.59349  -0.58378  -0.56466  -0.53263
 Alpha  occ. eigenvalues --   -0.51639  -0.48070  -0.43796  -0.38107  -0.36341
 Alpha virt. eigenvalues --    0.01667   0.03569   0.04010   0.04697   0.05479
 Alpha virt. eigenvalues --    0.05973   0.06376   0.06547   0.07840   0.08322
 Alpha virt. eigenvalues --    0.10372   0.12720   0.13074   0.13557   0.14767

 Mulliken charges:
               1
     1  C    0.300647
     2  O   -1.309632
     3  C    0.124827
     4  C    0.861645
     5  C   -0.393815
     6  O   -1.532782
     7  H    0.095203
     8  H    0.095803
     9  H    0.046503
    10  H    0.075777
    11  H    0.018612
    12  H    0.092744
    13  H    0.194810
    14  H    0.199605
    15  H    0.203397
    16  H    0.926659
 Sum of Mulliken charges =  -0.00000

 Dipole moment (field-independent basis, Debye):
    X=              0.7587    Y=              4.0563    Z=              1.0710  Tot=              4.2633

 Test job not archived.
 1\1\GINC-SE042\SP\RHF\Aug-CC-pVDZ\C4H10O2\OHZDE\09-Apr-2025\0\\#t hf a
 ug-cc-pvdz iop(5/13=1,5/36=2,99/5=2) pseudo=read geom=check guess=(rea
 d,tcheck) scf=(maxcycle=1)\\title\\0,1\C,0,2.38640378,-1.02970238,-0.3
 7898467\O,0,1.85224667,0.05406201,0.3758582\C,0,-0.01294935,0.78188904
 ,-0.59003329\C,0,-1.05123506,0.60276925,0.44443059\C,0,-2.46852871,0.3
 6227458,-0.0857014\O,0,-0.45199238,-0.56185937,0.94133213\H,0,1.593812
 07,-1.71039754,-0.7309639\H,0,2.93132146,-0.62664192,-1.24381234\H,0,3
 .09574288,-1.6052535,0.23894173\H,0,-0.0152772,0.07467962,-1.41774873\

 Normal termination of Gaussian 16 at Wed Apr  9 03:08:06 2025.
