 Gaussian 16, Revision C.01,

 ----------------------------------------------------------------------
 #t hf aug-cc-pvdz symm=none int=(grid=ultrafine) guess=(read,tcheck) s
 table=(opt,rrhf)
 ----------------------------------------------------------------------
 -----
 title
 -----
 Symbolic Z-matrix:
 Charge =  0 Multiplicity = 1

 SCF Done:  E(RHF) =  -317.579796339     A.U. after   16 cycles
 Normal termination of Gaussian 16 at Wed Apr  9 19:14:45 2025.
 Gaussian 16:  ES64L-G16RevC.01  3-Jul-2019

 ----------------------------------------------------------------------
 #t hf aug-cc-pvdz iop(5/13=1,5/36=2,99/5=2) pseudo=read geom=check gue
 ss=(read,tcheck) scf=(maxcycle=1)
 ----------------------------------------------------------------------
 -----
 title
 -----
 Structure from the checkpoint file:  "Grambow2020_wb97xd3_008980_reverse_mol2.chk"
 Charge =  0 Multiplicity = 1

                         Standard orientation:
 ---------------------------------------------------------------------
 Center     Atomic      Atomic             Coordinates (Angstroms)
 Number     Number       Type             X           Y           Z
 ---------------------------------------------------------------------
      1          7           0        1.199945    1.496399    0.072320
      2          6           0        1.709121    0.337480    0.326753
      3          6           0       -2.033763    1.031760   -0.340544
      4          7           0       -1.529974    0.009750    0.146941
      5          6           0       -0.793194   -0.925884    0.560727
      6          7           0        0.194517   -1.493635   -0.261983
      7          6           0        1.270595   -0.819261   -0.424205
      8          1           0        1.472482    2.290389    0.632794
      9          1           0        0.439065    1.676095   -0.582356
     10          1           0       -2.931901    0.811498   -0.936159
     11          1           0       -0.975344   -1.365629    1.535356
     12          1           0        2.027725   -1.244535   -1.086967
 ---------------------------------------------------------------------

 SCF Done:  E(RHF) =  -317.893996306     A.U. after    2 cycles

 The electronic state is 1-A.
 Alpha  occ. eigenvalues --  -15.57530 -15.56696 -15.51359 -11.33251 -11.31460
 Alpha  occ. eigenvalues --  -11.28498 -11.27469  -1.32047  -1.28048  -1.23474
 Alpha  occ. eigenvalues --   -1.05607  -0.96352  -0.86875  -0.79684  -0.76843
 Alpha  occ. eigenvalues --   -0.72210  -0.69751  -0.67602  -0.59311  -0.55026
 Alpha  occ. eigenvalues --   -0.53615  -0.51080  -0.47803  -0.37025  -0.32960
 Alpha virt. eigenvalues --    0.02961   0.04267   0.04821   0.05188   0.05833
 Alpha virt. eigenvalues --    0.07157   0.08116   0.08658   0.08784   0.10334
 Alpha virt. eigenvalues --    0.10829   0.12473   0.12836   0.13405   0.13605

 Mulliken charges:
               1
     1  N    0.783453
     2  C   -0.929068
     3  C   -0.488068
     4  N    0.836798
     5  C   -0.858447
     6  N    0.882440
     7  C   -0.522923
     8  H    0.156990
     9  H    0.056310
    10  H    0.102310
    11  H   -0.033372
    12  H    0.013578
 Sum of Mulliken charges =  -0.00000

 Dipole moment (field-independent basis, Debye):
    X=              0.5363    Y=              1.3189    Z=             -0.5140  Tot=              1.5137

 Test job not archived.
 1\1\GINC-SE036\SP\RHF\Aug-CC-pVDZ\C4H5N3\OHZDE\09-Apr-2025\0\\#t hf au
 g-cc-pvdz iop(5/13=1,5/36=2,99/5=2) pseudo=read geom=check guess=(read
 ,tcheck) scf=(maxcycle=1)\\title\\0,1\N,0,-1.75876344,-0.13524336,-0.3
 5490798\C,0,-1.07834947,-1.16847068,-0.72445987\C,0,0.41450385,2.06665
 347,0.77282127\N,0,1.01668069,1.16121671,0.17824891\C,0,1.40624495,0.1
 0888158,-0.39647218\N,0,1.19691552,-1.15584366,0.17921566\C,0,0.014385
 95,-1.63981448,0.09898249\H,0,-2.48681468,0.21911632,-0.95756697\H,0,-
 1.55254046,0.44848058,0.45538131\H,0,1.03087,2.53534064,1.55407034\H,0

 Normal termination of Gaussian 16 at Wed Apr  9 19:14:49 2025.
