 Gaussian 16, Revision C.01,

 ----------------------------------------------------------------------
 #t hf aug-cc-pvdz symm=none int=(grid=ultrafine) guess=(read,tcheck) s
 table=(opt,rrhf)
 ----------------------------------------------------------------------
 -----
 title
 -----
 Symbolic Z-matrix:
 Charge =  0 Multiplicity = 1

 SCF Done:  E(RHF) =  -283.640916696     A.U. after   15 cycles
 Normal termination of Gaussian 16 at Wed Apr  9 16:13:40 2025.
 Gaussian 16:  ES64L-G16RevC.01  3-Jul-2019

 ----------------------------------------------------------------------
 #t hf aug-cc-pvdz iop(5/13=1,5/36=2,99/5=2) pseudo=read geom=check gue
 ss=(read,tcheck) scf=(maxcycle=1)
 ----------------------------------------------------------------------
 -----
 title
 -----
 Structure from the checkpoint file:  "Grambow2020_b97d3_007170_reverse_mol2.chk"
 Charge =  0 Multiplicity = 1

                         Standard orientation:
 ---------------------------------------------------------------------
 Center     Atomic      Atomic             Coordinates (Angstroms)
 Number     Number       Type             X           Y           Z
 ---------------------------------------------------------------------
      1          6           0        2.634372    0.703146    0.038373
      2          7           0        1.823551   -0.515092   -0.086368
      3          6           0        0.501534   -0.479921   -0.015941
      4          8           0       -2.808735    0.742524   -0.029308
      5          6           0       -0.727222   -0.375075    0.003225
      6          6           0       -2.151041   -0.295860    0.038721
      7          1           0        3.633486    0.505017   -0.368328
      8          1           0        2.724525    1.034442    1.084401
      9          1           0        2.162373    1.498202   -0.548383
     10          1           0        2.281765   -1.392427    0.146668
     11          1           0       -2.642992   -1.293513    0.138414
 ---------------------------------------------------------------------

 SCF Done:  E(RHF) =  -283.928025161     A.U. after    2 cycles

 The electronic state is 1-A.
 Alpha  occ. eigenvalues --  -20.53444 -15.56456 -11.35764 -11.31236 -11.29918
 Alpha  occ. eigenvalues --  -11.24733  -1.45063  -1.27644  -1.05253  -0.98007
 Alpha  occ. eigenvalues --   -0.90196  -0.81334  -0.71171  -0.69587  -0.65664
 Alpha  occ. eigenvalues --   -0.63552  -0.58829  -0.54813  -0.51192  -0.42697
 Alpha  occ. eigenvalues --   -0.41778  -0.36460
 Alpha virt. eigenvalues --    0.02195   0.03961   0.04621   0.04812   0.05883
 Alpha virt. eigenvalues --    0.08517   0.09202   0.09817   0.10818   0.11628
 Alpha virt. eigenvalues --    0.12594   0.13477   0.14275   0.15080   0.15553

 Mulliken charges:
               1
     1  C   -0.310334
     2  N    1.055434
     3  C   -2.231847
     4  O   -1.114809
     5  C    1.057646
     6  C    0.837281
     7  H    0.090920
     8  H    0.186256
     9  H    0.146104
    10  H    0.116857
    11  H    0.166494
 Sum of Mulliken charges =  -0.00000

 Dipole moment (field-independent basis, Debye):
    X=              5.1139    Y=             -2.2106    Z=              0.5936  Tot=              5.6028

 Test job not archived.
 1\1\GINC-SE129\SP\RHF\Aug-CC-pVDZ\C4H5N1O1\OHZDE\09-Apr-2025\0\\#t hf
 aug-cc-pvdz iop(5/13=1,5/36=2,99/5=2) pseudo=read geom=check guess=(re
 ad,tcheck) scf=(maxcycle=1)\\title\\0,1\C,0,-2.08795047,0.06738743,-0.
 41826084\N,0,-0.73344981,0.09220848,-0.98554237\C,0,0.34305173,0.08116
 58,-0.21421341\O,0,2.41764451,-0.31383149,2.61288262\C,0,1.30554269,0.
 01380235,0.55408062\C,0,2.44370763,-0.04443766,1.41197527\H,0,-2.79169
 657,-0.24539727,-1.19915555\H,0,-2.3901112,1.05084241,-0.02637394\H,0,
 -2.11187948,-0.66408759,0.39632512\H,0,-0.63771634,0.48733948,-1.91757

 Normal termination of Gaussian 16 at Wed Apr  9 16:13:44 2025.
