 Gaussian 16, Revision C.01,

 ----------------------------------------------------------------------
 #t hf aug-cc-pvdz symm=none int=(grid=ultrafine) guess=(read,tcheck) s
 table=(opt,rrhf)
 ----------------------------------------------------------------------
 -----
 title
 -----
 Symbolic Z-matrix:
 Charge =  0 Multiplicity = 1

 SCF Done:  E(RHF) =  -322.711473514     A.U. after   15 cycles
 Normal termination of Gaussian 16 at Wed Apr  9 18:09:14 2025.
 Gaussian 16:  ES64L-G16RevC.01  3-Jul-2019

 ----------------------------------------------------------------------
 #t hf aug-cc-pvdz iop(5/13=1,5/36=2,99/5=2) pseudo=read geom=check gue
 ss=(read,tcheck) scf=(maxcycle=1)
 ----------------------------------------------------------------------
 -----
 title
 -----
 Structure from the checkpoint file:  "Grambow2020_wb97xd3_007131_reverse_mol2.chk"
 Charge =  0 Multiplicity = 1

                         Standard orientation:
 ---------------------------------------------------------------------
 Center     Atomic      Atomic             Coordinates (Angstroms)
 Number     Number       Type             X           Y           Z
 ---------------------------------------------------------------------
      1          7           0        1.717589    1.640427   -0.279455
      2          6           0        1.623996    0.505224   -0.103251
      3          8           0        1.547305   -0.758969    0.096739
      4          6           0        0.225061   -1.226496    0.543773
      5          6           0       -0.806923   -1.023257   -0.508968
      6          6           0       -1.929450    1.026347    0.491254
      7          6           0       -1.718453   -0.055353   -0.515941
      8          1           0       -1.804684    1.999529    0.011789
      9          1           0       -0.004874   -0.712602    1.476152
     10          1           0        0.398782   -2.280199    0.748992
     11          1           0       -0.773107   -1.716634   -1.342510
     12          1           0       -1.235374    0.984700    1.328664
     13          1           0       -2.949171    0.986695    0.881603
     14          1           0       -2.398522   -0.031517   -1.363628
 ---------------------------------------------------------------------

 SCF Done:  E(RHF) =  -323.038928711     A.U. after    2 cycles

 The electronic state is 1-A.
 Alpha  occ. eigenvalues --  -20.63476 -15.49862 -11.33607 -11.33249 -11.27128
 Alpha  occ. eigenvalues --  -11.25364 -11.24778  -1.56496  -1.22546  -1.11610
 Alpha  occ. eigenvalues --   -1.01893  -0.94042  -0.80831  -0.76451  -0.70288
 Alpha  occ. eigenvalues --   -0.68605  -0.66685  -0.60242  -0.59754  -0.59100
 Alpha  occ. eigenvalues --   -0.57267  -0.54951  -0.51967  -0.48261  -0.45497
 Alpha  occ. eigenvalues --   -0.39322
 Alpha virt. eigenvalues --    0.02950   0.03466   0.03597   0.05384   0.05603
 Alpha virt. eigenvalues --    0.05871   0.08084   0.09129   0.10603   0.11308
 Alpha virt. eigenvalues --    0.12046   0.13179   0.13672   0.13900   0.14237

 Mulliken charges:
               1
     1  N    0.783054
     2  C   -0.490695
     3  O   -1.071857
     4  C    0.275970
     5  C    0.447361
     6  C   -0.647702
     7  C    0.212525
     8  H    0.331352
     9  H    0.149370
    10  H    0.018804
    11  H   -0.158571
    12  H    0.118260
    13  H    0.208794
    14  H   -0.176665
 Sum of Mulliken charges =  -0.00000

 Dipole moment (field-independent basis, Debye):
    X=             -3.2861    Y=             -3.7089    Z=              1.1631  Tot=              5.0899

 Test job not archived.
 1\1\GINC-SE131\SP\RHF\Aug-CC-pVDZ\C5H7N1O1\OHZDE\09-Apr-2025\0\\#t hf
 aug-cc-pvdz iop(5/13=1,5/36=2,99/5=2) pseudo=read geom=check guess=(re
 ad,tcheck) scf=(maxcycle=1)\\title\\0,1\N,0,2.644295,-1.06187886,-0.18
 016716\C,0,2.24699646,0.02008245,-0.18276884\O,0,1.83116574,1.2329853,
 -0.18612556\C,0,0.46471484,1.40768822,-0.7048189\C,0,-0.53795827,0.746
 19942,0.17361107\C,0,-0.96611858,-1.30494949,-1.26543533\C,0,-1.138107
 2,-0.41260701,-0.08087537\H,0,-0.60545827,-2.28166981,-0.93607507\H,0,
 0.45346932,1.03365139,-1.72768567\H,0,0.34819796,2.48881969,-0.7175068

 Normal termination of Gaussian 16 at Wed Apr  9 18:09:18 2025.
