 Gaussian 16, Revision C.01,

 ----------------------------------------------------------------------
 #t hf aug-cc-pvdz symm=none int=(grid=ultrafine) guess=(read,tcheck) s
 table=(opt,rrhf)
 ----------------------------------------------------------------------
 -----
 title
 -----
 Symbolic Z-matrix:
 Charge =  0 Multiplicity = 1

 SCF Done:  E(RHF) =  -344.763560220     A.U. after   14 cycles

 1\1\GINC-SE113\Stability\RHF\Aug-CC-pVDZ\C5H10O2\OHZDE\09-Apr-2025\0\\
 #t hf aug-cc-pvdz symm=none int=(grid=ultrafine) guess=(read,tcheck) s
 table=(opt,rrhf)\\title\\0,1\C,0,-1.17557248,0.54723999,-0.13147094\C,
 0,-0.69468903,-0.85229079,-0.51733172\O,0,-0.40250359,-0.94460223,-1.8
 9805252\C,0,0.50908024,-1.2277937,0.3794743\C,0,1.01705064,0.04388544,
 1.05580225\C,0,0.57750483,1.23356367,0.23589798\O,0,0.45326847,2.43137
 279,0.78494719\H,0,-1.78825971,0.50411696,0.77651876\H,0,-0.61303778,1
 .70827244,0.35697425\H,0,-1.72705166,1.01200078,-0.94907666\H,0,-1.512

 Normal termination of Gaussian 16 at Wed Apr  9 18:05:59 2025.
 Gaussian 16:  ES64L-G16RevC.01  3-Jul-2019

 ----------------------------------------------------------------------
 #t hf aug-cc-pvdz iop(5/13=1,5/36=2,99/5=2) pseudo=read geom=check gue
 ss=(read,tcheck) scf=(maxcycle=1)
 ----------------------------------------------------------------------
 -----
 title
 -----
 Structure from the checkpoint file:  "Grambow2020_wb97xd3_007095_forward_mol1.chk"
 Charge =  0 Multiplicity = 1

                         Standard orientation:
 ---------------------------------------------------------------------
 Center     Atomic      Atomic             Coordinates (Angstroms)
 Number     Number       Type             X           Y           Z
 ---------------------------------------------------------------------
      1          6           0        0.064187   -1.018076    0.753398
      2          6           0        1.271065   -0.145211    0.406446
      3          8           0        1.997036   -0.665521   -0.690152
      4          6           0        0.783624    1.304638    0.172644
      5          6           0       -0.734076    1.277904    0.003842
      6          6           0       -1.146218   -0.110110   -0.425500
      7          8           0       -2.370371   -0.558718   -0.197823
      8          1           0       -0.218469   -0.879662    1.803463
      9          1           0       -1.279427   -1.051439    0.442576
     10          1           0        0.265725   -2.068420    0.541804
     11          1           0        1.982990   -0.180110    1.231645
     12          1           0        1.472961   -0.582502   -1.489723
     13          1           0        1.069248    1.947323    1.005534
     14          1           0        1.293869    1.698614   -0.707779
     15          1           0       -1.099027    1.981211   -0.748079
     16          1           0       -1.258645    1.500106    0.934784
     17          1           0       -0.674030   -0.426071   -1.375399
 ---------------------------------------------------------------------

 SCF Done:  E(RHF) =  -345.125227233     A.U. after    2 cycles

 The electronic state is 1-A.
 Alpha  occ. eigenvalues --  -20.56554 -20.48616 -11.36019 -11.31686 -11.26504
 Alpha  occ. eigenvalues --  -11.25185 -11.25071  -1.47268  -1.42298  -1.12624
 Alpha  occ. eigenvalues --   -1.00943  -0.96215  -0.83563  -0.81677  -0.71600
 Alpha  occ. eigenvalues --   -0.70381  -0.66815  -0.63953  -0.61144  -0.60255
 Alpha  occ. eigenvalues --   -0.57524  -0.56091  -0.53378  -0.51092  -0.50357
 Alpha  occ. eigenvalues --   -0.45913  -0.39428  -0.36229
 Alpha virt. eigenvalues --    0.02844   0.03242   0.03858   0.04632   0.05862
 Alpha virt. eigenvalues --    0.06032   0.06282   0.06819   0.07988   0.09659
 Alpha virt. eigenvalues --    0.12447   0.12843   0.13388   0.13771   0.13909

 Mulliken charges:
               1
     1  C   -0.468378
     2  C    1.118029
     3  O   -1.416185
     4  C   -0.257145
     5  C   -0.362405
     6  C    1.373363
     7  O   -1.596575
     8  H    0.130958
     9  H    0.275446
    10  H    0.061024
    11  H    0.086462
    12  H    0.309861
    13  H    0.176526
    14  H    0.116846
    15  H    0.171120
    16  H    0.149885
    17  H    0.131169
 Sum of Mulliken charges =   0.00000

 Dipole moment (field-independent basis, Debye):
    X=              2.6109    Y=              1.4898    Z=              0.5659  Tot=              3.0589

 Test job not archived.
 1\1\GINC-SE113\SP\RHF\Aug-CC-pVDZ\C5H10O2\OHZDE\09-Apr-2025\0\\#t hf a
 ug-cc-pvdz iop(5/13=1,5/36=2,99/5=2) pseudo=read geom=check guess=(rea
 d,tcheck) scf=(maxcycle=1)\\title\\0,1\C,0,-1.17557248,0.54723999,-0.1
 3147094\C,0,-0.69468903,-0.85229079,-0.51733172\O,0,-0.40250359,-0.944
 60223,-1.89805252\C,0,0.50908024,-1.2277937,0.3794743\C,0,1.01705064,0
 .04388544,1.05580225\C,0,0.57750483,1.23356367,0.23589798\O,0,0.453268
 47,2.43137279,0.78494719\H,0,-1.78825971,0.50411696,0.77651876\H,0,-0.
 61303778,1.70827244,0.35697425\H,0,-1.72705166,1.01200078,-0.94907666\

 Normal termination of Gaussian 16 at Wed Apr  9 18:06:06 2025.
