 Gaussian 16, Revision C.01,

 ----------------------------------------------------------------------
 #t hf aug-cc-pvdz symm=none int=(grid=ultrafine) guess=(read,tcheck) s
 table=(opt,rrhf)
 ----------------------------------------------------------------------
 -----
 title
 -----
 Symbolic Z-matrix:
 Charge =  0 Multiplicity = 1

 SCF Done:  E(RHF) =  -325.008389595     A.U. after   14 cycles
 Normal termination of Gaussian 16 at Wed Apr  9 18:49:59 2025.
 Gaussian 16:  ES64L-G16RevC.01  3-Jul-2019

 ----------------------------------------------------------------------
 #t hf aug-cc-pvdz iop(5/13=1,5/36=2,99/5=2) pseudo=read geom=check gue
 ss=(read,tcheck) scf=(maxcycle=1)
 ----------------------------------------------------------------------
 -----
 title
 -----
 Structure from the checkpoint file:  "Grambow2020_wb97xd3_008098_reverse_mol2.chk"
 Charge =  0 Multiplicity = 1

                         Standard orientation:
 ---------------------------------------------------------------------
 Center     Atomic      Atomic             Coordinates (Angstroms)
 Number     Number       Type             X           Y           Z
 ---------------------------------------------------------------------
      1          6           0        2.740244   -0.217621   -0.034073
      2          6           0        1.432712    0.470806   -0.378748
      3          7           0        0.335844   -0.481819   -0.282654
      4          6           0       -1.332259    1.447091    0.091750
      5          6           0       -0.972873   -0.016160    0.032460
      6          8           0       -0.198791   -0.527648    1.085295
      7          6           0       -2.082247   -0.918574   -0.438964
      8          1           0        3.579452    0.468789   -0.158760
      9          1           0        2.897985   -1.084889   -0.675982
     10          1           0        2.727230   -0.557884    1.002374
     11          1           0        1.438884    0.807957   -1.420317
     12          1           0        1.288674    1.344120    0.261995
     13          1           0       -1.482417    1.840670   -0.916101
     14          1           0       -2.270329    1.562952    0.636879
     15          1           0       -0.576076    2.040594    0.597852
     16          1           0       -1.722148   -1.944246   -0.485221
     17          1           0       -2.426811   -0.614297   -1.429645
     18          1           0       -2.928488   -0.863107    0.248598
 ---------------------------------------------------------------------

 SCF Done:  E(RHF) =  -325.354646679     A.U. after    2 cycles

 The electronic state is 1-A.
 Alpha  occ. eigenvalues --  -20.57060 -15.55282 -11.32535 -11.26224 -11.24070
 Alpha  occ. eigenvalues --  -11.22980 -11.22200  -1.52680  -1.13505  -1.05980
 Alpha  occ. eigenvalues --   -0.98818  -0.96368  -0.85073  -0.78136  -0.68689
 Alpha  occ. eigenvalues --   -0.68428  -0.63066  -0.62573  -0.58522  -0.56248
 Alpha  occ. eigenvalues --   -0.56060  -0.54578  -0.53572  -0.52244  -0.50419
 Alpha  occ. eigenvalues --   -0.47268  -0.46337  -0.42040
 Alpha virt. eigenvalues --    0.03531   0.04122   0.04194   0.04513   0.05599
 Alpha virt. eigenvalues --    0.05747   0.05950   0.07071   0.07514   0.09048
 Alpha virt. eigenvalues --    0.09970   0.11444   0.12482   0.14017   0.14604

 Mulliken charges:
               1
     1  C   -0.351574
     2  C   -0.152468
     3  N    1.142070
     4  C   -0.239577
     5  C   -0.435613
     6  O   -1.628938
     7  C   -0.231585
     8  H    0.144873
     9  H    0.186978
    10  H    0.172667
    11  H    0.015265
    12  H    0.114421
    13  H    0.270111
    14  H    0.184947
    15  H    0.159198
    16  H    0.168099
    17  H    0.249925
    18  H    0.231200
 Sum of Mulliken charges =   0.00000

 Dipole moment (field-independent basis, Debye):
    X=             -0.8732    Y=              2.1728    Z=             -1.0377  Tot=              2.5613

 Test job not archived.
 1\1\GINC-SE232\SP\RHF\Aug-CC-pVDZ\C5H11N1O1\OHZDE\09-Apr-2025\0\\#t hf
  aug-cc-pvdz iop(5/13=1,5/36=2,99/5=2) pseudo=read geom=check guess=(r
 ead,tcheck) scf=(maxcycle=1)\\title\\0,1\C,0,-2.51894302,-0.06468331,-
 1.0810684\C,0,-1.44337801,-0.24555369,-0.02616701\N,0,-0.13300329,-0.2
 7190773,-0.66025926\C,0,0.97109446,0.47427153,1.54601004\C,0,1.0099151
 7,0.16047041,0.07162874\O,0,0.41014022,1.08676165,-0.79528536\C,0,2.31
 27133,-0.41640995,-0.41543247\H,0,-3.51088123,-0.10199628,-0.62759028\
 H,0,-2.44946057,-0.84677152,-1.83776679\H,0,-2.40493682,0.90064249,-1.

 Normal termination of Gaussian 16 at Wed Apr  9 18:50:06 2025.
