 Gaussian 16, Revision C.01,

 ----------------------------------------------------------------------
 #t hf aug-cc-pvdz symm=none int=(grid=ultrafine) guess=(read,tcheck) s
 table=(opt,rrhf)
 ----------------------------------------------------------------------
 -----
 title
 -----
 Symbolic Z-matrix:
 Charge =  0 Multiplicity = 1

 SCF Done:  E(RHF) =  -338.626600466     A.U. after   16 cycles
 Normal termination of Gaussian 16 at Wed Apr  9 19:09:54 2025.
 Gaussian 16:  ES64L-G16RevC.01  3-Jul-2019

 ----------------------------------------------------------------------
 #t hf aug-cc-pvdz iop(5/13=1,5/36=2,99/5=2) pseudo=read geom=check gue
 ss=(read,tcheck) scf=(maxcycle=1)
 ----------------------------------------------------------------------
 -----
 title
 -----
 Structure from the checkpoint file:  "Grambow2020_wb97xd3_008806_forward_mol1.chk"
 Charge =  0 Multiplicity = 1

                         Standard orientation:
 ---------------------------------------------------------------------
 Center     Atomic      Atomic             Coordinates (Angstroms)
 Number     Number       Type             X           Y           Z
 ---------------------------------------------------------------------
      1          7           0       -1.903083    0.510008   -0.449560
      2          6           0       -0.621604    0.241834   -0.130356
      3          6           0        0.118354   -0.927354   -0.652920
      4          8           0       -0.457430   -1.128896    0.976679
      5          7           0        1.437217   -0.511198   -0.473254
      6          6           0        1.535664    0.716025    0.129483
      7          6           0        0.316818    1.235480    0.371129
      8          1           0       -2.406779   -0.195859   -0.957692
      9          1           0       -2.438738    1.134796    0.125555
     10          1           0       -1.139885   -1.767668    0.752801
     11          1           0        2.221855   -1.072414   -0.739879
     12          1           0        2.501085    1.156571    0.342614
     13          1           0        0.087575    2.188165    0.818846
 ---------------------------------------------------------------------

 SCF Done:  E(RHF) =  -338.971964712     A.U. after    2 cycles

 The electronic state is 1-A.
 Alpha  occ. eigenvalues --  -20.54059 -15.52762 -15.51569 -11.33586 -11.29817
 Alpha  occ. eigenvalues --  -11.25642 -11.22162  -1.41590  -1.27131  -1.23565
 Alpha  occ. eigenvalues --   -1.04693  -0.96999  -0.83616  -0.81788  -0.75966
 Alpha  occ. eigenvalues --   -0.71268  -0.68516  -0.63098  -0.61350  -0.59107
 Alpha  occ. eigenvalues --   -0.56385  -0.54663  -0.46521  -0.41559  -0.36294
 Alpha  occ. eigenvalues --   -0.33093
 Alpha virt. eigenvalues --    0.03073   0.03729   0.04440   0.05519   0.06050
 Alpha virt. eigenvalues --    0.06970   0.09628   0.10367   0.11241   0.11694
 Alpha virt. eigenvalues --    0.12173   0.12773   0.13916   0.14806   0.15243

 Mulliken charges:
               1
     1  N    0.612095
     2  C   -0.745772
     3  C   -0.575685
     4  O   -1.068478
     5  N    0.691688
     6  C   -0.450386
     7  C    1.154837
     8  H    0.164203
     9  H    0.098912
    10  H    0.438544
    11  H    0.007365
    12  H   -0.160269
    13  H   -0.167055
 Sum of Mulliken charges =  -0.00000

 Dipole moment (field-independent basis, Debye):
    X=             -0.5748    Y=              1.9667    Z=              0.5697  Tot=              2.1268

 Test job not archived.
 1\1\GINC-SE212\SP\RHF\Aug-CC-pVDZ\C4H6N2O1\OHZDE\09-Apr-2025\0\\#t hf
 aug-cc-pvdz iop(5/13=1,5/36=2,99/5=2) pseudo=read geom=check guess=(re
 ad,tcheck) scf=(maxcycle=1)\\title\\0,1\N,0,-1.72196133,0.71725263,-0.
 53488403\C,0,-0.52774408,0.21709738,-0.16113605\C,0,-0.01249947,-1.089
 14012,-0.62576214\O,0,-0.66812373,-1.1232372,0.98567586\N,0,1.3556412,
 -0.92990452,-0.40735722\C,0,1.67113044,0.27394312,0.1673405\C,0,0.5692
 0685,1.02645031,0.34984508\H,0,-2.3366124,0.10596176,-1.04349365\H,0,-
 2.1442316,1.45186205,0.00370589\H,0,-1.45408482,-1.62508044,0.75262128

 Normal termination of Gaussian 16 at Wed Apr  9 19:09:59 2025.
