 Gaussian 16, Revision C.01,

 ----------------------------------------------------------------------
 #t hf aug-cc-pvdz symm=none int=(grid=ultrafine) guess=(read,tcheck) s
 table=(opt,rrhf)
 ----------------------------------------------------------------------
 -----
 title
 -----
 Symbolic Z-matrix:
 Charge =  0 Multiplicity = 1

 SCF Done:  E(RHF) =  -283.520872911     A.U. after   17 cycles
 Normal termination of Gaussian 16 at Wed Apr  9 03:09:44 2025.
 Gaussian 16:  ES64L-G16RevC.01  3-Jul-2019

 ----------------------------------------------------------------------
 #t hf aug-cc-pvdz iop(5/13=1,5/36=2,99/5=2) pseudo=read geom=check gue
 ss=(read,tcheck) scf=(maxcycle=1)
 ----------------------------------------------------------------------
 -----
 title
 -----
 Structure from the checkpoint file:  "Grambow2020_b97d3_006671_forward_mol1.chk"
 Charge =  0 Multiplicity = 1

                         Standard orientation:
 ---------------------------------------------------------------------
 Center     Atomic      Atomic             Coordinates (Angstroms)
 Number     Number       Type             X           Y           Z
 ---------------------------------------------------------------------
      1          7           0       -2.118940   -0.412269    0.086885
      2          6           0       -0.988748   -0.011629   -0.005333
      3          6           0       -0.123508    1.292557    0.100848
      4          6           0        1.189970    0.684822   -0.208045
      5          6           0        1.331156   -0.622697    0.449234
      6          8           0        0.253981   -0.988630   -0.464476
      7          1           0       -0.195680    1.701230    1.117006
      8          1           0       -0.460177    2.038358   -0.627494
      9          1           0        1.733454    0.879502   -1.132066
     10          1           0        2.232435   -1.200130    0.226286
     11          1           0        1.037478   -0.682360    1.503654
 ---------------------------------------------------------------------

 SCF Done:  E(RHF) =  -283.803121643     A.U. after    2 cycles

 The electronic state is 1-A.
 Alpha  occ. eigenvalues --  -20.59530 -15.43400 -11.40242 -11.34787 -11.30184
 Alpha  occ. eigenvalues --  -11.29134  -1.47071  -1.15202  -1.12145  -0.99369
 Alpha  occ. eigenvalues --   -0.86867  -0.77152  -0.69310  -0.68462  -0.63462
 Alpha  occ. eigenvalues --   -0.61347  -0.59619  -0.54134  -0.52765  -0.46842
 Alpha  occ. eigenvalues --   -0.41718  -0.34918
 Alpha virt. eigenvalues --   -0.00135   0.02291   0.02897   0.03408   0.05368
 Alpha virt. eigenvalues --    0.05886   0.08432   0.09944   0.11193   0.11692
 Alpha virt. eigenvalues --    0.12291   0.13206   0.14073   0.14364   0.14988

 Mulliken charges:
               1
     1  N    0.809301
     2  C   -0.757365
     3  C   -0.660381
     4  C    0.664129
     5  C    0.451530
     6  O   -1.178317
     7  H    0.307554
     8  H    0.192922
     9  H   -0.009729
    10  H    0.047958
    11  H    0.132399
 Sum of Mulliken charges =  -0.00000

 Dipole moment (field-independent basis, Debye):
    X=              8.7661    Y=              4.0307    Z=              0.4813  Tot=              9.6604

 Test job not archived.
 1\1\GINC-SE129\SP\RHF\Aug-CC-pVDZ\C4H5N1O1\OHZDE\09-Apr-2025\0\\#t hf
 aug-cc-pvdz iop(5/13=1,5/36=2,99/5=2) pseudo=read geom=check guess=(re
 ad,tcheck) scf=(maxcycle=1)\\title\\0,1\N,0,1.73016333,0.14981228,-1.7
 9977478\C,0,0.9159382,-0.06614096,-0.94143254\C,0,0.6447734,-0.9724394
 4,0.30993005\C,0,-0.68740388,-0.43213954,0.66115563\C,0,-0.7196286,1.0
 2922302,0.50324471\O,0,-0.54413907,0.69321607,-0.90579126\H,0,1.413335
 69,-0.7887558,1.07175173\H,0,0.64412441,-2.03051692,0.02617309\H,0,-1.
 60932441,-1.00186045,0.54903855\H,0,-1.67985498,1.52833438,0.65910163\

 Normal termination of Gaussian 16 at Wed Apr  9 03:09:47 2025.
