 Gaussian 16, Revision C.01,

 ----------------------------------------------------------------------
 #t hf aug-cc-pvdz symm=none int=(grid=ultrafine) guess=(read,tcheck) s
 table=(opt,rrhf)
 ----------------------------------------------------------------------
 -----
 title
 -----
 Symbolic Z-matrix:
 Charge =  0 Multiplicity = 1

 SCF Done:  E(RHF) =  -268.787987784     A.U. after   14 cycles
 Normal termination of Gaussian 16 at Wed Apr  9 16:00:52 2025.
 Gaussian 16:  ES64L-G16RevC.01  3-Jul-2019

 ----------------------------------------------------------------------
 #t hf aug-cc-pvdz iop(5/13=1,5/36=2,99/5=2) pseudo=read geom=check gue
 ss=(read,tcheck) scf=(maxcycle=1)
 ----------------------------------------------------------------------
 -----
 title
 -----
 Structure from the checkpoint file:  "Grambow2020_b97d3_007087_reverse_mol2.chk"
 Charge =  0 Multiplicity = 1

                         Standard orientation:
 ---------------------------------------------------------------------
 Center     Atomic      Atomic             Coordinates (Angstroms)
 Number     Number       Type             X           Y           Z
 ---------------------------------------------------------------------
      1          6           0       -2.554548    0.040908   -0.087120
      2          6           0       -1.205854   -0.687425   -0.181307
      3          6           0       -0.097084    0.074662    0.541535
      4          8           0        2.385222   -0.654365   -0.066549
      5          6           0        1.292191    0.124728    0.044449
      6          6           0        0.642283    1.243624   -0.138873
      7          1           0       -2.852325    0.181640    0.962853
      8          1           0       -3.354057   -0.519952   -0.592216
      9          1           0       -2.488972    1.036100   -0.551157
     10          1           0       -0.921657   -0.816507   -1.237466
     11          1           0       -1.298426   -1.697594    0.251866
     12          1           0       -0.266834    0.139121    1.629764
     13          1           0        3.081038   -0.131618   -0.516031
     14          1           0        0.557522    2.264750   -0.487326
 ---------------------------------------------------------------------

 SCF Done:  E(RHF) =  -269.070949569     A.U. after    2 cycles

 The electronic state is 1-A.
 Alpha  occ. eigenvalues --  -20.60395 -11.31433 -11.25335 -11.23863 -11.22246
 Alpha  occ. eigenvalues --  -11.22082  -1.50556  -1.16458  -1.02132  -0.86856
 Alpha  occ. eigenvalues --   -0.80675  -0.77108  -0.71052  -0.65625  -0.62377
 Alpha  occ. eigenvalues --   -0.59267  -0.56737  -0.53801  -0.50990  -0.48703
 Alpha  occ. eigenvalues --   -0.46713  -0.42145  -0.33969
 Alpha virt. eigenvalues --    0.03022   0.03975   0.04352   0.04449   0.05903
 Alpha virt. eigenvalues --    0.06694   0.07575   0.07864   0.10948   0.11686
 Alpha virt. eigenvalues --    0.11967   0.13164   0.14111   0.15024   0.15159

 Mulliken charges:
               1
     1  C   -0.440882
     2  C   -0.715918
     3  C    0.312704
     4  O   -1.419678
     5  C    1.136375
     6  C    0.171884
     7  H    0.184295
     8  H    0.117264
     9  H    0.183892
    10  H    0.159477
    11  H    0.186712
    12  H   -0.078021
    13  H    0.409717
    14  H   -0.207821
 Sum of Mulliken charges =   0.00000

 Dipole moment (field-independent basis, Debye):
    X=              0.9152    Y=              1.0640    Z=             -0.7846  Tot=              1.6078

 Test job not archived.
 1\1\GINC-SE129\SP\RHF\Aug-CC-pVDZ\C5H8O1\OHZDE\09-Apr-2025\0\\#t hf au
 g-cc-pvdz iop(5/13=1,5/36=2,99/5=2) pseudo=read geom=check guess=(read
 ,tcheck) scf=(maxcycle=1)\\title\\0,1\C,0,-1.61207866,0.99098775,-0.90
 297366\C,0,-1.01333087,-0.20453951,-0.14763825\C,0,0.330058,0.14211714
 ,0.49093985\O,0,1.81292159,-1.92948411,1.24769441\C,0,1.44562134,-0.82
 116699,0.5763164\C,0,1.63602484,0.10383288,-0.32703136\H,0,-1.75472594
 ,1.84945183,-0.22946686\H,0,-2.5878112,0.74339464,-1.34517826\H,0,-0.9
 4052582,1.31112853,-1.71325906\H,0,-0.87403226,-1.05245515,-0.8365044\

 Normal termination of Gaussian 16 at Wed Apr  9 16:00:56 2025.
