 Gaussian 16, Revision C.01,

 ----------------------------------------------------------------------
 #t hf aug-cc-pvdz symm=none int=(grid=ultrafine) guess=(read,tcheck) s
 table=(opt,rrhf)
 ----------------------------------------------------------------------
 -----
 title
 -----
 Symbolic Z-matrix:
 Charge =  0 Multiplicity = 1

 SCF Done:  E(RHF) =  -342.572468639     A.U. after   15 cycles
 Normal termination of Gaussian 16 at Wed Apr  9 19:04:49 2025.
 Gaussian 16:  ES64L-G16RevC.01  3-Jul-2019

 ----------------------------------------------------------------------
 #t hf aug-cc-pvdz iop(5/13=1,5/36=2,99/5=2) pseudo=read geom=check gue
 ss=(read,tcheck) scf=(maxcycle=1)
 ----------------------------------------------------------------------
 -----
 title
 -----
 Structure from the checkpoint file:  "Grambow2020_wb97xd3_008530_reverse_mol2.chk"
 Charge =  0 Multiplicity = 1

                         Standard orientation:
 ---------------------------------------------------------------------
 Center     Atomic      Atomic             Coordinates (Angstroms)
 Number     Number       Type             X           Y           Z
 ---------------------------------------------------------------------
      1          8           0       -2.268603   -0.047458   -0.149318
      2          6           0       -1.076978    0.024705   -0.003592
      3          6           0       -0.256723   -1.226140    0.258484
      4          8           0        1.075143   -1.195475   -0.220169
      5          6           0        1.732000   -0.018954   -0.070535
      6          6           0       -0.333506    1.339800    0.021540
      7          6           0        1.152940    1.164282    0.078483
      8          1           0       -0.749670   -2.080906   -0.199575
      9          1           0       -0.246410   -1.369742    1.348353
     10          1           0        2.805621   -0.155057   -0.107198
     11          1           0       -0.713351    1.907903    0.877273
     12          1           0       -0.638563    1.903827   -0.864808
     13          1           0        1.783647    2.035279    0.195576
 ---------------------------------------------------------------------

 SCF Done:  E(RHF) =  -342.919041387     A.U. after    2 cycles

 The electronic state is 1-A.
 Alpha  occ. eigenvalues --  -20.58635 -20.54754 -11.35039 -11.31168 -11.31022
 Alpha  occ. eigenvalues --  -11.26085 -11.24469  -1.51799  -1.48609  -1.10151
 Alpha  occ. eigenvalues --   -1.04287  -0.94459  -0.84068  -0.74482  -0.71002
 Alpha  occ. eigenvalues --   -0.70284  -0.67314  -0.62990  -0.61360  -0.59691
 Alpha  occ. eigenvalues --   -0.57059  -0.55030  -0.52294  -0.48981  -0.41348
 Alpha  occ. eigenvalues --   -0.35754
 Alpha virt. eigenvalues --    0.03126   0.04027   0.04158   0.04769   0.05951
 Alpha virt. eigenvalues --    0.06427   0.08661   0.10613   0.11589   0.12450
 Alpha virt. eigenvalues --    0.12843   0.13300   0.13907   0.14755   0.14898

 Mulliken charges:
               1
     1  O   -1.393228
     2  C    1.024304
     3  C    0.329754
     4  O   -1.386173
     5  C    0.972301
     6  C   -0.699720
     7  C    0.524683
     8  H    0.069711
     9  H    0.264923
    10  H   -0.109325
    11  H    0.296482
    12  H    0.270731
    13  H   -0.164443
 Sum of Mulliken charges =  -0.00000

 Dipole moment (field-independent basis, Debye):
    X=              2.2247    Y=              0.8860    Z=              0.8556  Tot=              2.5429

 Test job not archived.
 1\1\GINC-SE173\SP\RHF\Aug-CC-pVDZ\C5H6O2\OHZDE\09-Apr-2025\0\\#t hf au
 g-cc-pvdz iop(5/13=1,5/36=2,99/5=2) pseudo=read geom=check guess=(read
 ,tcheck) scf=(maxcycle=1)\\title\\0,1\O,0,1.483664,-0.03282349,2.00150
 847\C,0,0.81027795,-0.00362472,1.00545979\C,0,1.42846981,-0.29749019,-
 0.35012061\O,0,0.55989077,-0.87778576,-1.30549596\C,0,-0.70555329,-0.3
 9181517,-1.32870126\C,0,-0.64382835,0.40672344,1.01213902\C,0,-1.30134
 731,0.23260265,-0.32237346\H,0,2.27147487,-0.97287924,-0.22115713\H,0,
 1.80297674,0.66111609,-0.73659367\H,0,-1.19190034,-0.59306792,-2.27500

 Normal termination of Gaussian 16 at Wed Apr  9 19:04:53 2025.
