 Gaussian 16, Revision C.01,

 ----------------------------------------------------------------------
 #t hf aug-cc-pvdz symm=none int=(grid=ultrafine) guess=(read,tcheck) s
 table=(opt,rrhf)
 ----------------------------------------------------------------------
 -----
 title
 -----
 Symbolic Z-matrix:
 Charge =  0 Multiplicity = 1

 SCF Done:  E(RHF) =  -232.925604163     A.U. after   13 cycles
 Normal termination of Gaussian 16 at Wed Apr  9 15:40:57 2025.
 Gaussian 16:  ES64L-G16RevC.01  3-Jul-2019

 ----------------------------------------------------------------------
 #t hf aug-cc-pvdz iop(5/13=1,5/36=2,99/5=2) pseudo=read geom=check gue
 ss=(read,tcheck) scf=(maxcycle=1)
 ----------------------------------------------------------------------
 -----
 title
 -----
 Structure from the checkpoint file:  "Grambow2020_b97d3_006597_reverse_mol2.chk"
 Charge =  0 Multiplicity = 1

                         Standard orientation:
 ---------------------------------------------------------------------
 Center     Atomic      Atomic             Coordinates (Angstroms)
 Number     Number       Type             X           Y           Z
 ---------------------------------------------------------------------
      1          6           0        1.689016   -0.937609   -0.701064
      2          6           0        1.787531   -0.666065    0.779254
      3          6           0        1.325966    0.317584    0.056899
      4          6           0       -1.997390   -0.626652    0.219831
      5          6           0       -3.128438    0.014414   -0.101499
      6          6           0        0.784581    1.685254   -0.103105
      7          1           0        0.892786   -1.590379   -1.088005
      8          1           0        2.599810   -0.957004   -1.316767
      9          1           0        1.380901    2.253629   -0.833533
     10          1           0        2.070999   -1.074242    1.743341
     11          1           0       -1.503677   -0.483210    1.181415
     12          1           0       -1.510902   -1.315241   -0.472166
     13          1           0       -3.614261    0.704779    0.590214
     14          1           0       -3.615256   -0.129241   -1.067616
     15          1           0        0.777427    2.231571    0.850066
     16          1           0       -0.245427    1.637787   -0.488837
 ---------------------------------------------------------------------

 SCF Done:  E(RHF) =  -233.179934106     A.U. after    2 cycles

 The electronic state is 1-A.
 Alpha  occ. eigenvalues --  -11.25382 -11.24658 -11.24336 -11.24231 -11.24204
 Alpha  occ. eigenvalues --  -11.24137  -1.15753  -1.03225  -0.98669  -0.81336
 Alpha  occ. eigenvalues --   -0.79321  -0.73029  -0.64592  -0.64277  -0.61252
 Alpha  occ. eigenvalues --   -0.59491  -0.59035  -0.56269  -0.51003  -0.47834
 Alpha  occ. eigenvalues --   -0.41690  -0.38177  -0.34823
 Alpha virt. eigenvalues --    0.03507   0.03656   0.04080   0.04254   0.05719
 Alpha virt. eigenvalues --    0.06100   0.06788   0.07305   0.08161   0.09507
 Alpha virt. eigenvalues --    0.10158   0.11098   0.12604   0.13281   0.14186

 Mulliken charges:
               1
     1  C    0.008870
     2  C    0.332285
     3  C    0.259895
     4  C    0.156962
     5  C    0.055960
     6  C   -0.928581
     7  H   -0.013722
     8  H   -0.003434
     9  H    0.207334
    10  H   -0.315180
    11  H   -0.062237
    12  H   -0.084406
    13  H   -0.046116
    14  H   -0.033713
    15  H    0.224346
    16  H    0.241739
 Sum of Mulliken charges =   0.00000

 Dipole moment (field-independent basis, Debye):
    X=             -0.2422    Y=              0.8328    Z=              0.2887  Tot=              0.9141

 Test job not archived.
 1\1\GINC-SE026\SP\RHF\Aug-CC-pVDZ\C6H10\OHZDE\09-Apr-2025\0\\#t hf aug
 -cc-pvdz iop(5/13=1,5/36=2,99/5=2) pseudo=read geom=check guess=(read,
 tcheck) scf=(maxcycle=1)\\title\\0,1\C,0,-2.03538711,0.25012558,0.7564
 0023\C,0,-2.09727296,-0.42817325,-0.58928302\C,0,-1.27769467,0.5837263
 5,-0.50710077\C,0,1.46623265,-1.24214501,0.54165099\C,0,2.76629686,-0.
 93411471,0.63351905\C,0,-0.27070532,1.50516053,-1.07820004\H,0,-1.5128
 1435,-0.23622043,1.59317958\H,0,-2.86172979,0.89817273,1.08229047\H,0,
 -0.58600193,2.55172754,-0.94606828\H,0,-2.55372666,-1.22601622,-1.1650

 Normal termination of Gaussian 16 at Wed Apr  9 15:41:02 2025.
