 Gaussian 16, Revision C.01,

 ----------------------------------------------------------------------
 #t hf aug-cc-pvdz symm=none int=(grid=ultrafine) guess=(read,tcheck) s
 table=(opt,rrhf)
 ----------------------------------------------------------------------
 -----
 title
 -----
 Symbolic Z-matrix:
 Charge =  0 Multiplicity = 1

 SCF Done:  E(RHF) =  -322.422947638     A.U. after   17 cycles
 Normal termination of Gaussian 16 at Wed Apr  9 17:17:35 2025.
 Gaussian 16:  ES64L-G16RevC.01  3-Jul-2019

 ----------------------------------------------------------------------
 #t hf aug-cc-pvdz iop(5/13=1,5/36=2,99/5=2) pseudo=read geom=check gue
 ss=(read,tcheck) scf=(maxcycle=1)
 ----------------------------------------------------------------------
 -----
 title
 -----
 Structure from the checkpoint file:  "Grambow2020_wb97xd3_006554_reverse_mol1.chk"
 Charge =  0 Multiplicity = 1

                         Standard orientation:
 ---------------------------------------------------------------------
 Center     Atomic      Atomic             Coordinates (Angstroms)
 Number     Number       Type             X           Y           Z
 ---------------------------------------------------------------------
      1          8           0        2.505478   -0.338586   -0.048790
      2          6           0        1.287808    0.273970   -0.176562
      3          6           0       -0.759778    0.541372   -0.780020
      4          6           0       -0.840712   -0.894425   -0.330290
      5          6           0       -2.089069   -0.289135    0.142009
      6          7           0       -0.609242    0.978633    0.588414
      7          6           0        0.164491   -0.289062    0.656135
      8          1           0        3.198521    0.256634   -0.339638
      9          1           0        1.306700    1.369336   -0.158954
     10          1           0       -1.190993    1.112585   -1.594945
     11          1           0       -0.739955   -1.784310   -0.941942
     12          1           0       -2.905194   -0.206235   -0.573329
     13          1           0       -2.402179   -0.220596    1.175617
     14          1           0        0.377532   -0.725475    1.636978
 ---------------------------------------------------------------------

 SCF Done:  E(RHF) =  -322.751327707     A.U. after    2 cycles

 The electronic state is 1-A.
 Alpha  occ. eigenvalues --  -20.55459 -15.52253 -11.32185 -11.31053 -11.27617
 Alpha  occ. eigenvalues --  -11.27394 -11.26593  -1.46552  -1.31737  -1.04805
 Alpha  occ. eigenvalues --   -0.96002  -0.87737  -0.85460  -0.73587  -0.71210
 Alpha  occ. eigenvalues --   -0.70386  -0.65755  -0.64715  -0.57110  -0.56050
 Alpha  occ. eigenvalues --   -0.52820  -0.49567  -0.48255  -0.47249  -0.41046
 Alpha  occ. eigenvalues --   -0.25080
 Alpha virt. eigenvalues --    0.02929   0.03999   0.04204   0.04363   0.04861
 Alpha virt. eigenvalues --    0.06191   0.06852   0.07981   0.09481   0.10614
 Alpha virt. eigenvalues --    0.11883   0.13437   0.13681   0.14409   0.14745

 Mulliken charges:
               1
     1  O   -1.331561
     2  C    1.094297
     3  C   -0.206943
     4  C    0.785322
     5  C    0.208326
     6  N    0.431004
     7  C   -0.544675
     8  H    0.323956
     9  H    0.069631
    10  H   -0.333650
    11  H   -0.159376
    12  H   -0.090662
    13  H   -0.101142
    14  H   -0.144528
 Sum of Mulliken charges =   0.00000

 Dipole moment (field-independent basis, Debye):
    X=             -1.8059    Y=             -1.4015    Z=             -1.5304  Tot=              2.7509

 Test job not archived.
 1\1\GINC-SE229\SP\RHF\Aug-CC-pVDZ\C5H7N1O1\OHZDE\09-Apr-2025\0\\#t hf
 aug-cc-pvdz iop(5/13=1,5/36=2,99/5=2) pseudo=read geom=check guess=(re
 ad,tcheck) scf=(maxcycle=1)\\title\\0,1\O,0,2.62942149,0.49531032,0.46
 85611\C,0,1.47718846,0.23567108,-0.22369283\C,0,-0.39188373,-0.7141107
 5,-0.70614458\C,0,-0.59133868,-0.56073576,0.77945728\C,0,-1.900315,-0.
 25090477,0.19771776\N,0,-0.52576779,0.71259563,-0.88795666\C,0,0.19365
 199,0.70396931,0.41306624\H,0,3.37867449,0.46606692,-0.12889464\H,0,1.
 51135737,0.45678663,-1.29627594\H,0,-0.63123082,-1.48143951,-1.4343297

 Normal termination of Gaussian 16 at Wed Apr  9 17:17:39 2025.
