 Gaussian 16, Revision C.01,

 ----------------------------------------------------------------------
 #t hf aug-cc-pvdz symm=none int=(grid=ultrafine) guess=(read,tcheck) s
 table=(opt,rrhf)
 ----------------------------------------------------------------------
 -----
 title
 -----
 Symbolic Z-matrix:
 Charge =  0 Multiplicity = 1

 SCF Done:  E(RHF) =  -322.615783809     A.U. after   15 cycles
 Normal termination of Gaussian 16 at Wed Apr  9 03:39:26 2025.
 Gaussian 16:  ES64L-G16RevC.01  3-Jul-2019

 ----------------------------------------------------------------------
 #t hf aug-cc-pvdz iop(5/13=1,5/36=2,99/5=2) pseudo=read geom=check gue
 ss=(read,tcheck) scf=(maxcycle=1)
 ----------------------------------------------------------------------
 -----
 title
 -----
 Structure from the checkpoint file:  "Grambow2020_wb97xd3_007387_reverse_mol2.chk"
 Charge =  0 Multiplicity = 1

                         Standard orientation:
 ---------------------------------------------------------------------
 Center     Atomic      Atomic             Coordinates (Angstroms)
 Number     Number       Type             X           Y           Z
 ---------------------------------------------------------------------
      1          6           0       -1.515635   -0.941503    0.898743
      2          6           0       -2.174988   -0.611183   -0.407519
      3          6           0       -0.209459    1.893098   -0.550228
      4          8           0        0.256242    1.935633    0.556318
      5          6           0        2.259734   -0.344260    0.220945
      6          7           0        2.772833   -1.239917   -0.273802
      7          6           0       -1.039268   -1.210742   -0.498287
      8          1           0       -1.052598   -0.147007    1.483248
      9          1           0       -1.896580   -1.765494    1.499136
     10          1           0       -3.047362   -0.199858   -0.884231
     11          1           0       -1.169262    2.380786   -0.791792
     12          1           0        0.299890    1.372745   -1.380880
     13          1           0        1.748784    0.501914    0.653481
     14          1           0       -0.264955   -1.661181   -1.094815
 ---------------------------------------------------------------------

 SCF Done:  E(RHF) =  -322.942413778     A.U. after    2 cycles

 The electronic state is 1-A.
 Alpha  occ. eigenvalues --  -20.58430 -15.52366 -11.37343 -11.28165 -11.26435
 Alpha  occ. eigenvalues --  -11.26204 -11.25511  -1.51566  -1.24260  -1.17889
 Alpha  occ. eigenvalues --   -0.89611  -0.83741  -0.79995  -0.78218  -0.71641
 Alpha  occ. eigenvalues --   -0.70605  -0.67775  -0.62091  -0.61467  -0.55691
 Alpha  occ. eigenvalues --   -0.52402  -0.52100  -0.51404  -0.45685  -0.44097
 Alpha  occ. eigenvalues --   -0.37948
 Alpha virt. eigenvalues --    0.02519   0.03813   0.04261   0.04470   0.06032
 Alpha virt. eigenvalues --    0.06372   0.07653   0.08903   0.09495   0.09866
 Alpha virt. eigenvalues --    0.10424   0.11903   0.12298   0.13502   0.14241

 Mulliken charges:
               1
     1  C   -0.096861
     2  C    0.251899
     3  C    0.556472
     4  O   -0.866982
     5  C   -0.836321
     6  N    0.677283
     7  C    0.430249
     8  H   -0.048564
     9  H   -0.018546
    10  H   -0.287289
    11  H    0.038974
    12  H    0.202477
    13  H    0.190721
    14  H   -0.193512
 Sum of Mulliken charges =  -0.00000

 Dipole moment (field-independent basis, Debye):
    X=             -3.3341    Y=              2.8560    Z=             -1.2896  Tot=              4.5756

 Test job not archived.
 1\1\GINC-SE094\SP\RHF\Aug-CC-pVDZ\C5H7N1O1\OHZDE\09-Apr-2025\0\\#t hf
 aug-cc-pvdz iop(5/13=1,5/36=2,99/5=2) pseudo=read geom=check guess=(re
 ad,tcheck) scf=(maxcycle=1)\\title\\0,1\C,0,-1.65967235,-0.45526777,0.
 3851248\C,0,-1.71608624,0.42363669,-0.82917505\C,0,1.04801503,1.657007
 35,0.1676383\O,0,1.14690336,1.23145743,1.28668203\C,0,2.04875763,-1.59
 112962,0.5491012\N,0,2.27139016,-2.49093736,-0.12248537\C,0,-0.9511638
 4,-0.60717122,-0.92866716\H,0,-1.10471858,-0.12473961,1.26264996\H,0,-
 2.49992772,-1.10766838,0.61511549\H,0,-2.16491825,1.29232081,-1.277969

 Normal termination of Gaussian 16 at Wed Apr  9 03:39:30 2025.
