 Gaussian 16, Revision C.01,

 ----------------------------------------------------------------------
 #t hf aug-cc-pvdz symm=none int=(grid=ultrafine) guess=(read,tcheck) s
 table=(opt,rrhf)
 ----------------------------------------------------------------------
 -----
 title
 -----
 Symbolic Z-matrix:
 Charge =  0 Multiplicity = 1

 SCF Done:  E(RHF) =  -360.771250441     A.U. after   16 cycles
 Normal termination of Gaussian 16 at Wed Apr  9 18:31:35 2025.
 Gaussian 16:  ES64L-G16RevC.01  3-Jul-2019

 ----------------------------------------------------------------------
 #t hf aug-cc-pvdz iop(5/13=1,5/36=2,99/5=2) pseudo=read geom=check gue
 ss=(read,tcheck) scf=(maxcycle=1)
 ----------------------------------------------------------------------
 -----
 title
 -----
 Structure from the checkpoint file:  "Grambow2020_wb97xd3_007670_reverse_mol2.chk"
 Charge =  0 Multiplicity = 1

                         Standard orientation:
 ---------------------------------------------------------------------
 Center     Atomic      Atomic             Coordinates (Angstroms)
 Number     Number       Type             X           Y           Z
 ---------------------------------------------------------------------
      1          6           0        2.355206   -0.339236    0.513281
      2          8           0        1.690297   -0.089279   -0.702693
      3          6           0        0.351463   -0.506318   -0.703513
      4          6           0       -0.577343    0.517916   -0.108503
      5          7           0       -1.944612    0.164690    0.148478
      6          8           0       -2.228632   -0.963199   -0.160730
      7          6           0       -0.274360    1.774179    0.195289
      8          1           0        3.379429    0.011556    0.397246
      9          1           0        1.891003    0.190779    1.353673
     10          1           0        2.367538   -1.411802    0.741228
     11          1           0        0.225813   -1.458433   -0.173894
     12          1           0        0.065798   -0.686595   -1.742772
     13          1           0       -0.742301   -1.385240    2.482096
     14          1           0        0.718335    2.171274    0.028966
     15          1           0       -0.075815   -1.259554    2.790436
     16          1           0       -1.040630    2.415766    0.611735
 ---------------------------------------------------------------------

 SCF Done:  E(RHF) =  -361.139735413     A.U. after    2 cycles

 The electronic state is 1-A.
 Alpha  occ. eigenvalues --  -20.61167 -20.55981 -15.64197 -11.30257 -11.29123
 Alpha  occ. eigenvalues --  -11.28340 -11.27332  -1.59722  -1.48260  -1.15335
 Alpha  occ. eigenvalues --   -0.99945  -0.97080  -0.91183  -0.78528  -0.73334
 Alpha  occ. eigenvalues --   -0.70936  -0.68381  -0.65647  -0.64367  -0.62807
 Alpha  occ. eigenvalues --   -0.60219  -0.59797  -0.57022  -0.55216  -0.49641
 Alpha  occ. eigenvalues --   -0.45324  -0.41166  -0.40199
 Alpha virt. eigenvalues --    0.03383   0.03557   0.04056   0.04613   0.05140
 Alpha virt. eigenvalues --    0.06163   0.06767   0.07853   0.08235   0.09913
 Alpha virt. eigenvalues --    0.10717   0.11971   0.12548   0.13847   0.14370

 Mulliken charges:
               1
     1  C    0.195783
     2  O   -1.292502
     3  C    0.581762
     4  C   -0.741647
     5  N    1.392777
     6  O   -1.133281
     7  C    0.363686
     8  H   -0.019374
     9  H    0.195820
    10  H    0.153520
    11  H    0.306376
    12  H    0.116880
    13  H    0.049565
    14  H   -0.076854
    15  H   -0.027393
    16  H   -0.065118
 Sum of Mulliken charges =  -0.00000

 Dipole moment (field-independent basis, Debye):
    X=              2.2536    Y=              0.7484    Z=              0.8162  Tot=              2.5110

 Test job not archived.
 1\1\GINC-SE029\SP\RHF\Aug-CC-pVDZ\C4H9N1O2\OHZDE\09-Apr-2025\0\\#t hf
 aug-cc-pvdz iop(5/13=1,5/36=2,99/5=2) pseudo=read geom=check guess=(re
 ad,tcheck) scf=(maxcycle=1)\\title\\0,1\C,0,1.9978497,-0.2296117,-0.03
 488509\O,0,1.25799631,-0.23844581,1.16332795\C,0,0.06979051,0.50281217
 ,1.09189447\C,0,-1.072249,-0.28360128,0.50617204\N,0,-2.29707459,0.389
 49151,0.17909317\O,0,-2.29324979,1.56733256,0.42625117\C,0,-1.09054813
 ,-1.58996616,0.27088392\H,0,2.89554991,-0.82115816,0.13762594\H,0,1.43
 742482,-0.66901368,-0.86885627\H,0,2.2888865,0.79134664,-0.3095687\H,0

 Normal termination of Gaussian 16 at Wed Apr  9 18:31:40 2025.
