 Gaussian 16, Revision C.01,

 ----------------------------------------------------------------------
 #t hf aug-cc-pvdz symm=none int=(grid=ultrafine) guess=(read,tcheck) s
 table=(opt,rrhf)
 ----------------------------------------------------------------------
 -----
 title
 -----
 Symbolic Z-matrix:
 Charge =  0 Multiplicity = 1

 SCF Done:  E(RHF) =  -343.685330059     A.U. after   15 cycles
 Normal termination of Gaussian 16 at Wed Apr  9 03:28:23 2025.
 Gaussian 16:  ES64L-G16RevC.01  3-Jul-2019

 ----------------------------------------------------------------------
 #t hf aug-cc-pvdz iop(5/13=1,5/36=2,99/5=2) pseudo=read geom=check gue
 ss=(read,tcheck) scf=(maxcycle=1)
 ----------------------------------------------------------------------
 -----
 title
 -----
 Structure from the checkpoint file:  "Grambow2020_wb97xd3_006677_reverse_mol2.chk"
 Charge =  0 Multiplicity = 1

                         Standard orientation:
 ---------------------------------------------------------------------
 Center     Atomic      Atomic             Coordinates (Angstroms)
 Number     Number       Type             X           Y           Z
 ---------------------------------------------------------------------
      1          6           0       -1.082402    1.618872   -0.778111
      2          6           0       -0.881152    0.497538    0.189216
      3          8           0       -0.087097    0.696043    1.306115
      4          6           0        2.930385   -0.090225    0.075661
      5          6           0        2.080595   -0.783996   -0.667303
      6          6           0       -1.481708   -0.667543    0.058638
      7          8           0       -2.021389   -1.690037   -0.061470
      8          1           0       -1.492121    2.492083   -0.264717
      9          1           0       -0.131635    1.910161   -1.234775
     10          1           0       -1.769675    1.335766   -1.576614
     11          1           0        0.829066    0.527025    1.047282
     12          1           0        3.307247    0.875058   -0.243543
     13          1           0        3.298121   -0.469708    1.022772
     14          1           0        1.722313   -0.412193   -1.620496
     15          1           0        1.710254   -1.754118   -0.355674
 ---------------------------------------------------------------------

 SCF Done:  E(RHF) =  -344.036224380     A.U. after    2 cycles

 The electronic state is 1-A.
 Alpha  occ. eigenvalues --  -20.60728 -20.56917 -11.37262 -11.29812 -11.26059
 Alpha  occ. eigenvalues --  -11.25735 -11.25227  -1.54577  -1.47487  -1.07158
 Alpha  occ. eigenvalues --   -1.06007  -0.94506  -0.81343  -0.75911  -0.72050
 Alpha  occ. eigenvalues --   -0.67094  -0.66682  -0.64720  -0.62088  -0.61320
 Alpha  occ. eigenvalues --   -0.58136  -0.56263  -0.55822  -0.52944  -0.48430
 Alpha  occ. eigenvalues --   -0.40871  -0.33574
 Alpha virt. eigenvalues --    0.03312   0.03787   0.04326   0.04569   0.06021
 Alpha virt. eigenvalues --    0.07030   0.07100   0.07597   0.08943   0.10706
 Alpha virt. eigenvalues --    0.11252   0.12051   0.12278   0.13257   0.13949

 Mulliken charges:
               1
     1  C   -0.444672
     2  C    1.598650
     3  O   -1.490765
     4  C    0.040442
     5  C    0.166292
     6  C    0.354853
     7  O   -0.893202
     8  H    0.184081
     9  H    0.160221
    10  H    0.145286
    11  H    0.428404
    12  H   -0.071051
    13  H   -0.063918
    14  H   -0.048113
    15  H   -0.066508
 Sum of Mulliken charges =  -0.00000

 Dipole moment (field-independent basis, Debye):
    X=              1.9432    Y=              1.2027    Z=             -1.4875  Tot=              2.7267

 Test job not archived.
 1\1\GINC-SE219\SP\RHF\Aug-CC-pVDZ\C5H8O2\OHZDE\09-Apr-2025\0\\#t hf au
 g-cc-pvdz iop(5/13=1,5/36=2,99/5=2) pseudo=read geom=check guess=(read
 ,tcheck) scf=(maxcycle=1)\\title\\0,1\C,0,-1.76134396,-0.03480544,-1.1
 9842199\C,0,-1.1121527,-0.8622548,-0.1365882\O,0,-1.10702928,-0.409025
 97,1.17182566\C,0,1.69018261,1.4383835,1.18256178\C,0,1.89913631,0.529
 57723,0.24135638\C,0,-0.59146252,-2.04731362,-0.3808201\O,0,-0.1405790
 1,-3.0950227,-0.60484081\H,0,-2.80484219,0.16087899,-0.94004612\H,0,-1
 .25232362,0.92820542,-1.30262119\H,0,-1.73541305,-0.53868223,-2.165653

 Normal termination of Gaussian 16 at Wed Apr  9 03:28:28 2025.
