 Gaussian 16, Revision C.01,

 ----------------------------------------------------------------------
 #t hf aug-cc-pvdz symm=none int=(grid=ultrafine) guess=(read,tcheck) s
 table=(opt,rrhf)
 ----------------------------------------------------------------------
 -----
 title
 -----
 Symbolic Z-matrix:
 Charge =  0 Multiplicity = 1

 SCF Done:  E(RHF) =  -279.777083907     A.U. after   15 cycles
 Normal termination of Gaussian 16 at Wed Apr  9 15:56:40 2025.
 Gaussian 16:  ES64L-G16RevC.01  3-Jul-2019

 ----------------------------------------------------------------------
 #t hf aug-cc-pvdz iop(5/13=1,5/36=2,99/5=2) pseudo=read geom=check gue
 ss=(read,tcheck) scf=(maxcycle=1)
 ----------------------------------------------------------------------
 -----
 title
 -----
 Structure from the checkpoint file:  "Grambow2020_b97d3_007048_forward_mol1.chk"
 Charge =  0 Multiplicity = 1

                         Standard orientation:
 ---------------------------------------------------------------------
 Center     Atomic      Atomic             Coordinates (Angstroms)
 Number     Number       Type             X           Y           Z
 ---------------------------------------------------------------------
      1          7           0        2.060047    0.018868    0.108216
      2          6           0        0.676440    0.041000   -0.005921
      3          6           0       -0.183189    1.155559   -0.007128
      4          6           0       -1.469708    0.620326    0.017783
      5          7           0       -1.467278   -0.731927   -0.070511
      6          7           0       -0.017666   -1.123879   -0.091499
      7          1           0        2.529599    0.832583   -0.279217
      8          1           0        2.475665   -0.848768   -0.222494
      9          1           0        0.105935    2.202426   -0.021957
     10          1           0       -2.417258    1.150158    0.072608
     11          1           0       -0.860924   -1.379140    0.799217
 ---------------------------------------------------------------------

 SCF Done:  E(RHF) =  -280.063784111     A.U. after    2 cycles

 The electronic state is 1-A.
 Alpha  occ. eigenvalues --  -15.54187 -15.53703 -15.52889 -11.32559 -11.28970
 Alpha  occ. eigenvalues --  -11.24288  -1.33864  -1.22668  -1.08527  -1.04671
 Alpha  occ. eigenvalues --   -0.84889  -0.81593  -0.75275  -0.71358  -0.66792
 Alpha  occ. eigenvalues --   -0.62772  -0.59742  -0.54304  -0.51664  -0.50912
 Alpha  occ. eigenvalues --   -0.40747  -0.36847
 Alpha virt. eigenvalues --    0.02807   0.04124   0.04455   0.06225   0.06731
 Alpha virt. eigenvalues --    0.09833   0.10884   0.11295   0.11996   0.12497
 Alpha virt. eigenvalues --    0.12957   0.13729   0.13820   0.15250   0.16038

 Mulliken charges:
               1
     1  N    0.724605
     2  C   -1.759438
     3  C    0.731297
     4  C   -0.407539
     5  N    0.064308
     6  N    0.291904
     7  H    0.178778
     8  H    0.041276
     9  H   -0.136209
    10  H   -0.110360
    11  H    0.381379
 Sum of Mulliken charges =  -0.00000

 Dipole moment (field-independent basis, Debye):
    X=              1.8429    Y=              3.0588    Z=              0.3239  Tot=              3.5857

 Test job not archived.
 1\1\GINC-SE041\SP\RHF\Aug-CC-pVDZ\C3H5N3\OHZDE\09-Apr-2025\0\\#t hf au
 g-cc-pvdz iop(5/13=1,5/36=2,99/5=2) pseudo=read geom=check guess=(read
 ,tcheck) scf=(maxcycle=1)\\title\\0,1\N,0,-1.92324784,-0.17344912,0.14
 586634\C,0,-0.5601812,0.02669932,-0.02698171\C,0,0.48724353,-0.8993385
 4,0.1359917\C,0,1.65556764,-0.15148227,0.00199095\N,0,1.40677481,1.137
 90413,-0.33263269\N,0,-0.09003141,1.25794282,-0.35720769\H,0,-2.242447
 2,-1.11529742,-0.06330022\H,0,-2.49361067,0.52934276,-0.31853533\H,0,0
 .39261087,-1.96437496,0.32700286\H,0,2.68412967,-0.4865527,0.10860845\

 Normal termination of Gaussian 16 at Wed Apr  9 15:56:44 2025.
