 Gaussian 16, Revision C.01,

 ----------------------------------------------------------------------
 #t hf aug-cc-pvdz symm=none int=(grid=ultrafine) guess=(read,tcheck) s
 table=(opt,rrhf)
 ----------------------------------------------------------------------
 -----
 title
 -----
 Symbolic Z-matrix:
 Charge =  0 Multiplicity = 1

 SCF Done:  E(RHF) =  -309.067901943     A.U. after   13 cycles

 1\1\GINC-SE162\Stability\RHF\Aug-CC-pVDZ\C6H12O1\OHZDE\09-Apr-2025\0\\
 #t hf aug-cc-pvdz symm=none int=(grid=ultrafine) guess=(read,tcheck) s
 table=(opt,rrhf)\\title\\0,1\C,0,-1.69276069,-1.0734368,-0.5679996\C,0
 ,-0.62640579,-0.04025385,-0.21405988\C,0,-1.24065218,1.08225415,0.6212
 8432\C,0,0.54074377,-0.70142958,0.52762964\O,0,0.97620042,-1.90373575,
 -0.10300361\C,0,1.75915644,0.15966759,0.75524896\C,0,2.06948167,1.2813
 8858,0.12335477\H,0,-2.52390227,-0.59893254,-1.09376769\H,0,-1.2936411
 4,-1.86785006,-1.19630511\H,0,-2.09402342,-1.53749191,0.33776433\H,0,-

 Normal termination of Gaussian 16 at Wed Apr  9 18:33:47 2025.
 Gaussian 16:  ES64L-G16RevC.01  3-Jul-2019

 ----------------------------------------------------------------------
 #t hf aug-cc-pvdz iop(5/13=1,5/36=2,99/5=2) pseudo=read geom=check gue
 ss=(read,tcheck) scf=(maxcycle=1)
 ----------------------------------------------------------------------
 -----
 title
 -----
 Structure from the checkpoint file:  "Grambow2020_wb97xd3_007708_reverse_mol2.chk"
 Charge =  0 Multiplicity = 1

                         Standard orientation:
 ---------------------------------------------------------------------
 Center     Atomic      Atomic             Coordinates (Angstroms)
 Number     Number       Type             X           Y           Z
 ---------------------------------------------------------------------
      1          6           0        2.150930    0.386976   -0.296071
      2          6           0        0.797570   -0.318760   -0.281741
      3          6           0        0.930527   -1.694654    0.369690
      4          6           0       -0.248421    0.534275    0.444709
      5          8           0       -0.224165    1.897769    0.028587
      6          6           0       -1.677260    0.056683    0.354418
      7          6           0       -2.175292   -0.800261   -0.523911
      8          1           0        2.894381   -0.224321   -0.811803
      9          1           0        2.096704    1.355999   -0.789236
     10          1           0        2.508109    0.554158    0.724341
     11          1           0        0.471738   -0.447313   -1.321842
     12          1           0        1.274074   -1.592611    1.403323
     13          1           0        1.666907   -2.301834   -0.160246
     14          1           0       -0.010889   -2.243226    0.386176
     15          1           0        0.035620    0.572839    1.502828
     16          1           0       -2.351243    0.548687    1.050787
     17          1           0       -1.556317   -1.317626   -1.248083
     18          1           0       -0.669130    1.951233   -0.820928
     19          1           0       -3.234960   -1.023695   -0.546566
 ---------------------------------------------------------------------

 SCF Done:  E(RHF) =  -309.400938203     A.U. after    2 cycles

 The electronic state is 1-A.
 Alpha  occ. eigenvalues --  -20.54486 -11.28818 -11.24405 -11.23987 -11.23355
 Alpha  occ. eigenvalues --  -11.22193 -11.21590  -1.44906  -1.09978  -1.04552
 Alpha  occ. eigenvalues --   -0.92901  -0.92320  -0.81325  -0.76334  -0.68405
 Alpha  occ. eigenvalues --   -0.65704  -0.63850  -0.61256  -0.59818  -0.55420
 Alpha  occ. eigenvalues --   -0.55220  -0.53825  -0.51088  -0.50161  -0.48059
 Alpha  occ. eigenvalues --   -0.46865  -0.43230  -0.38283
 Alpha virt. eigenvalues --    0.03342   0.03524   0.03966   0.04248   0.05822
 Alpha virt. eigenvalues --    0.05958   0.06352   0.06989   0.07246   0.08907
 Alpha virt. eigenvalues --    0.09257   0.09717   0.11305   0.13391   0.14198

 Mulliken charges:
               1
     1  C   -0.047669
     2  C   -1.514795
     3  C   -0.012753
     4  C    1.033661
     5  O   -1.362544
     6  C    0.652411
     7  C   -0.035806
     8  H    0.173108
     9  H    0.187424
    10  H    0.238748
    11  H    0.192891
    12  H    0.230184
    13  H    0.149235
    14  H    0.137642
    15  H    0.119990
    16  H   -0.182930
    17  H   -0.099774
    18  H    0.277826
    19  H   -0.136850
 Sum of Mulliken charges =  -0.00000

 Dipole moment (field-independent basis, Debye):
    X=             -0.5797    Y=             -1.2215    Z=             -0.7995  Tot=              1.5708

 Test job not archived.
 1\1\GINC-SE162\SP\RHF\Aug-CC-pVDZ\C6H12O1\OHZDE\09-Apr-2025\0\\#t hf a
 ug-cc-pvdz iop(5/13=1,5/36=2,99/5=2) pseudo=read geom=check guess=(rea
 d,tcheck) scf=(maxcycle=1)\\title\\0,1\C,0,-1.69276069,-1.0734368,-0.5
 679996\C,0,-0.62640579,-0.04025385,-0.21405988\C,0,-1.24065218,1.08225
 415,0.62128432\C,0,0.54074377,-0.70142958,0.52762964\O,0,0.97620042,-1
 .90373575,-0.10300361\C,0,1.75915644,0.15966759,0.75524896\C,0,2.06948
 167,1.28138858,0.12335477\H,0,-2.52390227,-0.59893254,-1.09376769\H,0,
 -1.29364114,-1.86785006,-1.19630511\H,0,-2.09402342,-1.53749191,0.3377

 Normal termination of Gaussian 16 at Wed Apr  9 18:33:54 2025.
