 Gaussian 16, Revision C.01,

 ----------------------------------------------------------------------
 #t hf aug-cc-pvdz symm=none int=(grid=ultrafine) guess=(read,tcheck) s
 table=(opt,rrhf)
 ----------------------------------------------------------------------
 -----
 title
 -----
 Symbolic Z-matrix:
 Charge =  0 Multiplicity = 1

 SCF Done:  E(RHF) =  -320.303772010     A.U. after   16 cycles
 Normal termination of Gaussian 16 at Wed Apr  9 19:19:45 2025.
 Gaussian 16:  ES64L-G16RevC.01  3-Jul-2019

 ----------------------------------------------------------------------
 #t hf aug-cc-pvdz iop(5/13=1,5/36=2,99/5=2) pseudo=read geom=check gue
 ss=(read,tcheck) scf=(maxcycle=1)
 ----------------------------------------------------------------------
 -----
 title
 -----
 Structure from the checkpoint file:  "Grambow2020_wb97xd3_009364_forward_mol2.chk"
 Charge =  0 Multiplicity = 1

                         Standard orientation:
 ---------------------------------------------------------------------
 Center     Atomic      Atomic             Coordinates (Angstroms)
 Number     Number       Type             X           Y           Z
 ---------------------------------------------------------------------
      1          6           0       -2.943838    0.009918    0.000592
      2          6           0       -1.746300   -0.010140   -0.000838
      3          6           0       -0.326993   -0.012944   -0.000601
      4          6           0        0.523143   -1.070197   -0.000270
      5          8           0        1.782920   -0.650645    0.000491
      6          7           0        1.805291    0.723782    0.000456
      7          6           0        0.564102    1.099765   -0.000373
      8          1           0       -4.008212    0.024876    0.002476
      9          1           0        0.364832   -2.136384   -0.000513
     10          1           0        0.322304    2.151782   -0.000147
 ---------------------------------------------------------------------

 SCF Done:  E(RHF) =  -320.622979018     A.U. after    2 cycles

 The electronic state is 1-A.
 Alpha  occ. eigenvalues --  -20.65006 -15.57718 -11.34198 -11.30081 -11.28030
 Alpha  occ. eigenvalues --  -11.26645 -11.25656  -1.60353  -1.20734  -1.12464
 Alpha  occ. eigenvalues --   -1.03942  -0.89294  -0.85082  -0.80338  -0.73674
 Alpha  occ. eigenvalues --   -0.68853  -0.68725  -0.62512  -0.59614  -0.54223
 Alpha  occ. eigenvalues --   -0.49306  -0.44953  -0.42557  -0.36556
 Alpha virt. eigenvalues --    0.03133   0.03778   0.04237   0.07299   0.08703
 Alpha virt. eigenvalues --    0.08929   0.09084   0.09543   0.10735   0.11522
 Alpha virt. eigenvalues --    0.12631   0.13724   0.14136   0.14575   0.15305

 Mulliken charges:
               1
     1  C   -0.066035
     2  C    1.101293
     3  C    0.767889
     4  C    0.784844
     5  O   -1.579694
     6  N    1.083687
     7  C   -1.064664
     8  H   -0.480590
     9  H   -0.195451
    10  H   -0.351279
 Sum of Mulliken charges =   0.00000

 Dipole moment (field-independent basis, Debye):
    X=             -2.9215    Y=             -0.9342    Z=              0.0008  Tot=              3.0672

 Test job not archived.
 1\1\GINC-SE084\SP\RHF\Aug-CC-pVDZ\C5H3N1O1\OHZDE\09-Apr-2025\0\\#t hf
 aug-cc-pvdz iop(5/13=1,5/36=2,99/5=2) pseudo=read geom=check guess=(re
 ad,tcheck) scf=(maxcycle=1)\\title\\0,1\C,0,2.55442143,0.18441826,0.29
 114117\C,0,1.36586461,0.12006153,0.15812714\C,0,-0.0411441,0.02284533,
 -0.00098463\C,0,-0.97686096,1.00237667,0.07296594\O,0,-2.18862158,0.50
 106313,-0.1353183\N,0,-2.08979257,-0.85178208,-0.35801156\C,0,-0.82641
 203,-1.13390072,-0.27930555\H,0,3.61049823,0.24433708,0.41042574\H,0,-
 0.91379035,2.06179205,0.26132118\H,0,-0.49416269,-2.15121125,-0.420361

 Normal termination of Gaussian 16 at Wed Apr  9 19:19:48 2025.
