 Gaussian 16, Revision C.01,

 ----------------------------------------------------------------------
 #t hf aug-cc-pvdz symm=none int=(grid=ultrafine) guess=(read,tcheck) s
 table=(opt,rrhf)
 ----------------------------------------------------------------------
 -----
 title
 -----
 Symbolic Z-matrix:
 Charge =  0 Multiplicity = 1

 SCF Done:  E(RHF) =  -301.546388607     A.U. after   15 cycles
 Normal termination of Gaussian 16 at Wed Apr  9 18:38:28 2025.
 Gaussian 16:  ES64L-G16RevC.01  3-Jul-2019

 ----------------------------------------------------------------------
 #t hf aug-cc-pvdz iop(5/13=1,5/36=2,99/5=2) pseudo=read geom=check gue
 ss=(read,tcheck) scf=(maxcycle=1)
 ----------------------------------------------------------------------
 -----
 title
 -----
 Structure from the checkpoint file:  "Grambow2020_wb97xd3_007930_forward_mol1.chk"
 Charge =  0 Multiplicity = 1

                         Standard orientation:
 ---------------------------------------------------------------------
 Center     Atomic      Atomic             Coordinates (Angstroms)
 Number     Number       Type             X           Y           Z
 ---------------------------------------------------------------------
      1          6           0        1.610332    0.777741    0.042385
      2          6           0        1.661254   -0.782662   -0.008366
      3          6           0        0.151516   -0.666624   -0.067011
      4          7           0       -1.064869   -1.173061    0.095840
      5          6           0       -1.973023   -0.003957    0.089278
      6          6           0       -1.159989    1.108024   -0.015828
      7          7           0        0.136867    0.652098   -0.062913
      8          1           0        2.052424    1.306361   -0.799922
      9          1           0        1.928611    1.219165    0.985022
     10          1           0        2.139991   -1.200765   -0.892168
     11          1           0        2.057231   -1.255599    0.888597
     12          1           0       -2.009253   -1.171184   -0.594033
     13          1           0       -1.413532    2.153641   -0.060732
 ---------------------------------------------------------------------

 SCF Done:  E(RHF) =  -301.860559039     A.U. after    2 cycles

 The electronic state is 1-A.
 Alpha  occ. eigenvalues --  -15.57427 -15.51734 -11.32506 -11.31991 -11.29046
 Alpha  occ. eigenvalues --  -11.25484 -11.22115  -1.38320  -1.22546  -1.10262
 Alpha  occ. eigenvalues --   -0.97350  -0.93775  -0.84742  -0.79148  -0.73275
 Alpha  occ. eigenvalues --   -0.72503  -0.63429  -0.59807  -0.58925  -0.58114
 Alpha  occ. eigenvalues --   -0.55823  -0.50117  -0.47287  -0.35697  -0.32360
 Alpha virt. eigenvalues --    0.02567   0.03550   0.03663   0.04734   0.05515
 Alpha virt. eigenvalues --    0.06066   0.07871   0.09032   0.10000   0.10946
 Alpha virt. eigenvalues --    0.12327   0.12951   0.13381   0.13771   0.14576

 Mulliken charges:
               1
     1  C    0.000648
     2  C    0.202522
     3  C   -1.376686
     4  N    0.630468
     5  C   -0.778812
     6  C    0.031913
     7  N    0.727591
     8  H   -0.034663
     9  H   -0.001792
    10  H    0.117826
    11  H    0.130237
    12  H    0.442001
    13  H   -0.091253
 Sum of Mulliken charges =  -0.00000

 Dipole moment (field-independent basis, Debye):
    X=              6.1880    Y=              1.2816    Z=             -1.0652  Tot=              6.4084

 Test job not archived.
 1\1\GINC-SE105\SP\RHF\Aug-CC-pVDZ\C5H6N2\OHZDE\09-Apr-2025\0\\#t hf au
 g-cc-pvdz iop(5/13=1,5/36=2,99/5=2) pseudo=read geom=check guess=(read
 ,tcheck) scf=(maxcycle=1)\\title\\0,1\C,0,-1.37497808,-0.53036709,-0.0
 2626636\C,0,-1.22394798,1.01762606,0.11842187\C,0,0.25938773,0.7138323
 2,0.05810294\N,0,1.52637262,1.03339911,0.29308966\C,0,2.27684854,-0.23
 435863,0.1475954\C,0,1.33062623,-1.20935505,-0.10264268\N,0,0.10455343
 ,-0.5859233,-0.10289464\H,0,-1.86056709,-0.8890559,-0.93175627\H,0,-1.
 77019623,-1.03920199,0.85100762\H,0,-1.62334251,1.60019806,-0.70994901

 Normal termination of Gaussian 16 at Wed Apr  9 18:38:33 2025.
