 Gaussian 16, Revision C.01,

 ----------------------------------------------------------------------
 #t hf aug-cc-pvdz symm=none int=(grid=ultrafine) guess=(read,tcheck) s
 table=(opt,rrhf)
 ----------------------------------------------------------------------
 -----
 title
 -----
 Symbolic Z-matrix:
 Charge =  0 Multiplicity = 1

 SCF Done:  E(RHF) =  -302.846768739     A.U. after   15 cycles
 Normal termination of Gaussian 16 at Wed Apr  9 18:03:42 2025.
 Gaussian 16:  ES64L-G16RevC.01  3-Jul-2019

 ----------------------------------------------------------------------
 #t hf aug-cc-pvdz iop(5/13=1,5/36=2,99/5=2) pseudo=read geom=check gue
 ss=(read,tcheck) scf=(maxcycle=1)
 ----------------------------------------------------------------------
 -----
 title
 -----
 Structure from the checkpoint file:  "Grambow2020_wb97xd3_006956_reverse_mol2.chk"
 Charge =  0 Multiplicity = 1

                         Standard orientation:
 ---------------------------------------------------------------------
 Center     Atomic      Atomic             Coordinates (Angstroms)
 Number     Number       Type             X           Y           Z
 ---------------------------------------------------------------------
      1          6           0        0.064559   -1.435575   -1.099872
      2          6           0        0.083279   -0.382588    0.010254
      3          6           0        0.247457   -1.025059    1.390614
      4          7           0        1.219578    0.547013   -0.235047
      5          6           0        1.335371    1.831504   -0.077380
      6          6           0       -1.177874    0.374494   -0.025921
      7          7           0       -2.189505    0.913297   -0.047577
      8          1           0       -0.756370   -2.135178   -0.947742
      9          1           0        1.000091   -1.999071   -1.084327
     10          1           0       -0.050074   -0.966093   -2.076558
     11          1           0        1.195832   -1.563874    1.427196
     12          1           0        0.249009   -0.261629    2.168066
     13          1           0       -0.562327   -1.727678    1.587622
     14          1           0        2.041863    0.040946   -0.545130
     15          1           0        0.354718    2.213752    0.263073
 ---------------------------------------------------------------------

 SCF Done:  E(RHF) =  -303.157573576     A.U. after    2 cycles

 The electronic state is 1-A.
 Alpha  occ. eigenvalues --  -15.57117 -15.52840 -11.34983 -11.29069 -11.27267
 Alpha  occ. eigenvalues --  -11.26863 -11.26126  -1.29723  -1.24873  -1.12128
 Alpha  occ. eigenvalues --   -0.99022  -0.91526  -0.90452  -0.75632  -0.68679
 Alpha  occ. eigenvalues --   -0.65742  -0.63504  -0.62110  -0.60014  -0.59429
 Alpha  occ. eigenvalues --   -0.57606  -0.55849  -0.52625  -0.51864  -0.49340
 Alpha  occ. eigenvalues --   -0.36378
 Alpha virt. eigenvalues --    0.02446   0.03589   0.03698   0.04340   0.05902
 Alpha virt. eigenvalues --    0.06315   0.06416   0.07220   0.09011   0.10291
 Alpha virt. eigenvalues --    0.11819   0.12347   0.13062   0.13611   0.13967

 Mulliken charges:
               1
     1  C    0.561452
     2  C   -2.968672
     3  C    0.505725
     4  N    1.266474
     5  C   -0.537622
     6  C   -1.732126
     7  N    1.223298
     8  H    0.231727
     9  H    0.180037
    10  H    0.229500
    11  H    0.216044
    12  H    0.194002
    13  H    0.300291
    14  H    0.195424
    15  H    0.134444
 Sum of Mulliken charges =  -0.00000

 Dipole moment (field-independent basis, Debye):
    X=              1.9465    Y=             -5.3109    Z=              0.3142  Tot=              5.6651

 Test job not archived.
 1\1\GINC-SE226\SP\RHF\Aug-CC-pVDZ\C5H8N2\OHZDE\09-Apr-2025\0\\#t hf au
 g-cc-pvdz iop(5/13=1,5/36=2,99/5=2) pseudo=read geom=check guess=(read
 ,tcheck) scf=(maxcycle=1)\\title\\0,1\C,0,-0.45446495,1.43093777,-0.45
 876487\C,0,0.06683449,0.09161784,0.06657496\C,0,-1.03002958,-0.6913532
 3,0.79387419\N,0,0.55963941,-0.71185086,-1.08541747\C,0,1.57971333,-1.
 50660684,-1.21189728\C,0,1.18122977,0.34163644,0.99426117\N,0,2.013080
 74,0.5700381,1.74926501\H,0,-0.8260814,2.04352648,0.36169114\H,0,-1.27
 883762,1.25471672,-1.15327678\H,0,0.33402964,1.97697914,-0.97605016\H,

 Normal termination of Gaussian 16 at Wed Apr  9 18:03:47 2025.
