 Gaussian 16, Revision C.01,

 ----------------------------------------------------------------------
 #t hf aug-cc-pvdz symm=none int=(grid=ultrafine) guess=(read,tcheck) s
 table=(opt,rrhf)
 ----------------------------------------------------------------------
 -----
 title
 -----
 Symbolic Z-matrix:
 Charge =  0 Multiplicity = 1

 SCF Done:  E(RHF) =  -307.862267523     A.U. after   15 cycles

 1\1\GINC-SE454\Stability\RHF\Aug-CC-pVDZ\C6H10O1\OHZDE\09-Apr-2025\0\\
 #t hf aug-cc-pvdz symm=none int=(grid=ultrafine) guess=(read,tcheck) s
 table=(opt,rrhf)\\title\\0,1\O,0,2.39463748,-0.85853782,1.0444228\C,0,
 1.21910316,-0.27926183,0.69054111\C,0,0.09422087,-1.18234209,0.2670207
 3\C,0,-1.27122584,-0.52997838,0.47925444\C,0,-1.26996473,0.91517121,0.
 06179782\C,0,-0.15443988,1.63632096,0.16560122\C,0,1.10034806,1.048418
 24,0.6289144\H,0,2.28670107,-1.81054993,1.07732334\H,0,-0.41243851,0.0
 5127022,-3.3941957\H,0,0.14050047,-2.12834499,0.81620951\H,0,0.2413170

 Normal termination of Gaussian 16 at Wed Apr  9 18:58:58 2025.
 Gaussian 16:  ES64L-G16RevC.01  3-Jul-2019

 ----------------------------------------------------------------------
 #t hf aug-cc-pvdz iop(5/13=1,5/36=2,99/5=2) pseudo=read geom=check gue
 ss=(read,tcheck) scf=(maxcycle=1)
 ----------------------------------------------------------------------
 -----
 title
 -----
 Structure from the checkpoint file:  "Grambow2020_wb97xd3_008419_reverse_mol2.chk"
 Charge =  0 Multiplicity = 1

                         Standard orientation:
 ---------------------------------------------------------------------
 Center     Atomic      Atomic             Coordinates (Angstroms)
 Number     Number       Type             X           Y           Z
 ---------------------------------------------------------------------
      1          8           0       -2.392143    0.091759    0.054639
      2          6           0       -1.036585    0.115807   -0.012870
      3          6           0       -0.305520   -1.188570    0.143427
      4          6           0        1.068075   -1.155820   -0.525326
      5          6           0        1.783349    0.142076   -0.267295
      6          6           0        1.085199    1.265234   -0.105030
      7          6           0       -0.375830    1.270429   -0.117217
      8          1           0       -2.696423   -0.816904    0.083016
      9          1           0        1.763001   -0.416139    3.353969
     10          1           0       -0.899518   -2.008209   -0.273741
     11          1           0       -0.203148   -1.388187    1.217929
     12          1           0        0.945215   -1.277853   -1.610036
     13          1           0        1.662542   -2.005827   -0.185552
     14          1           0        1.710784   -0.085110    2.686934
     15          1           0        2.866641    0.153752   -0.273420
     16          1           0        1.596656    2.211156    0.033361
     17          1           0       -0.920739    2.204312   -0.163702
 ---------------------------------------------------------------------

 SCF Done:  E(RHF) =  -308.190498303     A.U. after    2 cycles

 The electronic state is 1-A.
 Alpha  occ. eigenvalues --  -20.57939 -11.30232 -11.25003 -11.24036 -11.23282
 Alpha  occ. eigenvalues --  -11.22531 -11.21352  -1.49637  -1.13394  -1.01796
 Alpha  occ. eigenvalues --   -1.00553  -0.87210  -0.81487  -0.73028  -0.69054
 Alpha  occ. eigenvalues --   -0.66686  -0.63645  -0.61201  -0.58664  -0.57467
 Alpha  occ. eigenvalues --   -0.57085  -0.55462  -0.52330  -0.48570  -0.48188
 Alpha  occ. eigenvalues --   -0.42119  -0.29313
 Alpha virt. eigenvalues --    0.03003   0.03752   0.04130   0.04595   0.05463
 Alpha virt. eigenvalues --    0.05832   0.06552   0.07742   0.08564   0.10062
 Alpha virt. eigenvalues --    0.11329   0.12619   0.12996   0.13381   0.14483

 Mulliken charges:
               1
     1  O   -1.647683
     2  C    1.564884
     3  C   -0.562812
     4  C   -0.554267
     5  C    0.260330
     6  C    0.405489
     7  C    0.099696
     8  H    0.370981
     9  H    0.033322
    10  H    0.158699
    11  H    0.194919
    12  H    0.215393
    13  H    0.189737
    14  H   -0.034624
    15  H   -0.227000
    16  H   -0.239705
    17  H   -0.227359
 Sum of Mulliken charges =   0.00000

 Dipole moment (field-independent basis, Debye):
    X=              0.0460    Y=             -2.1602    Z=              0.0035  Tot=              2.1607

 Test job not archived.
 1\1\GINC-SE454\SP\RHF\Aug-CC-pVDZ\C6H10O1\OHZDE\09-Apr-2025\0\\#t hf a
 ug-cc-pvdz iop(5/13=1,5/36=2,99/5=2) pseudo=read geom=check guess=(rea
 d,tcheck) scf=(maxcycle=1)\\title\\0,1\O,0,2.39463748,-0.85853782,1.04
 44228\C,0,1.21910316,-0.27926183,0.69054111\C,0,0.09422087,-1.18234209
 ,0.26702073\C,0,-1.27122584,-0.52997838,0.47925444\C,0,-1.26996473,0.9
 1517121,0.06179782\C,0,-0.15443988,1.63632096,0.16560122\C,0,1.1003480
 6,1.04841824,0.6289144\H,0,2.28670107,-1.81054993,1.07732334\H,0,-0.41
 243851,0.05127022,-3.3941957\H,0,0.14050047,-2.12834499,0.81620951\H,0

 Normal termination of Gaussian 16 at Wed Apr  9 18:59:04 2025.
