 Gaussian 16, Revision C.01,

 ----------------------------------------------------------------------
 #t hf aug-cc-pvdz symm=none int=(grid=ultrafine) guess=(read,tcheck) s
 table=(opt,rrhf)
 ----------------------------------------------------------------------
 -----
 title
 -----
 Symbolic Z-matrix:
 Charge =  0 Multiplicity = 1

 SCF Done:  E(RHF) =  -304.514186696     A.U. after   16 cycles
 Normal termination of Gaussian 16 at Wed Apr  9 03:16:29 2025.
 Gaussian 16:  ES64L-G16RevC.01  3-Jul-2019

 ----------------------------------------------------------------------
 #t hf aug-cc-pvdz iop(5/13=1,5/36=2,99/5=2) pseudo=read geom=check gue
 ss=(read,tcheck) scf=(maxcycle=1)
 ----------------------------------------------------------------------
 -----
 title
 -----
 Structure from the checkpoint file:  "Grambow2020_b97d3_007011_reverse_mol1.chk"
 Charge =  0 Multiplicity = 1

                         Standard orientation:
 ---------------------------------------------------------------------
 Center     Atomic      Atomic             Coordinates (Angstroms)
 Number     Number       Type             X           Y           Z
 ---------------------------------------------------------------------
      1          8           0       -0.632861    1.293962   -0.065958
      2          6           0        1.122536    0.392670   -0.636971
      3          6           0        1.756199   -0.230575    0.543274
      4          6           0        0.702611   -0.871421   -0.336035
      5          6           0       -0.975551   -0.185545    0.377810
      6          8           0       -1.958697   -0.673609   -0.134269
      7          1           0       -0.506998    1.819671    0.751925
      8          1           0        1.366078    1.085334   -1.434501
      9          1           0        2.822798   -0.480768    0.465381
     10          1           0        1.465308    0.068651    1.562819
     11          1           0        0.619896   -1.808563   -0.874172
     12          1           0       -0.669392   -0.277915    1.441905
 ---------------------------------------------------------------------

 SCF Done:  E(RHF) =  -304.823943513     A.U. after    2 cycles

 The electronic state is 1-A.
 Alpha  occ. eigenvalues --  -20.57092 -20.50702 -11.39793 -11.35060 -11.28556
 Alpha  occ. eigenvalues --  -11.25271  -1.47170  -1.41081  -1.20267  -0.87074
 Alpha  occ. eigenvalues --   -0.85654  -0.80050  -0.71782  -0.70909  -0.66228
 Alpha  occ. eigenvalues --   -0.61441  -0.57670  -0.55784  -0.52098  -0.48930
 Alpha  occ. eigenvalues --   -0.46734  -0.40978  -0.34145
 Alpha virt. eigenvalues --    0.02626   0.03128   0.03678   0.04529   0.05851
 Alpha virt. eigenvalues --    0.06680   0.07007   0.09966   0.10328   0.11348
 Alpha virt. eigenvalues --    0.13672   0.14199   0.14697   0.14981   0.15188

 Mulliken charges:
               1
     1  O   -1.183937
     2  C    0.679658
     3  C    0.184803
     4  C   -0.080021
     5  C    1.613205
     6  O   -1.220629
     7  H    0.392165
     8  H   -0.174343
     9  H   -0.091241
    10  H   -0.055394
    11  H   -0.237330
    12  H    0.173063
 Sum of Mulliken charges =  -0.00000

 Dipole moment (field-independent basis, Debye):
    X=              5.0693    Y=              1.4231    Z=              1.3542  Tot=              5.4366

 Test job not archived.
 1\1\GINC-SE045\SP\RHF\Aug-CC-pVDZ\C4H6O2\OHZDE\09-Apr-2025\0\\#t hf au
 g-cc-pvdz iop(5/13=1,5/36=2,99/5=2) pseudo=read geom=check guess=(read
 ,tcheck) scf=(maxcycle=1)\\title\\0,1\O,0,-1.07468251,0.49357609,1.181
 8385\C,0,-0.75220946,-0.6415363,-0.49962927\C,0,0.17206276,0.07612799,
 -1.40163749\C,0,0.57856492,-0.82729943,-0.25599709\C,0,0.49503603,0.33
 730973,1.30379051\O,0,0.89401433,-0.18279232,2.32227765\H,0,-1.2550393
 7,1.42762438,0.94483744\H,0,-1.72867485,-1.11175635,-0.52326998\H,0,0.
 20205509,-0.24942611,-2.45016576\H,0,0.3408981,1.15901999,-1.28998867\

 Normal termination of Gaussian 16 at Wed Apr  9 03:16:34 2025.
