 Gaussian 16, Revision C.01,

 ----------------------------------------------------------------------
 #t hf aug-cc-pvdz symm=none int=(grid=ultrafine) guess=(read,tcheck) s
 table=(opt,rrhf)
 ----------------------------------------------------------------------
 -----
 title
 -----
 Symbolic Z-matrix:
 Charge =  0 Multiplicity = 1

 SCF Done:  E(RHF) =  -306.740121567     A.U. after   15 cycles
 Normal termination of Gaussian 16 at Wed Apr  9 03:59:44 2025.
 Gaussian 16:  ES64L-G16RevC.01  3-Jul-2019

 ----------------------------------------------------------------------
 #t hf aug-cc-pvdz iop(5/13=1,5/36=2,99/5=2) pseudo=read geom=check gue
 ss=(read,tcheck) scf=(maxcycle=1)
 ----------------------------------------------------------------------
 -----
 title
 -----
 Structure from the checkpoint file:  "Grambow2020_wb97xd3_008779_reverse_mol2.chk"
 Charge =  0 Multiplicity = 1

                         Standard orientation:
 ---------------------------------------------------------------------
 Center     Atomic      Atomic             Coordinates (Angstroms)
 Number     Number       Type             X           Y           Z
 ---------------------------------------------------------------------
      1          8           0        2.680983    0.040744   -0.174245
      2          6           0        1.517224   -0.098012   -0.427398
      3          6           0        0.396343   -0.040633    0.585093
      4          6           0       -0.628793   -1.179682    0.376538
      5          6           0       -1.811332   -0.560911   -0.396976
      6          6           0       -1.604435    0.917142   -0.212916
      7          6           0       -0.428940    1.200558    0.329924
      8          1           0        1.181332   -0.269062   -1.474978
      9          1           0        0.850764   -0.050646    1.577411
     10          1           0       -0.195809   -2.040053   -0.137479
     11          1           0       -0.963568   -1.528125    1.353959
     12          1           0       -1.790940   -0.821812   -1.460058
     13          1           0       -2.777459   -0.898906   -0.015772
     14          1           0       -2.338690    1.656488   -0.509059
     15          1           0       -0.053899    2.195389    0.534353
 ---------------------------------------------------------------------

 SCF Done:  E(RHF) =  -307.059495146     A.U. after    2 cycles

 The electronic state is 1-A.
 Alpha  occ. eigenvalues --  -20.54490 -11.33730 -11.25254 -11.24950 -11.24802
 Alpha  occ. eigenvalues --  -11.24698 -11.24655  -1.47947  -1.16189  -1.00793
 Alpha  occ. eigenvalues --   -0.98696  -0.85577  -0.79214  -0.75072  -0.71324
 Alpha  occ. eigenvalues --   -0.66543  -0.64934  -0.60607  -0.57374  -0.54650
 Alpha  occ. eigenvalues --   -0.52751  -0.51729  -0.51105  -0.48869  -0.42283
 Alpha  occ. eigenvalues --   -0.36766
 Alpha virt. eigenvalues --    0.03187   0.03584   0.03684   0.04299   0.05941
 Alpha virt. eigenvalues --    0.06043   0.06503   0.07316   0.10411   0.10754
 Alpha virt. eigenvalues --    0.12336   0.13081   0.13643   0.14142   0.14591

 Mulliken charges:
               1
     1  O   -1.165325
     2  C    1.086003
     3  C   -0.483544
     4  C   -0.004484
     5  C   -0.549785
     6  C    0.277171
     7  C    0.331620
     8  H    0.158215
     9  H    0.001353
    10  H    0.128114
    11  H    0.120097
    12  H    0.185832
    13  H    0.146814
    14  H   -0.089919
    15  H   -0.142161
 Sum of Mulliken charges =   0.00000

 Dipole moment (field-independent basis, Debye):
    X=             -3.4321    Y=             -0.4400    Z=             -0.2293  Tot=              3.4678

 Test job not archived.
 1\1\GINC-SE460\SP\RHF\Aug-CC-pVDZ\C6H8O1\OHZDE\09-Apr-2025\0\\#t hf au
 g-cc-pvdz iop(5/13=1,5/36=2,99/5=2) pseudo=read geom=check guess=(read
 ,tcheck) scf=(maxcycle=1)\\title\\0,1\O,0,-0.3155825,-3.05225272,-0.28
 939524\C,0,-0.1950632,-1.87834509,-0.50174077\C,0,-0.20654896,-0.79958
 642,0.55700916\C,0,-1.0751535,0.40992235,0.13934115\C,0,-0.0996093,1.4
 7929497,-0.39390766\C,0,1.23283268,1.01743818,0.12821373\C,0,1.177077,
 -0.19737425,0.65538488\H,0,-0.04492622,-1.5022349,-1.53880665\H,0,-0.5
 3539989,-1.26032052,1.49021574\H,0,-1.84099121,0.13985353,-0.59037228\

 Normal termination of Gaussian 16 at Wed Apr  9 03:59:49 2025.
