 Gaussian 16, Revision C.01,

 ----------------------------------------------------------------------
 #t hf aug-cc-pvdz symm=none int=(grid=ultrafine) guess=(read,tcheck) s
 table=(opt,rrhf)
 ----------------------------------------------------------------------
 -----
 title
 -----
 Symbolic Z-matrix:
 Charge =  0 Multiplicity = 1

 SCF Done:  E(RHF) =  -305.423869364     A.U. after   14 cycles
 Normal termination of Gaussian 16 at Wed Apr  9 03:53:33 2025.
 Gaussian 16:  ES64L-G16RevC.01  3-Jul-2019

 ----------------------------------------------------------------------
 #t hf aug-cc-pvdz iop(5/13=1,5/36=2,99/5=2) pseudo=read geom=check gue
 ss=(read,tcheck) scf=(maxcycle=1)
 ----------------------------------------------------------------------
 -----
 title
 -----
 Structure from the checkpoint file:  "Grambow2020_wb97xd3_008341_reverse_mol2.chk"
 Charge =  0 Multiplicity = 1

                         Standard orientation:
 ---------------------------------------------------------------------
 Center     Atomic      Atomic             Coordinates (Angstroms)
 Number     Number       Type             X           Y           Z
 ---------------------------------------------------------------------
      1          8           0        2.111553   -0.041420   -0.582533
      2          6           0        1.106994   -0.004259    0.420875
      3          6           0        0.162571    1.247529    0.261206
      4          6           0       -1.151953    0.662211   -0.087857
      5          6           0       -2.227941   -0.044496   -0.312035
      6          6           0       -1.066632   -0.785701    0.023728
      7          6           0        0.159421   -1.196209    0.358907
      8          1           0        1.726833   -0.468761   -1.352346
      9          1           0        1.667552    0.064570    1.357492
     10          1           0        0.541115    1.939911   -0.491232
     11          1           0        0.061789    1.806048    1.194234
     12          1           0       -3.278610   -0.073877   -0.557183
     13          1           0        0.494138   -2.210972    0.520353
 ---------------------------------------------------------------------

 SCF Done:  E(RHF) =  -305.738178792     A.U. after    2 cycles

 The electronic state is 1-A.
 Alpha  occ. eigenvalues --  -20.53832 -11.31029 -11.29275 -11.28617 -11.27201
 Alpha  occ. eigenvalues --  -11.26644 -11.21262  -1.44345  -1.24732  -1.06532
 Alpha  occ. eigenvalues --   -0.97769  -0.86071  -0.78077  -0.72412  -0.68651
 Alpha  occ. eigenvalues --   -0.66149  -0.65344  -0.58545  -0.56614  -0.55423
 Alpha  occ. eigenvalues --   -0.51371  -0.50817  -0.43487  -0.39890  -0.30927
 Alpha virt. eigenvalues --    0.03011   0.03797   0.04419   0.04517   0.06189
 Alpha virt. eigenvalues --    0.06770   0.08019   0.09484   0.09945   0.12341
 Alpha virt. eigenvalues --    0.12685   0.13578   0.13872   0.14417   0.15504

 Mulliken charges:
               1
     1  O   -1.331017
     2  C    0.903936
     3  C   -0.871337
     4  C    0.380145
     5  C    0.189270
     6  C   -0.186942
     7  C    0.574317
     8  H    0.331369
     9  H    0.049159
    10  H    0.200177
    11  H    0.301163
    12  H   -0.324235
    13  H   -0.216005
 Sum of Mulliken charges =  -0.00000

 Dipole moment (field-independent basis, Debye):
    X=             -2.3833    Y=              1.3085    Z=             -0.2514  Tot=              2.7305

 Test job not archived.
 1\1\GINC-SE250\SP\RHF\Aug-CC-pVDZ\C6H6O1\OHZDE\09-Apr-2025\0\\#t hf au
 g-cc-pvdz iop(5/13=1,5/36=2,99/5=2) pseudo=read geom=check guess=(read
 ,tcheck) scf=(maxcycle=1)\\title\\0,1\O,0,0.37138984,-1.09735756,1.881
 11224\C,0,0.60408932,-0.85250676,0.50153077\C,0,-0.72952299,-0.9007234
 ,-0.33725297\C,0,-0.90733545,0.49195954,-0.80760551\C,0,-0.84608278,1.
 74401093,-1.17646368\C,0,0.2737138,1.26302477,-0.45157278\C,0,1.164845
 7,0.53831517,0.23015296\H,0,0.12664556,-0.25819542,2.2800455\H,0,1.270
 65633,-1.66367664,0.19509014\H,0,-1.56484835,-1.26486686,0.26148107\H,

 Normal termination of Gaussian 16 at Wed Apr  9 03:53:38 2025.
