 Gaussian 16, Revision C.01,

 ----------------------------------------------------------------------
 #t hf aug-cc-pvdz symm=none int=(grid=ultrafine) guess=(read,tcheck) s
 table=(opt,rrhf)
 ----------------------------------------------------------------------
 -----
 title
 -----
 Symbolic Z-matrix:
 Charge =  0 Multiplicity = 1

 SCF Done:  E(RHF) =  -269.877712115     A.U. after   15 cycles

 1\1\GINC-SE118\Stability\RHF\Aug-CC-pVDZ\C5H10O1\OHZDE\09-Apr-2025\0\\
 #t hf aug-cc-pvdz symm=none int=(grid=ultrafine) guess=(read,tcheck) s
 table=(opt,rrhf)\\title\\0,1\O,0,2.47388778,-0.37787958,-0.64033643\C,
 0,1.33992441,-0.49265692,0.88806561\C,0,0.19138291,-0.11653982,0.17878
 305\C,0,-1.02468087,-0.95005158,-0.22659101\C,0,-1.79041853,0.38198797
 ,-0.42229532\C,0,-0.65831057,1.14898821,0.30445344\H,0,3.09248891,0.36
 243999,-0.64321993\H,0,1.56251009,-1.5353823,1.07915143\H,0,1.85615151
 ,0.21583304,1.52715357\H,0,1.24039544,-0.0653536,-0.72764372\H,0,-1.43

 Normal termination of Gaussian 16 at Wed Apr  9 16:52:14 2025.
 Gaussian 16:  ES64L-G16RevC.01  3-Jul-2019

 ----------------------------------------------------------------------
 #t hf aug-cc-pvdz iop(5/13=1,5/36=2,99/5=2) pseudo=read geom=check gue
 ss=(read,tcheck) scf=(maxcycle=1)
 ----------------------------------------------------------------------
 -----
 title
 -----
 Structure from the checkpoint file:  "Grambow2020_wb97xd3_006154_reverse_mol1.chk"
 Charge =  0 Multiplicity = 1

                         Standard orientation:
 ---------------------------------------------------------------------
 Center     Atomic      Atomic             Coordinates (Angstroms)
 Number     Number       Type             X           Y           Z
 ---------------------------------------------------------------------
      1          8           0        2.318660   -0.073611   -0.689990
      2          6           0        1.258095   -0.039487    0.894023
      3          6           0        0.045547   -0.011378    0.192147
      4          6           0       -1.022196   -1.095252    0.040406
      5          6           0       -2.006065    0.024813   -0.379643
      6          6           0       -1.001959    1.099665    0.104698
      7          1           0        2.803367    0.738089   -0.882214
      8          1           0        1.657870   -0.968338    1.282288
      9          1           0        1.663032    0.862005    1.341482
     10          1           0        1.048374    0.012192   -0.766205
     11          1           0       -1.302877   -1.564709    0.987370
     12          1           0       -0.842806   -1.881557   -0.694257
     13          1           0       -2.151094    0.057385   -1.459586
     14          1           0       -2.982411    0.020404    0.103871
     15          1           0       -1.273863    1.516589    1.078601
     16          1           0       -0.809407    1.926668   -0.581220
 ---------------------------------------------------------------------

 SCF Done:  E(RHF) =  -270.169920427     A.U. after    2 cycles

 The electronic state is 1-A.
 Alpha  occ. eigenvalues --  -20.51176 -11.32432 -11.22742 -11.22553 -11.22447
 Alpha  occ. eigenvalues --  -11.20695  -1.37511  -1.13495  -1.01311  -0.90162
 Alpha  occ. eigenvalues --   -0.83718  -0.74975  -0.68393  -0.65883  -0.64962
 Alpha  occ. eigenvalues --   -0.62189  -0.54513  -0.52295  -0.49115  -0.48681
 Alpha  occ. eigenvalues --   -0.46570  -0.45407  -0.44951  -0.32277
 Alpha virt. eigenvalues --    0.03164   0.03683   0.03973   0.04541   0.06068
 Alpha virt. eigenvalues --    0.06249   0.06480   0.07075   0.07457   0.10018
 Alpha virt. eigenvalues --    0.11187   0.12952   0.13507   0.13941   0.14039

 Mulliken charges:
               1
     1  O   -1.139185
     2  C    0.093227
     3  C   -0.032572
     4  C   -0.232874
     5  C    0.091895
     6  C   -0.345574
     7  H    0.359895
     8  H   -0.059282
     9  H   -0.064968
    10  H    1.028709
    11  H    0.076230
    12  H    0.026579
    13  H    0.080768
    14  H    0.016093
    15  H    0.070790
    16  H    0.030268
 Sum of Mulliken charges =  -0.00000

 Dipole moment (field-independent basis, Debye):
    X=             -0.3813    Y=              1.2392    Z=              1.7246  Tot=              2.1576

 Test job not archived.
 1\1\GINC-SE118\SP\RHF\Aug-CC-pVDZ\C5H10O1\OHZDE\09-Apr-2025\0\\#t hf a
 ug-cc-pvdz iop(5/13=1,5/36=2,99/5=2) pseudo=read geom=check guess=(rea
 d,tcheck) scf=(maxcycle=1)\\title\\0,1\O,0,2.47388778,-0.37787958,-0.6
 4033643\C,0,1.33992441,-0.49265692,0.88806561\C,0,0.19138291,-0.116539
 82,0.17878305\C,0,-1.02468087,-0.95005158,-0.22659101\C,0,-1.79041853,
 0.38198797,-0.42229532\C,0,-0.65831057,1.14898821,0.30445344\H,0,3.092
 48891,0.36243999,-0.64321993\H,0,1.56251009,-1.5353823,1.07915143\H,0,
 1.85615151,0.21583304,1.52715357\H,0,1.24039544,-0.0653536,-0.72764372

 Normal termination of Gaussian 16 at Wed Apr  9 16:52:19 2025.
