 Gaussian 16, Revision C.01,

 ----------------------------------------------------------------------
 #t hf aug-cc-pvdz symm=none int=(grid=ultrafine) guess=(read,tcheck) s
 table=(opt,rrhf)
 ----------------------------------------------------------------------
 -----
 title
 -----
 Symbolic Z-matrix:
 Charge =  0 Multiplicity = 1

 SCF Done:  E(RHF) =  -302.830333587     A.U. after   15 cycles
 Normal termination of Gaussian 16 at Wed Apr  9 19:10:59 2025.
 Gaussian 16:  ES64L-G16RevC.01  3-Jul-2019

 ----------------------------------------------------------------------
 #t hf aug-cc-pvdz iop(5/13=1,5/36=2,99/5=2) pseudo=read geom=check gue
 ss=(read,tcheck) scf=(maxcycle=1)
 ----------------------------------------------------------------------
 -----
 title
 -----
 Structure from the checkpoint file:  "Grambow2020_wb97xd3_008839_reverse_mol2.chk"
 Charge =  0 Multiplicity = 1

                         Standard orientation:
 ---------------------------------------------------------------------
 Center     Atomic      Atomic             Coordinates (Angstroms)
 Number     Number       Type             X           Y           Z
 ---------------------------------------------------------------------
      1          6           0       -1.496368   -1.581182   -0.328261
      2          6           0       -0.748341   -0.386952    0.159763
      3          6           0        0.547997   -0.504436    0.882006
      4          6           0        1.721856   -0.261426    0.024996
      5          7           0        2.616477   -0.071449   -0.668117
      6          6           0       -0.609434    2.032566    0.029436
      7          7           0       -1.155936    0.834233   -0.156366
      8          1           0       -0.978653   -2.103427   -1.141914
      9          1           0       -1.656650   -2.309899    0.471978
     10          1           0       -2.482219   -1.298317   -0.706629
     11          1           0        0.650341   -1.502989    1.309695
     12          1           0        0.592497    0.216510    1.710915
     13          1           0        0.398090    2.117821    0.398185
     14          1           0       -1.183138    2.893745   -0.263653
     15          1           0       -2.058307    0.855658   -0.614829
 ---------------------------------------------------------------------

 SCF Done:  E(RHF) =  -303.144721397     A.U. after    2 cycles

 The electronic state is 1-A.
 Alpha  occ. eigenvalues --  -15.62240 -15.50420 -11.29448 -11.27428 -11.26840
 Alpha  occ. eigenvalues --  -11.25628 -11.24779  -1.32405  -1.23000  -1.09255
 Alpha  occ. eigenvalues --   -1.01792  -0.94686  -0.86181  -0.73481  -0.72085
 Alpha  occ. eigenvalues --   -0.69091  -0.62706  -0.61907  -0.59026  -0.58365
 Alpha  occ. eigenvalues --   -0.58048  -0.56182  -0.55813  -0.49048  -0.48810
 Alpha  occ. eigenvalues --   -0.25497
 Alpha virt. eigenvalues --    0.02500   0.03489   0.03968   0.05035   0.05257
 Alpha virt. eigenvalues --    0.05608   0.06826   0.08338   0.08956   0.10426
 Alpha virt. eigenvalues --    0.10662   0.11692   0.12998   0.14010   0.14629

 Mulliken charges:
               1
     1  C   -0.509193
     2  C   -0.977767
     3  C    0.125526
     4  C   -1.483741
     5  N    0.937485
     6  C   -0.299926
     7  N    1.156301
     8  H    0.241974
     9  H    0.203358
    10  H    0.050563
    11  H    0.161480
    12  H    0.309170
    13  H   -0.035531
    14  H   -0.154870
    15  H    0.275173
 Sum of Mulliken charges =  -0.00000

 Dipole moment (field-independent basis, Debye):
    X=             -5.0109    Y=             -1.2198    Z=              1.8278  Tot=              5.4716

 Test job not archived.
 1\1\GINC-SE135\SP\RHF\Aug-CC-pVDZ\C5H8N2\OHZDE\09-Apr-2025\0\\#t hf au
 g-cc-pvdz iop(5/13=1,5/36=2,99/5=2) pseudo=read geom=check guess=(read
 ,tcheck) scf=(maxcycle=1)\\title\\0,1\C,0,-1.08701433,1.338172,-0.8313
 514\C,0,-0.27621983,0.1809071,-0.35464659\C,0,1.20579539,0.14256405,-0
 .48914959\C,0,1.91743906,0.50335937,0.74974261\N,0,2.44338263,0.792691
 26,1.72775754\C,0,-0.34225654,-1.85078797,0.97132482\N,0,-0.84678859,-
 0.7999238,0.33076238\H,0,-0.91258324,2.24897298,-0.2458467\H,0,-0.8680
 075,1.57950464,-1.87581137\H,0,-2.15628816,1.11909707,-0.7702178\H,0,1

 Normal termination of Gaussian 16 at Wed Apr  9 19:11:04 2025.
