 Gaussian 16, Revision C.01,

 ----------------------------------------------------------------------
 #t hf aug-cc-pvdz symm=none int=(grid=ultrafine) guess=(read,tcheck) s
 table=(opt,rrhf)
 ----------------------------------------------------------------------
 -----
 title
 -----
 Symbolic Z-matrix:
 Charge =  0 Multiplicity = 1

 SCF Done:  E(RHF) =  -305.465346299     A.U. after   13 cycles
 Normal termination of Gaussian 16 at Wed Apr  9 18:55:37 2025.
 Gaussian 16:  ES64L-G16RevC.01  3-Jul-2019

 ----------------------------------------------------------------------
 #t hf aug-cc-pvdz iop(5/13=1,5/36=2,99/5=2) pseudo=read geom=check gue
 ss=(read,tcheck) scf=(maxcycle=1)
 ----------------------------------------------------------------------
 -----
 title
 -----
 Structure from the checkpoint file:  "Grambow2020_wb97xd3_008351_reverse_mol2.chk"
 Charge =  0 Multiplicity = 1

                         Standard orientation:
 ---------------------------------------------------------------------
 Center     Atomic      Atomic             Coordinates (Angstroms)
 Number     Number       Type             X           Y           Z
 ---------------------------------------------------------------------
      1          8           0       -2.677989   -0.847654   -0.394622
      2          6           0       -1.900039   -0.177309    0.503719
      3          6           0        2.383067   -1.426585    0.068777
      4          6           0        1.949634   -0.209720   -0.049742
      5          6           0        1.505717    1.012535   -0.170949
      6          6           0       -0.910121    0.622214    0.224647
      7          6           0        0.093868    1.418468   -0.037609
      8          1           0       -2.367167   -0.649425   -1.281948
      9          1           0       -2.200529   -0.379897    1.525005
     10          1           0        2.443299   -2.085177   -0.790732
     11          1           0        2.694163   -1.820176    1.030071
     12          1           0        2.222517    1.798451   -0.387094
     13          1           0       -0.101124    2.479834   -0.171377
 ---------------------------------------------------------------------

 SCF Done:  E(RHF) =  -305.776717202     A.U. after    2 cycles

 The electronic state is 1-A.
 Alpha  occ. eigenvalues --  -20.57912 -11.31169 -11.26958 -11.26851 -11.25749
 Alpha  occ. eigenvalues --  -11.25145 -11.24330  -1.49047  -1.11533  -1.05580
 Alpha  occ. eigenvalues --   -0.99420  -0.92350  -0.79931  -0.74729  -0.68102
 Alpha  occ. eigenvalues --   -0.65513  -0.64136  -0.62139  -0.60669  -0.57142
 Alpha  occ. eigenvalues --   -0.56272  -0.45953  -0.39495  -0.35448  -0.33824
 Alpha virt. eigenvalues --    0.03393   0.03814   0.04205   0.04238   0.05582
 Alpha virt. eigenvalues --    0.05911   0.08371   0.09295   0.09885   0.11145
 Alpha virt. eigenvalues --    0.11844   0.12368   0.13509   0.13941   0.14857

 Mulliken charges:
               1
     1  O   -1.377362
     2  C    1.254118
     3  C   -0.118652
     4  C   -0.035953
     5  C    0.437537
     6  C   -0.317875
     7  C    0.261085
     8  H    0.381643
     9  H   -0.052999
    10  H   -0.043590
    11  H   -0.044689
    12  H   -0.163878
    13  H   -0.179387
 Sum of Mulliken charges =  -0.00000

 Dipole moment (field-independent basis, Debye):
    X=              1.0279    Y=              0.3782    Z=             -0.5823  Tot=              1.2404

 Test job not archived.
 1\1\GINC-SE168\SP\RHF\Aug-CC-pVDZ\C6H6O1\OHZDE\09-Apr-2025\0\\#t hf au
 g-cc-pvdz iop(5/13=1,5/36=2,99/5=2) pseudo=read geom=check guess=(read
 ,tcheck) scf=(maxcycle=1)\\title\\0,1\O,0,0.38799873,-1.06640664,2.843
 34699\C,0,1.11086918,-0.84386869,1.7077776\C,0,-1.60854753,-0.73211917
 ,-1.85412465\C,0,-0.82120065,0.2328813,-1.49145193\C,0,-0.02854003,1.2
 0153749,-1.11855305\C,0,0.98178292,0.16515115,0.89397589\C,0,0.8573035
 5,1.16534707,0.06036618\H,0,-0.25545442,-0.35997087,2.94418736\H,0,1.8
 4363629,-1.62417146,1.53883521\H,0,-2.62717951,-0.79109655,-1.48664917

 Normal termination of Gaussian 16 at Wed Apr  9 18:55:41 2025.
