 Gaussian 16, Revision C.01,

 ----------------------------------------------------------------------
 #t hf aug-cc-pvdz symm=none int=(grid=ultrafine) guess=(read,tcheck) s
 table=(opt,rrhf)
 ----------------------------------------------------------------------
 -----
 title
 -----
 Symbolic Z-matrix:
 Charge =  0 Multiplicity = 1

 SCF Done:  E(RHF) =  -264.903022400     A.U. after   16 cycles
 Normal termination of Gaussian 16 at Wed Apr  9 15:40:53 2025.
 Gaussian 16:  ES64L-G16RevC.01  3-Jul-2019

 ----------------------------------------------------------------------
 #t hf aug-cc-pvdz iop(5/13=1,5/36=2,99/5=2) pseudo=read geom=check gue
 ss=(read,tcheck) scf=(maxcycle=1)
 ----------------------------------------------------------------------
 -----
 title
 -----
 Structure from the checkpoint file:  "Grambow2020_b97d3_006624_reverse_mol1.chk"
 Charge =  0 Multiplicity = 1

                         Standard orientation:
 ---------------------------------------------------------------------
 Center     Atomic      Atomic             Coordinates (Angstroms)
 Number     Number       Type             X           Y           Z
 ---------------------------------------------------------------------
      1          6           0        2.297774   -0.678634    0.143349
      2          6           0        1.037427   -0.154052   -0.525512
      3          6           0       -0.118630    0.155837    0.352537
      4          7           0       -0.344259    1.759317   -0.054378
      5          6           0       -1.383020   -0.530230    0.131553
      6          7           0       -2.360321   -1.145879   -0.081553
      7          1           0        2.235699   -1.732551    0.476261
      8          1           0        2.570230   -0.076932    1.026737
      9          1           0        3.147232   -0.618086   -0.553632
     10          1           0        0.654461    1.539907   -0.631317
     11          1           0        0.749461   -0.711668   -1.423577
     12          1           0        0.118939    0.197011    1.423639
     13          1           0       -1.148952    1.892066   -0.686877
     14          1           0       -0.396317    2.458655    0.708726
 ---------------------------------------------------------------------

 SCF Done:  E(RHF) =  -265.179029935     A.U. after    2 cycles

 The electronic state is 1-A.
 Alpha  occ. eigenvalues --  -15.59771 -15.52859 -11.34885 -11.29650 -11.21548
 Alpha  occ. eigenvalues --  -11.18519  -1.26136  -1.22547  -1.06036  -0.95507
 Alpha  occ. eigenvalues --   -0.82907  -0.78233  -0.75122  -0.68926  -0.62436
 Alpha  occ. eigenvalues --   -0.60721  -0.58639  -0.54859  -0.52435  -0.49901
 Alpha  occ. eigenvalues --   -0.49137  -0.48079  -0.28887
 Alpha virt. eigenvalues --    0.01557   0.03853   0.04558   0.04748   0.05859
 Alpha virt. eigenvalues --    0.06048   0.07593   0.07864   0.08994   0.09895
 Alpha virt. eigenvalues --    0.11751   0.12598   0.13725   0.14132   0.14716

 Mulliken charges:
               1
     1  C   -0.472202
     2  C   -0.181969
     3  C    0.110162
     4  N   -0.035651
     5  C   -1.648136
     6  N    0.895868
     7  H    0.188538
     8  H    0.107945
     9  H    0.138641
    10  H    0.470897
    11  H   -0.067427
    12  H    0.058544
    13  H    0.252209
    14  H    0.182584
 Sum of Mulliken charges =  -0.00000

 Dipole moment (field-independent basis, Debye):
    X=              1.0968    Y=              4.8412    Z=              1.7962  Tot=              5.2789

 Test job not archived.
 1\1\GINC-SE168\SP\RHF\Aug-CC-pVDZ\C4H8N2\OHZDE\09-Apr-2025\0\\#t hf au
 g-cc-pvdz iop(5/13=1,5/36=2,99/5=2) pseudo=read geom=check guess=(read
 ,tcheck) scf=(maxcycle=1)\\title\\0,1\C,0,-1.97102804,-0.11938775,0.25
 515806\C,0,-0.65217775,-0.1224853,-0.50092517\C,0,0.54142806,0.3953454
 2,0.21365533\N,0,1.52976101,-0.94504265,0.09451263\C,0,1.27080621,1.52
 369034,-0.34585489\N,0,1.7892604,2.45680573,-0.83580882\H,0,-2.4365078
 7,0.87934703,0.36137616\H,0,-1.85827082,-0.53236686,1.27171377\H,0,-2.
 70429488,-0.75495667,-0.26387866\H,0,0.53172702,-1.38706032,-0.3379102

 Normal termination of Gaussian 16 at Wed Apr  9 15:40:57 2025.
