 Gaussian 16, Revision C.01,

 ----------------------------------------------------------------------
 #t hf aug-cc-pvdz symm=none int=(grid=ultrafine) guess=(read,tcheck) s
 table=(opt,rrhf)
 ----------------------------------------------------------------------
 -----
 title
 -----
 Symbolic Z-matrix:
 Charge =  0 Multiplicity = 1

 SCF Done:  E(RHF) =  -307.732349471     A.U. after   14 cycles

 1\1\GINC-SE114\Stability\RHF\Aug-CC-pVDZ\C6H10O1\OHZDE\09-Apr-2025\0\\
 #t hf aug-cc-pvdz symm=none int=(grid=ultrafine) guess=(read,tcheck) s
 table=(opt,rrhf)\\title\\0,1\C,0,1.89396426,-0.25744208,-0.04099477\C,
 0,0.74683848,0.28075411,0.53382303\C,0,-0.05619104,-0.66268583,1.18677
 656\C,0,-1.01153615,-0.99409108,0.22591885\C,0,-1.33182786,0.22994341,
 -0.61709941\C,0,-0.1453768,1.17375349,-0.31170785\O,0,-0.53050317,2.35
 857804,0.35571751\H,0,2.46482699,0.30321731,-0.77433865\H,0,1.02339022
 ,-1.19092417,-0.83958878\H,0,2.46078578,-1.0089365,0.50403147\H,0,0.33

 Normal termination of Gaussian 16 at Wed Apr  9 18:35:40 2025.
 Gaussian 16:  ES64L-G16RevC.01  3-Jul-2019

 ----------------------------------------------------------------------
 #t hf aug-cc-pvdz iop(5/13=1,5/36=2,99/5=2) pseudo=read geom=check gue
 ss=(read,tcheck) scf=(maxcycle=1)
 ----------------------------------------------------------------------
 -----
 title
 -----
 Structure from the checkpoint file:  "Grambow2020_wb97xd3_007744_forward_mol1.chk"
 Charge =  0 Multiplicity = 1

                         Standard orientation:
 ---------------------------------------------------------------------
 Center     Atomic      Atomic             Coordinates (Angstroms)
 Number     Number       Type             X           Y           Z
 ---------------------------------------------------------------------
      1          6           0        1.541145   -1.271864    0.374459
      2          6           0        0.507413   -0.664460   -0.331536
      3          6           0        0.881094    0.521796   -0.975307
      4          6           0        0.495155    1.513935   -0.073935
      5          6           0       -0.773145    1.083104    0.645320
      6          6           0       -0.822003   -0.437591    0.368179
      7          8           0       -1.931196   -0.827958   -0.415972
      8          1           0        1.335331   -2.045001    1.107886
      9          1           0        1.709662   -0.002735    1.166895
     10          1           0        2.535850   -1.309193   -0.064008
     11          1           0        1.765699    0.607671   -1.594916
     12          1           0        0.734040    2.566592   -0.187767
     13          1           0        1.474545    0.984535    0.960920
     14          1           0       -0.758283    1.323466    1.708180
     15          1           0       -1.651047    1.567005    0.212256
     16          1           0       -0.897849   -1.016494    1.288593
     17          1           0       -1.776342   -0.521710   -1.313350
 ---------------------------------------------------------------------

 SCF Done:  E(RHF) =  -308.060010944     A.U. after    2 cycles

 The electronic state is 1-A.
 Alpha  occ. eigenvalues --  -20.54408 -11.29076 -11.27258 -11.26518 -11.24585
 Alpha  occ. eigenvalues --  -11.24095 -11.23958  -1.45037  -1.17853  -1.02731
 Alpha  occ. eigenvalues --   -0.97353  -0.89408  -0.79859  -0.75591  -0.69007
 Alpha  occ. eigenvalues --   -0.67023  -0.65402  -0.60837  -0.59924  -0.57453
 Alpha  occ. eigenvalues --   -0.54265  -0.53328  -0.52034  -0.48691  -0.43051
 Alpha  occ. eigenvalues --   -0.37344  -0.32875
 Alpha virt. eigenvalues --    0.03189   0.03629   0.03847   0.04629   0.05821
 Alpha virt. eigenvalues --    0.05926   0.06844   0.07642   0.08073   0.09187
 Alpha virt. eigenvalues --    0.10068   0.11231   0.12257   0.13597   0.13985

 Mulliken charges:
               1
     1  C   -0.376016
     2  C   -0.175981
     3  C    0.492557
     4  C   -0.529572
     5  C   -0.340077
     6  C    1.330168
     7  O   -1.419656
     8  H   -0.055006
     9  H    0.316231
    10  H   -0.012486
    11  H   -0.128266
    12  H   -0.078764
    13  H    0.376817
    14  H    0.133044
    15  H    0.102420
    16  H    0.068562
    17  H    0.296022
 Sum of Mulliken charges =  -0.00000

 Dipole moment (field-independent basis, Debye):
    X=              1.5615    Y=              1.1556    Z=             -0.0393  Tot=              1.9430

 Test job not archived.
 1\1\GINC-SE114\SP\RHF\Aug-CC-pVDZ\C6H10O1\OHZDE\09-Apr-2025\0\\#t hf a
 ug-cc-pvdz iop(5/13=1,5/36=2,99/5=2) pseudo=read geom=check guess=(rea
 d,tcheck) scf=(maxcycle=1)\\title\\0,1\C,0,1.89396426,-0.25744208,-0.0
 4099477\C,0,0.74683848,0.28075411,0.53382303\C,0,-0.05619104,-0.662685
 83,1.18677656\C,0,-1.01153615,-0.99409108,0.22591885\C,0,-1.33182786,0
 .22994341,-0.61709941\C,0,-0.1453768,1.17375349,-0.31170785\O,0,-0.530
 50317,2.35857804,0.35571751\H,0,2.46482699,0.30321731,-0.77433865\H,0,
 1.02339022,-1.19092417,-0.83958878\H,0,2.46078578,-1.0089365,0.5040314

 Normal termination of Gaussian 16 at Wed Apr  9 18:35:47 2025.
