 Gaussian 16, Revision C.01,

 ----------------------------------------------------------------------
 #t hf aug-cc-pvdz symm=none int=(grid=ultrafine) guess=(read,tcheck) s
 table=(opt,rrhf)
 ----------------------------------------------------------------------
 -----
 title
 -----
 Symbolic Z-matrix:
 Charge =  0 Multiplicity = 1

 SCF Done:  E(RHF) =  -320.399330243     A.U. after   16 cycles
 Normal termination of Gaussian 16 at Wed Apr  9 18:30:07 2025.
 Gaussian 16:  ES64L-G16RevC.01  3-Jul-2019

 ----------------------------------------------------------------------
 #t hf aug-cc-pvdz iop(5/13=1,5/36=2,99/5=2) pseudo=read geom=check gue
 ss=(read,tcheck) scf=(maxcycle=1)
 ----------------------------------------------------------------------
 -----
 title
 -----
 Structure from the checkpoint file:  "Grambow2020_wb97xd3_007650_forward_mol2.chk"
 Charge =  0 Multiplicity = 1

                         Standard orientation:
 ---------------------------------------------------------------------
 Center     Atomic      Atomic             Coordinates (Angstroms)
 Number     Number       Type             X           Y           Z
 ---------------------------------------------------------------------
      1          7           0       -2.930152    0.022012    0.000437
      2          6           0       -1.781730    0.013088   -0.000236
      3          6           0       -0.359690    0.012395   -0.000622
      4          6           0        0.441875   -1.083169   -0.000515
      5          8           0        1.728868   -0.712940    0.000120
      6          6           0        1.763140    0.642818    0.000378
      7          6           0        0.515297    1.149800   -0.000021
      8          1           0        0.234099   -2.139637    0.001927
      9          1           0        2.742097    1.090994    0.000151
     10          1           0        0.230576    2.188490   -0.000008
 ---------------------------------------------------------------------

 SCF Done:  E(RHF) =  -320.715481599     A.U. after    2 cycles

 The electronic state is 1-A.
 Alpha  occ. eigenvalues --  -20.64816 -15.51943 -11.34253 -11.32580 -11.29334
 Alpha  occ. eigenvalues --  -11.29047 -11.27224  -1.59254  -1.24376  -1.14386
 Alpha  occ. eigenvalues --   -1.05441  -0.90326  -0.83911  -0.80265  -0.68909
 Alpha  occ. eigenvalues --   -0.67635  -0.64728  -0.62193  -0.60768  -0.59579
 Alpha  occ. eigenvalues --   -0.54750  -0.50675  -0.42980  -0.36536
 Alpha virt. eigenvalues --    0.02851   0.03715   0.04217   0.06760   0.07969
 Alpha virt. eigenvalues --    0.08861   0.09708   0.10027   0.10848   0.12845
 Alpha virt. eigenvalues --    0.12927   0.13146   0.13738   0.14487   0.15049

 Mulliken charges:
               1
     1  N    1.068123
     2  C   -2.734448
     3  C    2.015036
     4  C    0.731156
     5  O   -1.445030
     6  C    0.924239
     7  C   -0.059698
     8  H   -0.196864
     9  H   -0.113605
    10  H   -0.188908
 Sum of Mulliken charges =  -0.00000

 Dipole moment (field-independent basis, Debye):
    X=              4.8595    Y=              0.1638    Z=              0.0004  Tot=              4.8623

 Test job not archived.
 1\1\GINC-SE103\SP\RHF\Aug-CC-pVDZ\C5H3N1O1\OHZDE\09-Apr-2025\0\\#t hf
 aug-cc-pvdz iop(5/13=1,5/36=2,99/5=2) pseudo=read geom=check guess=(re
 ad,tcheck) scf=(maxcycle=1)\\title\\0,1\N,0,3.13189449,-0.58395226,-0.
 16319079\C,0,2.01347673,-0.3326492,-0.0928938\C,0,0.6263144,-0.0312871
 4,-0.00828295\C,0,0.08493083,1.16306301,0.34271406\O,0,-1.25194828,1.0
 8857863,0.31763106\C,0,-1.58313638,-0.17260829,-0.055166\C,0,-0.477106
 73,-0.9105751,-0.27021335\H,0,0.51964887,2.10681251,0.62495241\H,0,-2.
 6366174,-0.38488614,-0.12100694\H,0,-0.42745654,-1.94249604,-0.5745437

 Normal termination of Gaussian 16 at Wed Apr  9 18:30:11 2025.
