 Gaussian 16, Revision C.01,

 ----------------------------------------------------------------------
 #t hf aug-cc-pvdz symm=none int=(grid=ultrafine) guess=(read,tcheck) s
 table=(opt,rrhf)
 ----------------------------------------------------------------------
 -----
 title
 -----
 Symbolic Z-matrix:
 Charge =  0 Multiplicity = 1

 SCF Done:  E(RHF) =  -323.750752119     A.U. after   15 cycles
 Normal termination of Gaussian 16 at Wed Apr  9 17:53:45 2025.
 Gaussian 16:  ES64L-G16RevC.01  3-Jul-2019

 ----------------------------------------------------------------------
 #t hf aug-cc-pvdz iop(5/13=1,5/36=2,99/5=2) pseudo=read geom=check gue
 ss=(read,tcheck) scf=(maxcycle=1)
 ----------------------------------------------------------------------
 -----
 title
 -----
 Structure from the checkpoint file:  "Grambow2020_wb97xd3_006865_reverse_mol1.chk"
 Charge =  0 Multiplicity = 1

                         Standard orientation:
 ---------------------------------------------------------------------
 Center     Atomic      Atomic             Coordinates (Angstroms)
 Number     Number       Type             X           Y           Z
 ---------------------------------------------------------------------
      1          6           0        2.449728   -0.294848   -0.673505
      2          7           0        1.236550    0.389966   -0.270615
      3          6           0        0.984552    0.484884    1.137649
      4          6           0        0.192544   -0.451640    0.281563
      5          6           0       -1.202079   -0.136125   -0.049558
      6          8           0       -2.098645   -1.043629    0.083458
      7          6           0       -1.825109    1.074329   -0.433645
      8          1           0        3.271501    0.421904   -0.685856
      9          1           0        2.320511   -0.689676   -1.681498
     10          1           0        2.719276   -1.124016   -0.002918
     11          1           0        1.685794    0.019243    1.825257
     12          1           0        0.530908    1.405672    1.484362
     13          1           0        0.392261   -1.511745    0.416462
     14          1           0       -2.234249    0.991637   -1.440413
     15          1           0       -2.779420    0.007462   -0.025903
     16          1           0       -1.371096    2.039187   -0.237879
 ---------------------------------------------------------------------

 SCF Done:  E(RHF) =  -324.092342481     A.U. after    2 cycles

 The electronic state is 1-A.
 Alpha  occ. eigenvalues --  -20.55937 -15.52651 -11.35614 -11.29144 -11.28953
 Alpha  occ. eigenvalues --  -11.27343 -11.20134  -1.49642  -1.31342  -1.04596
 Alpha  occ. eigenvalues --   -1.00044  -0.92699  -0.86258  -0.76900  -0.71895
 Alpha  occ. eigenvalues --   -0.70607  -0.65486  -0.62260  -0.61114  -0.59811
 Alpha  occ. eigenvalues --   -0.57727  -0.53250  -0.51560  -0.50967  -0.46920
 Alpha  occ. eigenvalues --   -0.42996  -0.33603
 Alpha virt. eigenvalues --    0.03212   0.04103   0.04232   0.04698   0.05438
 Alpha virt. eigenvalues --    0.05800   0.06189   0.06956   0.08380   0.10187
 Alpha virt. eigenvalues --    0.10955   0.12008   0.12373   0.13264   0.14668

 Mulliken charges:
               1
     1  C   -0.317438
     2  N    0.697254
     3  C    0.207467
     4  C   -0.325582
     5  C    1.163031
     6  O   -1.482089
     7  C   -0.412683
     8  H    0.071684
     9  H    0.088432
    10  H    0.144171
    11  H   -0.083411
    12  H   -0.091784
    13  H   -0.261790
    14  H    0.114949
    15  H    0.557029
    16  H   -0.069241
 Sum of Mulliken charges =  -0.00000

 Dipole moment (field-independent basis, Debye):
    X=              3.0749    Y=             -0.3476    Z=              0.8629  Tot=              3.2125

 Test job not archived.
 1\1\GINC-SE229\SP\RHF\Aug-CC-pVDZ\C5H9N1O1\OHZDE\09-Apr-2025\0\\#t hf
 aug-cc-pvdz iop(5/13=1,5/36=2,99/5=2) pseudo=read geom=check guess=(re
 ad,tcheck) scf=(maxcycle=1)\\title\\0,1\C,0,1.23037034,-0.1111889,-2.0
 010524\N,0,0.76342659,0.29273866,-0.68884134\C,0,1.24462259,-0.4636380
 8,0.43011616\C,0,-0.16571418,-0.61531732,-0.04441644\C,0,-1.26594966,-
 0.04243245,0.74008995\O,0,-2.29815813,-0.76149197,0.99026143\C,0,-1.40
 067453,1.20205902,1.39885845\H,0,2.17613206,0.39053073,-2.20843591\H,0
 ,0.50289491,0.19905834,-2.75149415\H,0,1.38425338,-1.19682035,-2.08815

 Normal termination of Gaussian 16 at Wed Apr  9 17:53:51 2025.
