 Gaussian 16, Revision C.01,

 ----------------------------------------------------------------------
 #t hf aug-cc-pvdz symm=none int=(grid=ultrafine) guess=(read,tcheck) s
 table=(opt,rrhf)
 ----------------------------------------------------------------------
 -----
 title
 -----
 Symbolic Z-matrix:
 Charge =  0 Multiplicity = 1

 SCF Done:  E(RHF) =  -191.987212275     A.U. after   13 cycles
 Normal termination of Gaussian 16 at Wed Apr  9 15:49:33 2025.
 Gaussian 16:  ES64L-G16RevC.01  3-Jul-2019

 ----------------------------------------------------------------------
 #t hf aug-cc-pvdz iop(5/13=1,5/36=2,99/5=2) pseudo=read geom=check gue
 ss=(read,tcheck) scf=(maxcycle=1)
 ----------------------------------------------------------------------
 -----
 title
 -----
 Structure from the checkpoint file:  "Grambow2020_b97d3_006806_forward_mol2.chk"
 Charge =  0 Multiplicity = 1

                         Standard orientation:
 ---------------------------------------------------------------------
 Center     Atomic      Atomic             Coordinates (Angstroms)
 Number     Number       Type             X           Y           Z
 ---------------------------------------------------------------------
      1          6           0        1.290408   -0.619858    0.003053
      2          6           0        0.000010    0.190982   -0.000779
      3          8           0       -0.000992    1.412696    0.000147
      4          6           0       -1.289556   -0.621334   -0.003247
      5          1           0        2.151307    0.036490    0.168660
      6          1           0        1.261397   -1.405722    0.772481
      7          1           0        1.406558   -1.129235   -0.966662
      8          1           0       -1.412022   -1.114953    0.973844
      9          1           0       -2.149442    0.032375   -0.183846
     10          1           0       -1.255026   -1.419257   -0.759815
 ---------------------------------------------------------------------

 SCF Done:  E(RHF) =  -192.188393644     A.U. after    2 cycles

 The electronic state is 1-A.
 Alpha  occ. eigenvalues --  -20.53582 -11.34542 -11.25033 -11.25022  -1.46117
 Alpha  occ. eigenvalues --   -1.04702  -0.96738  -0.74974  -0.64846  -0.64162
 Alpha  occ. eigenvalues --   -0.62564  -0.56591  -0.56474  -0.54306  -0.48555
 Alpha  occ. eigenvalues --   -0.41109
 Alpha virt. eigenvalues --    0.03149   0.04220   0.04360   0.05646   0.07258
 Alpha virt. eigenvalues --    0.07286   0.09504   0.12593   0.12732   0.14495
 Alpha virt. eigenvalues --    0.15290   0.15415   0.15559   0.15942   0.17349

 Mulliken charges:
               1
     1  C   -0.447926
     2  C    0.923751
     3  O   -1.269593
     4  C   -0.446193
     5  H    0.126361
     6  H    0.240275
     7  H    0.253695
     8  H    0.254364
     9  H    0.127337
    10  H    0.237929
 Sum of Mulliken charges =  -0.00000

 Dipole moment (field-independent basis, Debye):
    X=              0.0024    Y=             -3.2974    Z=              0.0011  Tot=              3.2974

 Test job not archived.
 1\1\GINC-SE041\SP\RHF\Aug-CC-pVDZ\C3H6O1\OHZDE\09-Apr-2025\0\\#t hf au
 g-cc-pvdz iop(5/13=1,5/36=2,99/5=2) pseudo=read geom=check guess=(read
 ,tcheck) scf=(maxcycle=1)\\title\\0,1\C,0,-1.24334678,-0.11600387,0.35
 981844\C,0,0.00881688,0.65323368,-0.04386686\O,0,0.02492773,1.8718843,
 -0.12883115\C,0,1.23934583,-0.19679146,-0.3372947\H,0,-2.10832722,0.55
 498851,0.39053511\H,0,-1.43620994,-0.94895985,-0.33259122\H,0,-1.09572
 137,-0.55991886,1.35703866\H,0,1.08312782,-0.75408601,-1.27451538\H,0,
 2.12397444,0.44005246,-0.44320948\H,0,1.40341263,-0.9443989,0.45291659

 Normal termination of Gaussian 16 at Wed Apr  9 15:49:35 2025.
