 Gaussian 16, Revision C.01,

 ----------------------------------------------------------------------
 #t hf aug-cc-pvdz symm=none int=(grid=ultrafine) guess=(read,tcheck) s
 table=(opt,rrhf)
 ----------------------------------------------------------------------
 -----
 title
 -----
 Symbolic Z-matrix:
 Charge =  0 Multiplicity = 1

 SCF Done:  E(RHF) =  -191.977411248     A.U. after   14 cycles
 Normal termination of Gaussian 16 at Wed Apr  9 03:21:48 2025.
 Gaussian 16:  ES64L-G16RevC.01  3-Jul-2019

 ----------------------------------------------------------------------
 #t hf aug-cc-pvdz iop(5/13=1,5/36=2,99/5=2) pseudo=read geom=check gue
 ss=(read,tcheck) scf=(maxcycle=1)
 ----------------------------------------------------------------------
 -----
 title
 -----
 Structure from the checkpoint file:  "Grambow2020_wb97xd3_006100_reverse_mol2.chk"
 Charge =  0 Multiplicity = 1

                         Standard orientation:
 ---------------------------------------------------------------------
 Center     Atomic      Atomic             Coordinates (Angstroms)
 Number     Number       Type             X           Y           Z
 ---------------------------------------------------------------------
      1          6           0       -1.680844   -0.283193   -0.176767
      2          6           0       -0.470778    0.590248    0.148185
      3          6           0        0.779732   -0.230661    0.298732
      4          8           0        1.805137   -0.040079   -0.294105
      5          1           0       -2.591035    0.315478   -0.212136
      6          1           0       -1.823941   -1.060227    0.577640
      7          1           0       -1.562257   -0.772423   -1.145083
      8          1           0       -0.298995    1.350133   -0.615066
      9          1           0       -0.634200    1.101838    1.103813
     10          1           0        0.700673   -1.072525    1.022776
 ---------------------------------------------------------------------

 SCF Done:  E(RHF) =  -192.178803538     A.U. after    2 cycles

 The electronic state is 1-A.
 Alpha  occ. eigenvalues --  -20.54672 -11.34026 -11.25172 -11.24742  -1.48079
 Alpha  occ. eigenvalues --   -1.07464  -0.90962  -0.79998  -0.68028  -0.64865
 Alpha  occ. eigenvalues --   -0.62289  -0.57360  -0.54856  -0.52345  -0.49870
 Alpha  occ. eigenvalues --   -0.41431
 Alpha virt. eigenvalues --    0.03291   0.03937   0.04128   0.05318   0.07070
 Alpha virt. eigenvalues --    0.07400   0.10136   0.10969   0.12273   0.14090
 Alpha virt. eigenvalues --    0.15026   0.15418   0.15821   0.16459   0.16996

 Mulliken charges:
               1
     1  C   -0.324643
     2  C   -0.616789
     3  C    1.081721
     4  O   -1.096319
     5  H    0.120851
     6  H    0.153837
     7  H    0.172709
     8  H    0.112817
     9  H    0.261215
    10  H    0.134601
 Sum of Mulliken charges =  -0.00000

 Dipole moment (field-independent basis, Debye):
    X=             -2.9204    Y=             -0.1227    Z=              1.2023  Tot=              3.1606

 Test job not archived.
 1\1\GINC-SE132\SP\RHF\Aug-CC-pVDZ\C3H6O1\OHZDE\09-Apr-2025\0\\#t hf au
 g-cc-pvdz iop(5/13=1,5/36=2,99/5=2) pseudo=read geom=check guess=(read
 ,tcheck) scf=(maxcycle=1)\\title\\0,1\C,0,-1.13534993,0.28621847,0.012
 09902\C,0,0.13643107,-0.45574005,-0.39388656\C,0,1.33307277,0.03802818
 ,0.37068592\O,0,2.08412756,-0.65530754,0.9987276\H,0,-1.97978019,-0.03
 131286,-0.59963352\H,0,-1.02254012,1.36560506,-0.11274964\H,0,-1.38527
 196,0.09285452,1.05670162\H,0,0.04672764,-1.53222545,-0.24348633\H,0,0
 .34063304,-0.27867231,-1.456245\H,0,1.49287711,1.138829,0.32682289\\Ve

 Normal termination of Gaussian 16 at Wed Apr  9 03:21:51 2025.
