 Gaussian 16, Revision C.01,

 ----------------------------------------------------------------------
 #t hf aug-cc-pvdz symm=none int=(grid=ultrafine) guess=(read,tcheck) s
 table=(opt,rrhf)
 ----------------------------------------------------------------------
 -----
 title
 -----
 Symbolic Z-matrix:
 Charge =  0 Multiplicity = 1

 SCF Done:  E(RHF) =  -338.579370393     A.U. after   16 cycles
 Normal termination of Gaussian 16 at Wed Apr  9 19:05:51 2025.
 Gaussian 16:  ES64L-G16RevC.01  3-Jul-2019

 ----------------------------------------------------------------------
 #t hf aug-cc-pvdz iop(5/13=1,5/36=2,99/5=2) pseudo=read geom=check gue
 ss=(read,tcheck) scf=(maxcycle=1)
 ----------------------------------------------------------------------
 -----
 title
 -----
 Structure from the checkpoint file:  "Grambow2020_wb97xd3_008563_reverse_mol1.chk"
 Charge =  0 Multiplicity = 1

                         Standard orientation:
 ---------------------------------------------------------------------
 Center     Atomic      Atomic             Coordinates (Angstroms)
 Number     Number       Type             X           Y           Z
 ---------------------------------------------------------------------
      1          7           0       -2.079515    0.204506    0.696188
      2          6           0       -1.434978   -0.002538   -0.340605
      3          8           0        0.135738    1.193762   -0.676960
      4          6           0        1.020053    1.104519    0.258158
      5          6           0        1.830322   -0.491308    0.278550
      6          6           0        0.676353   -1.194134   -0.044951
      7          7           0       -0.431595   -1.315174   -0.391434
      8          1           0       -1.705149   -0.152781    1.564151
      9          1           0       -1.751717    0.182874   -1.355221
     10          1           0        0.655463    1.175854    1.301786
     11          1           0        1.926452    1.709906    0.120417
     12          1           0        2.569407   -0.506008   -0.518179
     13          1           0        2.246904   -0.684492    1.262536
 ---------------------------------------------------------------------

 SCF Done:  E(RHF) =  -338.924847702     A.U. after    2 cycles

 The electronic state is 1-A.
 Alpha  occ. eigenvalues --  -20.48124 -15.56891 -15.48147 -11.38680 -11.36932
 Alpha  occ. eigenvalues --  -11.32163 -11.29576  -1.40723  -1.31759  -1.22492
 Alpha  occ. eigenvalues --   -1.07830  -0.89514  -0.86571  -0.76972  -0.73301
 Alpha  occ. eigenvalues --   -0.69276  -0.68262  -0.65435  -0.62013  -0.58369
 Alpha  occ. eigenvalues --   -0.55539  -0.52426  -0.49680  -0.47367  -0.37580
 Alpha  occ. eigenvalues --   -0.36713
 Alpha virt. eigenvalues --    0.02577   0.03041   0.03825   0.04614   0.05412
 Alpha virt. eigenvalues --    0.06172   0.07302   0.08011   0.09754   0.10556
 Alpha virt. eigenvalues --    0.10630   0.12760   0.13235   0.13627   0.14345

 Mulliken charges:
               1
     1  N    0.832334
     2  C   -1.010785
     3  O   -1.171024
     4  C    0.694400
     5  C   -0.167902
     6  C   -0.971006
     7  N    1.043651
     8  H    0.172503
     9  H    0.035315
    10  H    0.172563
    11  H    0.020495
    12  H    0.166805
    13  H    0.182649
 Sum of Mulliken charges =  -0.00000

 Dipole moment (field-independent basis, Debye):
    X=              4.7249    Y=             -2.2758    Z=              1.4167  Tot=              5.4324

 Test job not archived.
 1\1\GINC-SE114\SP\RHF\Aug-CC-pVDZ\C4H6N2O1\OHZDE\09-Apr-2025\0\\#t hf
 aug-cc-pvdz iop(5/13=1,5/36=2,99/5=2) pseudo=read geom=check guess=(re
 ad,tcheck) scf=(maxcycle=1)\\title\\0,1\N,0,-1.62351177,0.96516245,-1.
 43389629\C,0,-1.45898629,0.89907041,-0.20841712\O,0,-0.90794007,-0.879
 16245,0.53026557\C,0,0.2207734,-1.27457242,0.0464481\C,0,1.589453,-0.2
 6046028,0.59590944\C,0,0.86490163,0.92378727,0.54255918\N,0,-0.0967993
 3,1.57677745,0.43775164\H,0,-0.80239109,1.05144163,-2.01654534\H,0,-2.
 21857925,0.94455723,0.55649777\H,0,0.34066847,-1.22293079,-1.05361215\

 Normal termination of Gaussian 16 at Wed Apr  9 19:05:56 2025.
