 Gaussian 16, Revision C.01,

 ----------------------------------------------------------------------
 #t hf aug-cc-pvdz symm=none int=(grid=ultrafine) guess=(read,tcheck) s
 table=(opt,rrhf)
 ----------------------------------------------------------------------
 -----
 title
 -----
 Symbolic Z-matrix:
 Charge =  0 Multiplicity = 1

 SCF Done:  E(RHF) =  -232.837340046     A.U. after   15 cycles
 Normal termination of Gaussian 16 at Wed Apr  9 15:40:00 2025.
 Gaussian 16:  ES64L-G16RevC.01  3-Jul-2019

 ----------------------------------------------------------------------
 #t hf aug-cc-pvdz iop(5/13=1,5/36=2,99/5=2) pseudo=read geom=check gue
 ss=(read,tcheck) scf=(maxcycle=1)
 ----------------------------------------------------------------------
 -----
 title
 -----
 Structure from the checkpoint file:  "Grambow2020_b97d3_006588_forward_mol1.chk"
 Charge =  0 Multiplicity = 1

                         Standard orientation:
 ---------------------------------------------------------------------
 Center     Atomic      Atomic             Coordinates (Angstroms)
 Number     Number       Type             X           Y           Z
 ---------------------------------------------------------------------
      1          6           0        2.006210   -1.387864   -0.027586
      2          6           0        0.755866    1.738652    0.004408
      3          6           0       -0.248784    0.850114    0.005494
      4          6           0       -0.849004   -0.017742    1.092546
      5          6           0       -0.928742   -1.122678   -0.004512
      6          6           0       -0.874293    0.002700   -1.082784
      7          1           0        2.236333   -0.779280    0.886920
      8          1           0        2.280120   -0.652668   -0.829380
      9          1           0        1.167915    2.132473   -0.926387
     10          1           0        1.185880    2.112954    0.935266
     11          1           0       -1.855495    0.327257    1.376864
     12          1           0       -0.256442   -0.201101    1.996979
     13          1           0       -1.776575   -1.819764   -0.000056
     14          1           0        0.039973   -1.687806   -0.025105
     15          1           0       -1.886576    0.353807   -1.337058
     16          1           0       -0.302647   -0.164964   -2.003433
 ---------------------------------------------------------------------

 SCF Done:  E(RHF) =  -233.086795284     A.U. after    2 cycles

 The electronic state is 1-A.
 Alpha  occ. eigenvalues --  -11.29482 -11.25273 -11.24057 -11.24027 -11.23874
 Alpha  occ. eigenvalues --  -11.23149  -1.15321  -0.98960  -0.91209  -0.88628
 Alpha  occ. eigenvalues --   -0.82814  -0.72481  -0.66075  -0.64182  -0.61314
 Alpha  occ. eigenvalues --   -0.55940  -0.54386  -0.51400  -0.48512  -0.48462
 Alpha  occ. eigenvalues --   -0.46648  -0.38547  -0.35891
 Alpha virt. eigenvalues --    0.02791   0.03719   0.03906   0.03985   0.05272
 Alpha virt. eigenvalues --    0.05903   0.06044   0.06970   0.07770   0.08619
 Alpha virt. eigenvalues --    0.09833   0.11571   0.11840   0.13212   0.13450

 Mulliken charges:
               1
     1  C   -0.563696
     2  C   -0.004334
     3  C    0.537675
     4  C   -0.289136
     5  C    0.103879
     6  C   -0.295258
     7  H    0.198759
     8  H    0.204116
     9  H   -0.145221
    10  H   -0.141752
    11  H    0.102414
    12  H   -0.010681
    13  H   -0.004979
    14  H    0.212784
    15  H    0.104894
    16  H   -0.009466
 Sum of Mulliken charges =   0.00000

 Dipole moment (field-independent basis, Debye):
    X=             -0.0066    Y=              1.1676    Z=              0.1249  Tot=              1.1742

 Test job not archived.
 1\1\GINC-SE114\SP\RHF\Aug-CC-pVDZ\C6H10\OHZDE\09-Apr-2025\0\\#t hf aug
 -cc-pvdz iop(5/13=1,5/36=2,99/5=2) pseudo=read geom=check guess=(read,
 tcheck) scf=(maxcycle=1)\\title\\0,1\C,0,-0.75826662,0.6625142,2.17204
 152\C,0,-1.61496283,-0.13201083,-0.9861686\C,0,-0.28272188,-0.20195274
 ,-0.84809023\C,0,0.63064426,-1.23752763,-0.22481941\C,0,1.43387386,-0.
 01926138,0.3242048\C,0,0.80420985,0.85185368,-0.80574747\H,0,-1.373447
 47,-0.26857101,2.05251753\H,0,-1.3531579,1.37562039,1.54275771\H,0,-2.
 10806359,0.78923153,-1.30147915\H,0,-2.25245307,-0.99931509,-0.8047826

 Normal termination of Gaussian 16 at Wed Apr  9 15:40:05 2025.
