 Gaussian 16, Revision C.01,

 ----------------------------------------------------------------------
 #t hf aug-cc-pvdz symm=none int=(grid=ultrafine) guess=(read,tcheck) s
 table=(opt,rrhf)
 ----------------------------------------------------------------------
 -----
 title
 -----
 Symbolic Z-matrix:
 Charge =  0 Multiplicity = 1

 SCF Done:  E(RHF) =  -302.670727890     A.U. after   17 cycles
 Normal termination of Gaussian 16 at Wed Apr  9 19:19:09 2025.
 Gaussian 16:  ES64L-G16RevC.01  3-Jul-2019

 ----------------------------------------------------------------------
 #t hf aug-cc-pvdz iop(5/13=1,5/36=2,99/5=2) pseudo=read geom=check gue
 ss=(read,tcheck) scf=(maxcycle=1)
 ----------------------------------------------------------------------
 -----
 title
 -----
 Structure from the checkpoint file:  "Grambow2020_wb97xd3_009324_forward_mol1.chk"
 Charge =  0 Multiplicity = 1

                         Standard orientation:
 ---------------------------------------------------------------------
 Center     Atomic      Atomic             Coordinates (Angstroms)
 Number     Number       Type             X           Y           Z
 ---------------------------------------------------------------------
      1          6           0        2.338104   -0.402417    0.129286
      2          7           0        0.928629   -0.106595   -0.005764
      3          6           0       -0.022550   -0.886094   -0.458447
      4          6           0       -1.210543   -0.127652   -0.334391
      5          6           0       -2.323742   -0.605539    0.282054
      6          6           0       -0.721579    1.222856   -0.186266
      7          7           0        0.541864    1.228333    0.062754
      8          1           0        2.711881    0.148304    0.986703
      9          1           0        2.868773   -0.104398   -0.776496
     10          1           0        2.454278   -1.469591    0.301599
     11          1           0        0.100599   -1.955864   -0.508353
     12          1           0        0.106237   -0.204618    2.120472
     13          1           0       -2.495477   -1.669146    0.383924
     14          1           0       -3.101147    0.061586    0.629211
     15          1           0       -1.296728    2.134640   -0.129413
 ---------------------------------------------------------------------

 SCF Done:  E(RHF) =  -302.986989784     A.U. after    2 cycles

 The electronic state is 1-A.
 Alpha  occ. eigenvalues --  -15.63991 -15.56311 -11.32682 -11.32252 -11.30338
 Alpha  occ. eigenvalues --  -11.29517 -11.27833  -1.41643  -1.19550  -1.13842
 Alpha  occ. eigenvalues --   -1.03602  -0.95029  -0.85716  -0.83525  -0.76278
 Alpha  occ. eigenvalues --   -0.70721  -0.67991  -0.66968  -0.65306  -0.60091
 Alpha  occ. eigenvalues --   -0.59569  -0.57971  -0.52809  -0.43941  -0.43129
 Alpha  occ. eigenvalues --   -0.21931
 Alpha virt. eigenvalues --   -0.00155   0.02881   0.03518   0.03814   0.04551
 Alpha virt. eigenvalues --    0.05381   0.06213   0.06970   0.08521   0.09217
 Alpha virt. eigenvalues --    0.10512   0.11357   0.12335   0.13066   0.13399

 Mulliken charges:
               1
     1  C   -0.086384
     2  N    0.010573
     3  C   -0.917372
     4  C    1.106036
     5  C    0.358153
     6  C   -0.954092
     7  N    0.877921
     8  H    0.192415
     9  H    0.264789
    10  H    0.138824
    11  H   -0.272412
    12  H   -0.481787
    13  H   -0.029188
    14  H   -0.027281
    15  H   -0.180194
 Sum of Mulliken charges =  -0.00000

 Dipole moment (field-independent basis, Debye):
    X=             -2.0224    Y=             -2.1641    Z=             -5.6428  Tot=              6.3729

 Test job not archived.
 1\1\GINC-SE113\SP\RHF\Aug-CC-pVDZ\C5H8N2\OHZDE\09-Apr-2025\0\\#t hf au
 g-cc-pvdz iop(5/13=1,5/36=2,99/5=2) pseudo=read geom=check guess=(read
 ,tcheck) scf=(maxcycle=1)\\title\\0,1\C,0,-2.24409821,-0.02430114,-0.4
 9585279\N,0,-0.89118834,0.10057916,0.00054279\C,0,-0.07115871,-0.85432
 45,0.36522569\C,0,1.12813676,-0.19365912,0.72182178\C,0,2.33923879,-0.
 55217382,0.21953378\C,0,0.70399492,1.17367482,0.90997148\N,0,-0.477069
 41,1.35745292,0.43076128\H,0,-2.41751809,0.78847282,-1.19405773\H,0,-2
 .95073445,0.02829954,0.33406517\H,0,-2.33819609,-0.97621009,-1.0126355

 Normal termination of Gaussian 16 at Wed Apr  9 19:19:14 2025.
