 Gaussian 16, Revision C.01,

 ----------------------------------------------------------------------
 #t hf aug-cc-pvdz symm=none int=(grid=ultrafine) guess=(read,tcheck) s
 table=(opt,rrhf)
 ----------------------------------------------------------------------
 -----
 title
 -----
 Symbolic Z-matrix:
 Charge =  0 Multiplicity = 1

 SCF Done:  E(RHF) =  -322.514795208     A.U. after   17 cycles
 Normal termination of Gaussian 16 at Wed Apr  9 18:21:23 2025.
 Gaussian 16:  ES64L-G16RevC.01  3-Jul-2019

 ----------------------------------------------------------------------
 #t hf aug-cc-pvdz iop(5/13=1,5/36=2,99/5=2) pseudo=read geom=check gue
 ss=(read,tcheck) scf=(maxcycle=1)
 ----------------------------------------------------------------------
 -----
 title
 -----
 Structure from the checkpoint file:  "Grambow2020_wb97xd3_007354_forward_mol1.chk"
 Charge =  0 Multiplicity = 1

                         Standard orientation:
 ---------------------------------------------------------------------
 Center     Atomic      Atomic             Coordinates (Angstroms)
 Number     Number       Type             X           Y           Z
 ---------------------------------------------------------------------
      1          8           0        0.853138    1.445038    0.280091
      2          6           0        1.000850    0.408644   -0.606783
      3          6           0        1.344335   -0.878221    0.084877
      4          7           0       -0.170384   -1.049312    0.147177
      5          6           0       -1.031977   -0.402742    0.945453
      6          6           0       -1.623659    0.418253   -0.179302
      7          6           0       -0.426093   -0.131472   -0.986264
      8          1           0        1.755735   -1.676977   -0.524799
      9          1           0        1.843015   -0.821515    1.056486
     10          1           0        1.007833    1.169598    1.198323
     11          1           0       -1.013567   -0.357653    2.024485
     12          1           0       -1.671876    1.492898   -0.023846
     13          1           0       -2.573717    0.055305   -0.575446
     14          1           0       -0.560579   -0.563555   -1.974058
 ---------------------------------------------------------------------

 SCF Done:  E(RHF) =  -322.845950821     A.U. after    2 cycles

 The electronic state is 1-A.
 Alpha  occ. eigenvalues --  -20.55151 -15.57915 -11.29835 -11.29709 -11.28416
 Alpha  occ. eigenvalues --  -11.25849 -11.25371  -1.46594  -1.33908  -1.07694
 Alpha  occ. eigenvalues --   -0.99511  -0.91025  -0.82775  -0.74725  -0.72337
 Alpha  occ. eigenvalues --   -0.71340  -0.66705  -0.65559  -0.59737  -0.55114
 Alpha  occ. eigenvalues --   -0.53589  -0.51735  -0.51165  -0.46394  -0.45039
 Alpha  occ. eigenvalues --   -0.24033
 Alpha virt. eigenvalues --    0.03139   0.03909   0.04175   0.04790   0.05360
 Alpha virt. eigenvalues --    0.05422   0.05607   0.07207   0.08992   0.10461
 Alpha virt. eigenvalues --    0.11482   0.12685   0.13693   0.13952   0.14539

 Mulliken charges:
               1
     1  O   -1.200349
     2  C    0.833633
     3  C   -0.151655
     4  N    0.669400
     5  C   -0.132129
     6  C    0.066499
     7  C   -0.101140
     8  H   -0.036296
     9  H   -0.024690
    10  H    0.288724
    11  H   -0.229940
    12  H    0.090798
    13  H    0.099060
    14  H   -0.171915
 Sum of Mulliken charges =   0.00000

 Dipole moment (field-independent basis, Debye):
    X=             -1.6130    Y=             -1.6518    Z=              2.0863  Tot=              3.1118

 Test job not archived.
 1\1\GINC-SE173\SP\RHF\Aug-CC-pVDZ\C5H7N1O1\OHZDE\09-Apr-2025\0\\#t hf
 aug-cc-pvdz iop(5/13=1,5/36=2,99/5=2) pseudo=read geom=check guess=(re
 ad,tcheck) scf=(maxcycle=1)\\title\\0,1\O,0,0.72527368,1.57524377,0.46
 244334\C,0,1.12898695,0.69263257,-0.50734484\C,0,1.55578864,-0.6237994
 ,0.07338139\N,0,0.08434382,-0.98469236,-0.10587063\C,0,-0.95462621,-0.
 56046891,0.6277611\C,0,-1.50438184,0.32555604,-0.46856178\C,0,-0.14788
 986,0.03861697,-1.15057692\H,0,2.14954161,-1.27771659,-0.5581372\H,0,1
 .91198479,-0.63741677,1.10723897\H,0,0.79681564,1.20025449,1.35531183\

 Normal termination of Gaussian 16 at Wed Apr  9 18:21:28 2025.
