 Gaussian 16, Revision C.01,

 ----------------------------------------------------------------------
 #t hf aug-cc-pvdz symm=none int=(grid=ultrafine) guess=(read,tcheck) s
 table=(opt,rrhf)
 ----------------------------------------------------------------------
 -----
 title
 -----
 Symbolic Z-matrix:
 Charge =  0 Multiplicity = 1

 SCF Done:  E(RHF) =  -301.932817953     A.U. after   15 cycles
 Normal termination of Gaussian 16 at Wed Apr  9 15:56:52 2025.
 Gaussian 16:  ES64L-G16RevC.01  3-Jul-2019

 ----------------------------------------------------------------------
 #t hf aug-cc-pvdz iop(5/13=1,5/36=2,99/5=2) pseudo=read geom=check gue
 ss=(read,tcheck) scf=(maxcycle=1)
 ----------------------------------------------------------------------
 -----
 title
 -----
 Structure from the checkpoint file:  "Grambow2020_b97d3_007041_reverse_mol2.chk"
 Charge =  0 Multiplicity = 1

                         Standard orientation:
 ---------------------------------------------------------------------
 Center     Atomic      Atomic             Coordinates (Angstroms)
 Number     Number       Type             X           Y           Z
 ---------------------------------------------------------------------
      1          6           0       -3.197422    0.194627    0.188494
      2          7           0        1.411503    0.459929   -0.454269
      3          6           0        0.633461    1.662682   -0.154310
      4          6           0        0.787967   -0.736755   -0.116602
      5          8           0        1.598282   -0.427697    0.905141
      6          7           0       -0.051959   -1.554334   -0.574707
      7          1           0       -3.419757   -0.350643    1.114258
      8          1           0       -2.853161    1.206645    0.438763
      9          1           0       -4.107509    0.263848   -0.419733
     10          1           0       -0.189778    1.501044    0.555561
     11          1           0        1.308950    2.449116    0.200395
     12          1           0        0.214785    1.969722   -1.125870
     13          1           0       -0.184572   -2.346684    0.063218
     14          1           0       -2.416049   -0.333956   -0.370379
 ---------------------------------------------------------------------

 SCF Done:  E(RHF) =  -302.243605813     A.U. after    2 cycles

 The electronic state is 1-A.
 Alpha  occ. eigenvalues --  -20.62767 -15.62412 -15.51299 -11.40633 -11.30279
 Alpha  occ. eigenvalues --  -11.22144  -1.55281  -1.23444  -1.19728  -0.97615
 Alpha  occ. eigenvalues --   -0.94246  -0.81343  -0.74565  -0.70897  -0.67905
 Alpha  occ. eigenvalues --   -0.64662  -0.58387  -0.54941  -0.54826  -0.54728
 Alpha  occ. eigenvalues --   -0.52744  -0.51505  -0.48825  -0.46688
 Alpha virt. eigenvalues --    0.03306   0.04187   0.04511   0.04632   0.06054
 Alpha virt. eigenvalues --    0.07186   0.08040   0.08373   0.09560   0.10194
 Alpha virt. eigenvalues --    0.11350   0.12657   0.13476   0.13924   0.14603

 Mulliken charges:
               1
     1  C   -0.301165
     2  N    0.649232
     3  C   -0.318937
     4  C   -0.492055
     5  O   -1.082952
     6  N    0.424818
     7  H    0.087035
     8  H    0.093332
     9  H    0.063168
    10  H    0.155179
    11  H    0.145420
    12  H    0.250955
    13  H    0.239741
    14  H    0.086230
 Sum of Mulliken charges =  -0.00000

 Dipole moment (field-independent basis, Debye):
    X=             -0.7226    Y=              1.6287    Z=              1.2147  Tot=              2.1565

 Test job not archived.
 1\1\GINC-SE113\SP\RHF\Aug-CC-pVDZ\C3H8N2O1\OHZDE\09-Apr-2025\0\\#t hf
 aug-cc-pvdz iop(5/13=1,5/36=2,99/5=2) pseudo=read geom=check guess=(re
 ad,tcheck) scf=(maxcycle=1)\\title\\0,1\C,0,-1.19385644,-1.07134343,1.
 98417675\N,0,0.80185506,0.69014845,-1.84204933\C,0,-0.40544749,1.30239
 399,-1.28570805\C,0,1.50605804,-0.1189915,-0.95646398\O,0,2.09321727,1
 .08521845,-0.92168614\N,0,1.50386922,-1.29460399,-0.50735087\H,0,-0.54
 4474,-0.91718769,2.85499716\H,0,-1.68109527,-0.12252478,1.72403685\H,0
 ,-1.96161481,-1.81481328,2.23073033\H,0,-0.44747922,1.29803813,-0.1875

 Normal termination of Gaussian 16 at Wed Apr  9 15:56:56 2025.
