 Gaussian 16, Revision C.01,

 ----------------------------------------------------------------------
 #t hf aug-cc-pvdz symm=none int=(grid=ultrafine) guess=(read,tcheck) s
 table=(opt,rrhf)
 ----------------------------------------------------------------------
 -----
 title
 -----
 Symbolic Z-matrix:
 Charge =  0 Multiplicity = 1

 SCF Done:  E(RHF) =  -338.702541418     A.U. after   14 cycles
 Normal termination of Gaussian 16 at Wed Apr  9 19:05:47 2025.
 Gaussian 16:  ES64L-G16RevC.01  3-Jul-2019

 ----------------------------------------------------------------------
 #t hf aug-cc-pvdz iop(5/13=1,5/36=2,99/5=2) pseudo=read geom=check gue
 ss=(read,tcheck) scf=(maxcycle=1)
 ----------------------------------------------------------------------
 -----
 title
 -----
 Structure from the checkpoint file:  "Grambow2020_wb97xd3_008558_reverse_mol2.chk"
 Charge =  0 Multiplicity = 1

                         Standard orientation:
 ---------------------------------------------------------------------
 Center     Atomic      Atomic             Coordinates (Angstroms)
 Number     Number       Type             X           Y           Z
 ---------------------------------------------------------------------
      1          7           0       -2.015947    1.142276   -0.082839
      2          6           0       -2.309038   -0.122451    0.205785
      3          8           0       -1.324178   -0.993903   -0.025456
      4          6           0       -0.033422   -0.644425   -0.519716
      5          6           0        0.873122   -0.208103    0.633766
      6          6           0        2.196723    0.169999    0.149963
      7          7           0        3.222886    0.470640   -0.264436
      8          1           0       -1.158594    1.503300   -0.481408
      9          1           0       -2.750516    1.811360    0.058668
     10          1           0       -0.080625    0.116148   -1.303756
     11          1           0        0.358146   -1.551222   -0.977714
     12          1           0        0.441856    0.638087    1.171961
     13          1           0        0.970282   -1.026980    1.348036
 ---------------------------------------------------------------------

 SCF Done:  E(RHF) =  -339.042027338     A.U. after    2 cycles

 The electronic state is 1-A.
 Alpha  occ. eigenvalues --  -20.59952 -15.55144 -15.52623 -11.33449 -11.32049
 Alpha  occ. eigenvalues --  -11.30839 -11.29441  -1.53186  -1.25221  -1.24805
 Alpha  occ. eigenvalues --   -1.10710  -0.95968  -0.86120  -0.79777  -0.75486
 Alpha  occ. eigenvalues --   -0.71614  -0.69418  -0.65296  -0.61771  -0.61067
 Alpha  occ. eigenvalues --   -0.57319  -0.53601  -0.51751  -0.50694  -0.47862
 Alpha  occ. eigenvalues --   -0.38383
 Alpha virt. eigenvalues --    0.02414   0.03813   0.04069   0.05101   0.05872
 Alpha virt. eigenvalues --    0.06835   0.08004   0.10203   0.10211   0.11564
 Alpha virt. eigenvalues --    0.12294   0.13305   0.13402   0.14158   0.14619

 Mulliken charges:
               1
     1  N    0.612231
     2  C   -0.283790
     3  O   -1.116083
     4  C    0.577768
     5  C   -0.018546
     6  C   -1.603262
     7  N    0.953476
     8  H    0.010603
     9  H    0.115898
    10  H    0.220606
    11  H   -0.008975
    12  H    0.256979
    13  H    0.283095
 Sum of Mulliken charges =  -0.00000

 Dipole moment (field-independent basis, Debye):
    X=             -1.5231    Y=              1.4401    Z=              0.0967  Tot=              2.0984

 Test job not archived.
 1\1\GINC-SE174\SP\RHF\Aug-CC-pVDZ\C4H6N2O1\OHZDE\09-Apr-2025\0\\#t hf
 aug-cc-pvdz iop(5/13=1,5/36=2,99/5=2) pseudo=read geom=check guess=(re
 ad,tcheck) scf=(maxcycle=1)\\title\\0,1\N,0,-2.12121569,0.37106782,-0.
 20098457\C,0,-2.00209458,-0.90773812,0.14427898\O,0,-0.77776231,-1.418
 53496,-0.00720094\C,0,0.35249413,-0.68670966,-0.47563814\C,0,1.0108223
 4,0.06635798,0.68290041\C,0,2.16231042,0.83634364,0.22448648\N,0,3.054
 53223,1.43884617,-0.1705489\H,0,-1.40882519,0.97614488,-0.58909672\H,0
 ,-3.03907433,0.76887901,-0.11991963\H,0,0.0996965,-0.01450166,-1.30004

 Normal termination of Gaussian 16 at Wed Apr  9 19:05:51 2025.
