 Gaussian 16, Revision C.01,

 ----------------------------------------------------------------------
 #t hf aug-cc-pvdz symm=none int=(grid=ultrafine) guess=(read,tcheck) s
 table=(opt,rrhf)
 ----------------------------------------------------------------------
 -----
 title
 -----
 Symbolic Z-matrix:
 Charge =  0 Multiplicity = 1

 SCF Done:  E(RHF) =  -307.909799884     A.U. after   13 cycles

 1\1\GINC-SE329\Stability\RHF\Aug-CC-pVDZ\C6H10O1\OHZDE\09-Apr-2025\0\\
 #t hf aug-cc-pvdz symm=none int=(grid=ultrafine) guess=(read,tcheck) s
 table=(opt,rrhf)\\title\\0,1\C,0,1.87219031,-0.54483787,0.08530207\C,0
 ,0.55900936,0.09688263,0.49473095\C,0,0.11741357,1.29602174,-0.3649498
 5\C,0,-1.38360445,1.21604079,-0.31527122\C,0,-1.80802854,0.06479545,0.
 19132603\C,0,-0.65896481,-0.8596605,0.49928834\O,0,-0.58825115,-1.9179
 8389,-0.44830749\H,0,1.82243052,-0.93342396,-0.93320097\H,0,2.68809476
 ,0.17968997,0.13288819\H,0,2.12386856,-1.38083422,0.74031246\H,0,0.650

 Normal termination of Gaussian 16 at Wed Apr  9 03:45:41 2025.
 Gaussian 16:  ES64L-G16RevC.01  3-Jul-2019

 ----------------------------------------------------------------------
 #t hf aug-cc-pvdz iop(5/13=1,5/36=2,99/5=2) pseudo=read geom=check gue
 ss=(read,tcheck) scf=(maxcycle=1)
 ----------------------------------------------------------------------
 -----
 title
 -----
 Structure from the checkpoint file:  "Grambow2020_wb97xd3_007813_forward_mol2.chk"
 Charge =  0 Multiplicity = 1

                         Standard orientation:
 ---------------------------------------------------------------------
 Center     Atomic      Atomic             Coordinates (Angstroms)
 Number     Number       Type             X           Y           Z
 ---------------------------------------------------------------------
      1          6           0       -2.062274   -0.453355   -0.036116
      2          6           0       -0.632256   -0.500235    0.470571
      3          6           0        0.308858   -1.441612   -0.304094
      4          6           0        1.645072   -0.761997   -0.183362
      5          6           0        1.537878    0.475477    0.284944
      6          6           0        0.096966    0.865927    0.487739
      7          8           0       -0.329071    1.780730   -0.514566
      8          1           0       -2.105081   -0.104482   -1.069208
      9          1           0       -2.520554   -1.443816    0.007133
     10          1           0       -2.670732    0.227049    0.562299
     11          1           0       -0.638274   -0.843958    1.509994
     12          1           0        0.018226   -1.541711   -1.356866
     13          1           0        0.312061   -2.452437    0.110489
     14          1           0        2.576722   -1.238192   -0.466034
     15          1           0        2.355525    1.170540    0.431031
     16          1           0       -0.082584    1.391882    1.427454
     17          1           0        0.021797    1.484051   -1.357857
 ---------------------------------------------------------------------

 SCF Done:  E(RHF) =  -308.237328005     A.U. after    2 cycles

 The electronic state is 1-A.
 Alpha  occ. eigenvalues --  -20.54135 -11.28295 -11.24276 -11.23476 -11.23150
 Alpha  occ. eigenvalues --  -11.23120 -11.21928  -1.44525  -1.14171  -1.02009
 Alpha  occ. eigenvalues --   -0.95401  -0.90134  -0.78062  -0.75475  -0.70372
 Alpha  occ. eigenvalues --   -0.65105  -0.63112  -0.59645  -0.57717  -0.56482
 Alpha  occ. eigenvalues --   -0.54369  -0.51606  -0.49131  -0.48435  -0.47236
 Alpha  occ. eigenvalues --   -0.42321  -0.36957
 Alpha virt. eigenvalues --    0.03373   0.03728   0.03812   0.04366   0.05563
 Alpha virt. eigenvalues --    0.06015   0.06330   0.06916   0.07979   0.09106
 Alpha virt. eigenvalues --    0.11994   0.12489   0.13605   0.14397   0.14696

 Mulliken charges:
               1
     1  C   -0.030180
     2  C   -1.091495
     3  C   -0.329201
     4  C    0.375608
     5  C    0.243733
     6  C    1.003839
     7  O   -1.357768
     8  H    0.210778
     9  H    0.163889
    10  H    0.161210
    11  H    0.153729
    12  H    0.172501
    13  H    0.146087
    14  H   -0.105438
    15  H   -0.108294
    16  H    0.096496
    17  H    0.294507
 Sum of Mulliken charges =  -0.00000

 Dipole moment (field-independent basis, Debye):
    X=              0.8180    Y=             -1.6316    Z=             -0.2316  Tot=              1.8398

 Test job not archived.
 1\1\GINC-SE329\SP\RHF\Aug-CC-pVDZ\C6H10O1\OHZDE\09-Apr-2025\0\\#t hf a
 ug-cc-pvdz iop(5/13=1,5/36=2,99/5=2) pseudo=read geom=check guess=(rea
 d,tcheck) scf=(maxcycle=1)\\title\\0,1\C,0,1.87219031,-0.54483787,0.08
 530207\C,0,0.55900936,0.09688263,0.49473095\C,0,0.11741357,1.29602174,
 -0.36494985\C,0,-1.38360445,1.21604079,-0.31527122\C,0,-1.80802854,0.0
 6479545,0.19132603\C,0,-0.65896481,-0.8596605,0.49928834\O,0,-0.588251
 15,-1.91798389,-0.44830749\H,0,1.82243052,-0.93342396,-0.93320097\H,0,
 2.68809476,0.17968997,0.13288819\H,0,2.12386856,-1.38083422,0.74031246

 Normal termination of Gaussian 16 at Wed Apr  9 03:45:47 2025.
