 Gaussian 16, Revision C.01,

 ----------------------------------------------------------------------
 #t hf aug-cc-pvdz symm=none int=(grid=ultrafine) guess=(read,tcheck) s
 table=(opt,rrhf)
 ----------------------------------------------------------------------
 -----
 title
 -----
 Symbolic Z-matrix:
 Charge =  0 Multiplicity = 1

 SCF Done:  E(RHF) =  -184.502832619     A.U. after   15 cycles
 Normal termination of Gaussian 16 at Wed Apr  9 15:50:30 2025.
 Gaussian 16:  ES64L-G16RevC.01  3-Jul-2019

 ----------------------------------------------------------------------
 #t hf aug-cc-pvdz iop(5/13=1,5/36=2,99/5=2) pseudo=read geom=check gue
 ss=(read,tcheck) scf=(maxcycle=1)
 ----------------------------------------------------------------------
 -----
 title
 -----
 Structure from the checkpoint file:  "Grambow2020_b97d3_006824_forward_mol1.chk"
 Charge =  0 Multiplicity = 1

                         Standard orientation:
 ---------------------------------------------------------------------
 Center     Atomic      Atomic             Coordinates (Angstroms)
 Number     Number       Type             X           Y           Z
 ---------------------------------------------------------------------
      1          7           0       -1.070743   -0.579384   -0.000020
      2          6           0       -1.002320    0.643049   -0.000068
      3          6           0        0.409859    0.112227    0.000202
      4          7           0        1.578567   -0.067995   -0.000095
 ---------------------------------------------------------------------

 SCF Done:  E(RHF) =  -184.675893243     A.U. after    2 cycles

 The electronic state is 1-A.
 Alpha  occ. eigenvalues --  -15.66477 -15.58445 -11.38067 -11.38032  -1.41088
 Alpha  occ. eigenvalues --   -1.26501  -0.85341  -0.76734  -0.66636  -0.65690
 Alpha  occ. eigenvalues --   -0.61803  -0.52787  -0.49860
 Alpha virt. eigenvalues --   -0.02618   0.04761   0.05721   0.07525   0.08457
 Alpha virt. eigenvalues --    0.11083   0.11647   0.12297   0.13136   0.16145
 Alpha virt. eigenvalues --    0.16407   0.19666   0.20143   0.21321   0.22278

 Mulliken charges:
               1
     1  N    0.378312
     2  C   -0.248124
     3  C   -0.658600
     4  N    0.528412
 Sum of Mulliken charges =  -0.00000

 Dipole moment (field-independent basis, Debye):
    X=             -2.4201    Y=              0.7263    Z=              0.0005  Tot=              2.5267

 Test job not archived.
 1\1\GINC-SE168\SP\RHF\Aug-CC-pVDZ\C2N2\OHZDE\09-Apr-2025\0\\#t hf aug-
 cc-pvdz iop(5/13=1,5/36=2,99/5=2) pseudo=read geom=check guess=(read,t
 check) scf=(maxcycle=1)\\title\\0,1\N,0,-1.10354476,0.01220571,-0.4827
 0026\C,0,-0.90497087,0.07448946,0.72382902\C,0,0.43352892,0.20043011,0
 .03930043\N,0,1.56896071,0.31682372,-0.26989919\\Version=ES64L-G16RevC
 .01\State=1-A\HF=-184.6758932\RMSD=1.911e-02\Dipole=-0.9101356,-0.0885
 282,0.3898971\Quadrupole=-1.6594431,1.3789043,0.2805388,-0.3351733,0.2
 252492,-0.0127771\PG=C01 [X(C2N2)]\\@

 Normal termination of Gaussian 16 at Wed Apr  9 15:50:32 2025.
