 Gaussian 16, Revision C.01,

 ----------------------------------------------------------------------
 #t hf aug-cc-pvdz symm=none int=(grid=ultrafine) guess=(read,tcheck) s
 table=(opt,rrhf)
 ----------------------------------------------------------------------
 -----
 title
 -----
 Symbolic Z-matrix:
 Charge =  0 Multiplicity = 1

 SCF Done:  E(RHF) =  -358.406277610     A.U. after   19 cycles
 Normal termination of Gaussian 16 at Wed Apr  9 17:44:22 2025.
 Gaussian 16:  ES64L-G16RevC.01  3-Jul-2019

 ----------------------------------------------------------------------
 #t hf aug-cc-pvdz iop(5/13=1,5/36=2,99/5=2) pseudo=read geom=check gue
 ss=(read,tcheck) scf=(maxcycle=1)
 ----------------------------------------------------------------------
 -----
 title
 -----
 Structure from the checkpoint file:  "Grambow2020_wb97xd3_006799_forward_mol1.chk"
 Charge =  0 Multiplicity = 1

                         Standard orientation:
 ---------------------------------------------------------------------
 Center     Atomic      Atomic             Coordinates (Angstroms)
 Number     Number       Type             X           Y           Z
 ---------------------------------------------------------------------
      1          8           0        0.876792   -1.409211    0.029505
      2          6           0        1.713856   -0.544484   -0.238962
      3          6           0        1.535558    0.823139   -0.058561
      4          6           0        0.098143    1.271471   -0.042350
      5          7           0       -0.429181    0.278191    0.769319
      6          6           0       -1.507648   -0.457697    0.254503
      7          8           0       -2.265217   -0.019194   -0.571538
      8          1           0        2.617808   -0.834461   -0.798653
      9          1           0        2.353926    1.528561   -0.015973
     10          1           0       -0.377291    1.444836   -1.013015
     11          1           0        0.128613    2.207663    0.532833
     12          1           0       -1.650834   -1.421272    0.758055
 ---------------------------------------------------------------------

 SCF Done:  E(RHF) =  -358.757604145     A.U. after    2 cycles

 The electronic state is 1-A.
 Alpha  occ. eigenvalues --  -20.56734 -20.55244 -15.57967 -11.36938 -11.34423
 Alpha  occ. eigenvalues --  -11.30614 -11.29888  -1.49547  -1.48287  -1.25643
 Alpha  occ. eigenvalues --   -1.07737  -0.95888  -0.83434  -0.78147  -0.73805
 Alpha  occ. eigenvalues --   -0.72847  -0.67731  -0.65798  -0.62289  -0.59413
 Alpha  occ. eigenvalues --   -0.55549  -0.54074  -0.51662  -0.45268  -0.43948
 Alpha  occ. eigenvalues --   -0.34078
 Alpha virt. eigenvalues --   -0.05296   0.02719   0.03890   0.04822   0.05375
 Alpha virt. eigenvalues --    0.05876   0.09439   0.09659   0.09830   0.10776
 Alpha virt. eigenvalues --    0.12563   0.13339   0.13720   0.14225   0.14751

 Mulliken charges:
               1
     1  O   -1.122190
     2  C    0.976079
     3  C    0.373084
     4  C   -0.807928
     5  N    0.519945
     6  C    0.695625
     7  O   -1.035261
     8  H    0.095090
     9  H   -0.138262
    10  H    0.069330
    11  H    0.235171
    12  H    0.139319
 Sum of Mulliken charges =  -0.00000

 Dipole moment (field-independent basis, Debye):
    X=              3.8211    Y=              2.2286    Z=             -0.3571  Tot=              4.4379

 Test job not archived.
 1\1\GINC-SE226\SP\RHF\Aug-CC-pVDZ\C4H5N1O2\OHZDE\09-Apr-2025\0\\#t hf
 aug-cc-pvdz iop(5/13=1,5/36=2,99/5=2) pseudo=read geom=check guess=(re
 ad,tcheck) scf=(maxcycle=1)\\title\\0,1\O,0,1.14261461,-1.26265704,-0.
 4565577\C,0,1.59777262,-0.11755412,-0.50209564\C,0,1.00731535,1.000341
 6,0.07790237\C,0,-0.47815066,0.88343837,0.295046\N,0,-0.52130646,-0.40
 490295,0.80670758\C,0,-1.36058894,-1.32064314,0.15349736\O,0,-2.334401
 3,-0.98735687,-0.47032004\H,0,2.45280467,0.08921436,-1.16590156\H,0,1.
 54388666,1.91619669,0.28395953\H,0,-1.12302184,1.1167806,-0.55816861\H

 Normal termination of Gaussian 16 at Wed Apr  9 17:44:26 2025.
