 Gaussian 16, Revision C.01,

 ----------------------------------------------------------------------
 #t hf aug-cc-pvdz symm=none int=(grid=ultrafine) guess=(read,tcheck) s
 table=(opt,rrhf)
 ----------------------------------------------------------------------
 -----
 title
 -----
 Symbolic Z-matrix:
 Charge =  0 Multiplicity = 1

 SCF Done:  E(RHF) =  -358.418616954     A.U. after   17 cycles
 Normal termination of Gaussian 16 at Wed Apr  9 17:41:20 2025.
 Gaussian 16:  ES64L-G16RevC.01  3-Jul-2019

 ----------------------------------------------------------------------
 #t hf aug-cc-pvdz iop(5/13=1,5/36=2,99/5=2) pseudo=read geom=check gue
 ss=(read,tcheck) scf=(maxcycle=1)
 ----------------------------------------------------------------------
 -----
 title
 -----
 Structure from the checkpoint file:  "Grambow2020_wb97xd3_006775_reverse_mol1.chk"
 Charge =  0 Multiplicity = 1

                         Standard orientation:
 ---------------------------------------------------------------------
 Center     Atomic      Atomic             Coordinates (Angstroms)
 Number     Number       Type             X           Y           Z
 ---------------------------------------------------------------------
      1          8           0       -2.961592   -0.227131    0.092711
      2          6           0       -1.802416   -0.441856   -0.105320
      3          6           0       -0.751245    0.652440   -0.097723
      4          6           0        0.586448    0.292736    0.757932
      5          7           0        0.360066    0.549307   -0.836727
      6          6           0        1.719931   -0.532955   -0.003242
      7          8           0        2.838900   -0.139805   -0.057837
      8          1           0       -1.415695   -1.449543   -0.371219
      9          1           0       -1.143552    1.632036    0.209354
     10          1           0        0.165462   -0.512661    1.371527
     11          1           0        0.950254    1.145538    1.316122
     12          1           0        1.388299   -1.547227   -0.257574
 ---------------------------------------------------------------------

 SCF Done:  E(RHF) =  -358.774129843     A.U. after    2 cycles

 The electronic state is 1-A.
 Alpha  occ. eigenvalues --  -20.58645 -20.55502 -15.54370 -11.39580 -11.37358
 Alpha  occ. eigenvalues --  -11.34470 -11.33454  -1.52009  -1.50544  -1.30633
 Alpha  occ. eigenvalues --   -1.00733  -0.96308  -0.87478  -0.80736  -0.73667
 Alpha  occ. eigenvalues --   -0.71343  -0.68159  -0.65120  -0.63631  -0.62546
 Alpha  occ. eigenvalues --   -0.60130  -0.56130  -0.50819  -0.47920  -0.42972
 Alpha  occ. eigenvalues --   -0.42120
 Alpha virt. eigenvalues --    0.02527   0.03350   0.04110   0.05308   0.05686
 Alpha virt. eigenvalues --    0.05973   0.08656   0.09471   0.09765   0.10546
 Alpha virt. eigenvalues --    0.11313   0.13089   0.13371   0.14017   0.14275

 Mulliken charges:
               1
     1  O   -1.113290
     2  C    1.050572
     3  C   -1.065532
     4  C   -0.166156
     5  N    0.616053
     6  C    1.234544
     7  O   -1.168828
     8  H    0.138687
     9  H   -0.003803
    10  H    0.371472
    11  H   -0.009058
    12  H    0.115337
 Sum of Mulliken charges =  -0.00000

 Dipole moment (field-independent basis, Debye):
    X=             -1.1886    Y=             -1.3542    Z=              2.4702  Tot=              3.0576

 Test job not archived.
 1\1\GINC-SE174\SP\RHF\Aug-CC-pVDZ\C4H5N1O2\OHZDE\09-Apr-2025\0\\#t hf
 aug-cc-pvdz iop(5/13=1,5/36=2,99/5=2) pseudo=read geom=check guess=(re
 ad,tcheck) scf=(maxcycle=1)\\title\\0,1\O,0,2.94015537,0.00727857,-0.3
 7270859\C,0,1.80286969,-0.35587985,-0.31180059\C,0,0.78978941,0.270332
 13,0.62842734\C,0,-0.64162679,0.62103846,-0.06367561\N,0,-0.23890349,-
 0.43878916,1.10875428\C,0,-1.71140866,-0.56100936,-0.1289904\O,0,-2.80
 601829,-0.42821493,0.31127488\H,0,1.41702484,-1.22044443,-0.89432943\H
 ,0,1.17596045,1.14950343,1.16297196\H,0,-0.31256614,0.61724794,-1.1096

 Normal termination of Gaussian 16 at Wed Apr  9 17:41:24 2025.
