 Gaussian 16, Revision C.01,

 ----------------------------------------------------------------------
 #t hf aug-cc-pvdz symm=none int=(grid=ultrafine) guess=(read,tcheck) s
 table=(opt,rrhf)
 ----------------------------------------------------------------------
 -----
 title
 -----
 Symbolic Z-matrix:
 Charge =  0 Multiplicity = 1

 SCF Done:  E(RHF) =  -306.423123785     A.U. after   19 cycles
 Normal termination of Gaussian 16 at Wed Apr  9 03:51:54 2025.
 Gaussian 16:  ES64L-G16RevC.01  3-Jul-2019

 ----------------------------------------------------------------------
 #t hf aug-cc-pvdz iop(5/13=1,5/36=2,99/5=2) pseudo=read geom=check gue
 ss=(read,tcheck) scf=(maxcycle=1)
 ----------------------------------------------------------------------
 -----
 title
 -----
 Structure from the checkpoint file:  "Grambow2020_wb97xd3_008173_forward_mol1.chk"
 Charge =  0 Multiplicity = 1

                         Standard orientation:
 ---------------------------------------------------------------------
 Center     Atomic      Atomic             Coordinates (Angstroms)
 Number     Number       Type             X           Y           Z
 ---------------------------------------------------------------------
      1          6           0       -1.084331   -1.126848   -0.406085
      2          6           0       -0.103725   -0.767870    0.732403
      3          8           0        1.165479   -0.942017    0.085797
      4          6           0        1.712564    0.144428   -0.361374
      5          6           0        0.198495    1.692690    0.016160
      6          6           0       -0.660763    0.704582    0.688486
      7          6           0       -1.136761    0.338011   -0.680324
      8          1           0       -0.729914   -1.838838   -1.155001
      9          1           0       -2.025716   -1.484844    0.027012
     10          1           0       -0.102933   -1.332797    1.660898
     11          1           0        2.366193   -0.167110   -1.205923
     12          1           0        1.075062    2.165396    0.421203
     13          1           0       -0.411307    2.403814   -0.543323
     14          1           0       -1.309843    0.958585    1.535973
     15          1           0       -1.738252    0.921969   -1.362809
 ---------------------------------------------------------------------

 SCF Done:  E(RHF) =  -306.738590979     A.U. after    2 cycles

 The electronic state is 1-A.
 Alpha  occ. eigenvalues --  -20.59574 -11.30737 -11.29697 -11.28021 -11.25250
 Alpha  occ. eigenvalues --  -11.24936 -11.24003  -1.53545  -1.16974  -1.01157
 Alpha  occ. eigenvalues --   -0.92854  -0.83949  -0.81609  -0.73083  -0.71611
 Alpha  occ. eigenvalues --   -0.67132  -0.63821  -0.61847  -0.59305  -0.56023
 Alpha  occ. eigenvalues --   -0.54332  -0.47921  -0.47663  -0.44800  -0.37990
 Alpha  occ. eigenvalues --   -0.24758
 Alpha virt. eigenvalues --    0.03162   0.03772   0.03894   0.04232   0.05651
 Alpha virt. eigenvalues --    0.05781   0.06413   0.07034   0.08007   0.10222
 Alpha virt. eigenvalues --    0.12123   0.12580   0.12874   0.13354   0.13882

 Mulliken charges:
               1
     1  C   -0.331008
     2  C    1.266869
     3  O   -1.289405
     4  C    0.142699
     5  C    0.188481
     6  C    0.057811
     7  C    0.288153
     8  H    0.024836
     9  H    0.133097
    10  H   -0.048787
    11  H    0.006337
    12  H   -0.053049
    13  H    0.008146
    14  H   -0.121855
    15  H   -0.272325
 Sum of Mulliken charges =  -0.00000

 Dipole moment (field-independent basis, Debye):
    X=             -0.9956    Y=             -0.3331    Z=              0.7515  Tot=              1.2911

 Test job not archived.
 1\1\GINC-SE045\SP\RHF\Aug-CC-pVDZ\C6H8O1\OHZDE\09-Apr-2025\0\\#t hf au
 g-cc-pvdz iop(5/13=1,5/36=2,99/5=2) pseudo=read geom=check guess=(read
 ,tcheck) scf=(maxcycle=1)\\title\\0,1\C,0,-1.53174575,0.016891,-0.3625
 5423\C,0,-0.67147979,-0.52010548,0.80285777\O,0,-0.09784012,-1.6987833
 3,0.21893857\C,0,1.10399293,-1.55786614,-0.2451359\C,0,1.52002808,0.58
 579048,0.00725472\C,0,0.22321503,0.77004138,0.67884296\C,0,-0.35808451
 ,0.8749072,-0.69435895\H,0,-1.92119066,-0.72095421,-1.06777359\H,0,-2.
 35837392,0.61222507,0.04266473\H,0,-1.12962764,-0.78791819,1.75134245\

 Normal termination of Gaussian 16 at Wed Apr  9 03:52:01 2025.
