 Gaussian 16, Revision C.01,

 ----------------------------------------------------------------------
 #t hf aug-cc-pvdz symm=none int=(grid=ultrafine) guess=(read,tcheck) s
 table=(opt,rrhf)
 ----------------------------------------------------------------------
 -----
 title
 -----
 Symbolic Z-matrix:
 Charge =  0 Multiplicity = 1

 SCF Done:  E(RHF) =  -359.689346940     A.U. after   14 cycles
 Normal termination of Gaussian 16 at Wed Apr  9 03:52:41 2025.
 Gaussian 16:  ES64L-G16RevC.01  3-Jul-2019

 ----------------------------------------------------------------------
 #t hf aug-cc-pvdz iop(5/13=1,5/36=2,99/5=2) pseudo=read geom=check gue
 ss=(read,tcheck) scf=(maxcycle=1)
 ----------------------------------------------------------------------
 -----
 title
 -----
 Structure from the checkpoint file:  "Grambow2020_wb97xd3_008265_forward_mol1.chk"
 Charge =  0 Multiplicity = 1

                         Standard orientation:
 ---------------------------------------------------------------------
 Center     Atomic      Atomic             Coordinates (Angstroms)
 Number     Number       Type             X           Y           Z
 ---------------------------------------------------------------------
      1          6           0        2.294579   -0.490509   -0.338745
      2          6           0        1.073820   -0.044021    0.422330
      3          6           0        0.476729    1.323844   -0.015962
      4          7           0       -0.942351    1.026530   -0.017696
      5          6           0       -1.087326   -0.267297    0.025347
      6          8           0       -2.288140   -0.611898   -0.180623
      7          8           0       -0.013253   -1.004874    0.215885
      8          1           0        2.082390   -0.549491   -1.407316
      9          1           0        2.635763   -1.466702    0.005819
     10          1           0        3.102027    0.228415   -0.185025
     11          1           0        1.266897   -0.044525    1.497898
     12          1           0        0.837073    1.614765   -1.008990
     13          1           0        0.741912    2.112541    0.689148
     14          1           0       -2.205273    0.721354   -0.307576
 ---------------------------------------------------------------------

 SCF Done:  E(RHF) =  -360.055416540     A.U. after    2 cycles

 The electronic state is 1-A.
 Alpha  occ. eigenvalues --  -20.60906 -20.54539 -15.49267 -11.40525 -11.32694
 Alpha  occ. eigenvalues --  -11.29160 -11.25233  -1.56946  -1.48269  -1.23824
 Alpha  occ. eigenvalues --   -1.08140  -0.96804  -0.87617  -0.80543  -0.73418
 Alpha  occ. eigenvalues --   -0.73283  -0.66652  -0.63515  -0.61167  -0.60454
 Alpha  occ. eigenvalues --   -0.58148  -0.56384  -0.54688  -0.52460  -0.47915
 Alpha  occ. eigenvalues --   -0.46464  -0.40789
 Alpha virt. eigenvalues --    0.03002   0.03825   0.03946   0.04683   0.06062
 Alpha virt. eigenvalues --    0.06693   0.06982   0.09968   0.10099   0.11771
 Alpha virt. eigenvalues --    0.12672   0.13205   0.14516   0.14861   0.15240

 Mulliken charges:
               1
     1  C   -0.280854
     2  C    0.401243
     3  C   -0.528458
     4  N    0.587335
     5  C    1.110987
     6  O   -1.269493
     7  O   -1.265884
     8  H    0.197923
     9  H    0.164592
    10  H    0.233447
    11  H    0.061625
    12  H    0.048784
    13  H    0.101566
    14  H    0.437188
 Sum of Mulliken charges =  -0.00000

 Dipole moment (field-independent basis, Debye):
    X=              3.9083    Y=              1.4323    Z=              0.1940  Tot=              4.1670

 Test job not archived.
 1\1\GINC-SE116\SP\RHF\Aug-CC-pVDZ\C4H7N1O2\OHZDE\09-Apr-2025\0\\#t hf
 aug-cc-pvdz iop(5/13=1,5/36=2,99/5=2) pseudo=read geom=check guess=(re
 ad,tcheck) scf=(maxcycle=1)\\title\\0,1\C,0,-1.62991193,-0.92610956,-0
 .04916841\C,0,-0.3611165,-0.29129887,-0.55514376\C,0,-0.07334606,1.142
 00416,-0.02363448\N,0,1.34457952,1.05746551,0.26709955\C,0,1.68517045,
 -0.1998508,0.27089973\O,0,2.85774743,-0.36687813,0.7184402\O,0,0.79245
 793,-1.08453494,-0.12198007\H,0,-1.63009232,-0.97144385,1.0409201\H,0,
 -1.74665372,-1.93591933,-0.44253811\H,0,-2.48745332,-0.3317392,-0.3713

 Normal termination of Gaussian 16 at Wed Apr  9 03:52:46 2025.
