 Gaussian 16, Revision C.01,

 ----------------------------------------------------------------------
 #t hf aug-cc-pvdz symm=none int=(grid=ultrafine) guess=(read,tcheck) s
 table=(opt,rrhf)
 ----------------------------------------------------------------------
 -----
 title
 -----
 Symbolic Z-matrix:
 Charge =  0 Multiplicity = 1

 SCF Done:  E(RHF) =  -358.440762246     A.U. after   15 cycles
 Normal termination of Gaussian 16 at Wed Apr  9 03:34:08 2025.
 Gaussian 16:  ES64L-G16RevC.01  3-Jul-2019

 ----------------------------------------------------------------------
 #t hf aug-cc-pvdz iop(5/13=1,5/36=2,99/5=2) pseudo=read geom=check gue
 ss=(read,tcheck) scf=(maxcycle=1)
 ----------------------------------------------------------------------
 -----
 title
 -----
 Structure from the checkpoint file:  "Grambow2020_wb97xd3_007083_forward_mol1.chk"
 Charge =  0 Multiplicity = 1

                         Standard orientation:
 ---------------------------------------------------------------------
 Center     Atomic      Atomic             Coordinates (Angstroms)
 Number     Number       Type             X           Y           Z
 ---------------------------------------------------------------------
      1          8           0       -1.821400   -1.082590   -0.134148
      2          6           0       -0.835243   -0.433816   -0.046913
      3          7           0        0.498158   -1.013078   -0.169310
      4          6           0        1.648576   -0.125410   -0.501128
      5          6           0        1.158436   -0.078032    0.864536
      6          8           0       -0.340735    1.877266   -0.399488
      7          6           0       -0.543411    0.998835    0.439626
      8          1           0        0.606939   -2.017987   -0.221312
      9          1           0        1.381637    0.697988   -1.161688
     10          1           0        2.522722   -0.707022   -0.777128
     11          1           0        1.690162   -0.620784    1.641254
     12          1           0       -0.961634    1.212484    1.436407
 ---------------------------------------------------------------------

 SCF Done:  E(RHF) =  -358.800449212     A.U. after    2 cycles

 The electronic state is 1-A.
 Alpha  occ. eigenvalues --  -20.58063 -20.49307 -15.62430 -11.40418 -11.34977
 Alpha  occ. eigenvalues --  -11.31900 -11.28005  -1.53370  -1.43376  -1.35890
 Alpha  occ. eigenvalues --   -1.04595  -0.98713  -0.86487  -0.83303  -0.75360
 Alpha  occ. eigenvalues --   -0.71755  -0.68208  -0.64583  -0.64199  -0.60532
 Alpha  occ. eigenvalues --   -0.55001  -0.52742  -0.51465  -0.50173  -0.38542
 Alpha  occ. eigenvalues --   -0.35544
 Alpha virt. eigenvalues --    0.01801   0.03621   0.03949   0.05199   0.06201
 Alpha virt. eigenvalues --    0.08445   0.09163   0.09850   0.10358   0.11839
 Alpha virt. eigenvalues --    0.12718   0.12962   0.14161   0.14272   0.15044

 Mulliken charges:
               1
     1  O   -1.103633
     2  C    0.628586
     3  N    0.606123
     4  C    0.024892
     5  C   -0.037727
     6  O   -1.332933
     7  C    1.289833
     8  H    0.033566
     9  H   -0.001798
    10  H   -0.073150
    11  H   -0.148103
    12  H    0.114344
 Sum of Mulliken charges =  -0.00000

 Dipole moment (field-independent basis, Debye):
    X=              3.9945    Y=             -4.2055    Z=              0.8197  Tot=              5.8578

 Test job not archived.
 1\1\GINC-SE435\SP\RHF\Aug-CC-pVDZ\C4H5N1O2\OHZDE\09-Apr-2025\0\\#t hf
 aug-cc-pvdz iop(5/13=1,5/36=2,99/5=2) pseudo=read geom=check guess=(re
 ad,tcheck) scf=(maxcycle=1)\\title\\0,1\O,0,0.90104664,2.2013402,0.619
 90411\C,0,0.37115957,1.14972936,0.50007893\N,0,0.77182477,0.180512,-0.
 51410431\C,0,0.40218136,-1.25241125,-0.33630601\C,0,-0.65124456,-0.354
 59812,-0.77419224\O,0,-0.86275282,-0.25801413,1.98522781\C,0,-0.933443
 45,0.54599129,1.05495437\H,0,1.45012453,0.44126667,-1.21858828\H,0,0.3
 9387938,-1.56976603,0.70523026\H,0,0.94418157,-1.88412856,-1.03326348\

 Normal termination of Gaussian 16 at Wed Apr  9 03:34:12 2025.
