 Gaussian 16, Revision C.01,

 ----------------------------------------------------------------------
 #t hf aug-cc-pvdz symm=none int=(grid=ultrafine) guess=(read,tcheck) s
 table=(opt,rrhf)
 ----------------------------------------------------------------------
 -----
 title
 -----
 Symbolic Z-matrix:
 Charge =  0 Multiplicity = 1

 SCF Done:  E(RHF) =  -322.545534062     A.U. after   17 cycles
 Normal termination of Gaussian 16 at Wed Apr  9 18:21:23 2025.
 Gaussian 16:  ES64L-G16RevC.01  3-Jul-2019

 ----------------------------------------------------------------------
 #t hf aug-cc-pvdz iop(5/13=1,5/36=2,99/5=2) pseudo=read geom=check gue
 ss=(read,tcheck) scf=(maxcycle=1)
 ----------------------------------------------------------------------
 -----
 title
 -----
 Structure from the checkpoint file:  "Grambow2020_wb97xd3_007343_forward_mol1.chk"
 Charge =  0 Multiplicity = 1

                         Standard orientation:
 ---------------------------------------------------------------------
 Center     Atomic      Atomic             Coordinates (Angstroms)
 Number     Number       Type             X           Y           Z
 ---------------------------------------------------------------------
      1          8           0        2.330531   -0.444936   -0.299303
      2          6           0        1.249027   -0.050245   -0.003292
      3          6           0        0.427781    1.207654   -0.280168
      4          7           0       -0.656790    0.680674    0.587541
      5          6           0       -1.850936    0.220000   -0.120915
      6          6           0       -1.485865   -1.184642   -0.604915
      7          6           0        0.101982   -0.579845    0.841383
      8          1           0        0.868939    2.130899    0.098986
      9          1           0        0.163016    1.343906   -1.332723
     10          1           0       -2.111629    0.888031   -0.947578
     11          1           0       -2.696160    0.196542    0.569558
     12          1           0       -0.754875   -1.073434   -1.427160
     13          1           0       -0.473205   -1.523115    0.446208
     14          1           0        0.305264   -0.845590    1.881792
 ---------------------------------------------------------------------

 SCF Done:  E(RHF) =  -322.872598634     A.U. after    2 cycles

 The electronic state is 1-A.
 Alpha  occ. eigenvalues --  -20.56762 -15.52370 -11.36364 -11.31071 -11.29198
 Alpha  occ. eigenvalues --  -11.29060 -11.28167  -1.50607  -1.29688  -1.06237
 Alpha  occ. eigenvalues --   -0.99235  -0.93768  -0.81492  -0.77118  -0.70701
 Alpha  occ. eigenvalues --   -0.69789  -0.68585  -0.62910  -0.59773  -0.58422
 Alpha  occ. eigenvalues --   -0.57950  -0.55008  -0.52116  -0.44297  -0.42784
 Alpha  occ. eigenvalues --   -0.36226
 Alpha virt. eigenvalues --    0.03223   0.03692   0.04237   0.04628   0.04848
 Alpha virt. eigenvalues --    0.05985   0.06896   0.07006   0.08481   0.09798
 Alpha virt. eigenvalues --    0.12337   0.12657   0.13091   0.13499   0.13951

 Mulliken charges:
               1
     1  O   -1.224062
     2  C    1.379310
     3  C   -0.365303
     4  N    0.469983
     5  C   -0.212439
     6  C   -0.432690
     7  C   -0.566458
     8  H    0.064498
     9  H    0.140796
    10  H    0.091075
    11  H    0.047948
    12  H    0.228218
    13  H    0.418171
    14  H   -0.039048
 Sum of Mulliken charges =  -0.00000

 Dipole moment (field-independent basis, Debye):
    X=             -1.1081    Y=              1.9428    Z=             -0.2302  Tot=              2.2484

 Test job not archived.
 1\1\GINC-SE014\SP\RHF\Aug-CC-pVDZ\C5H7N1O1\OHZDE\09-Apr-2025\0\\#t hf
 aug-cc-pvdz iop(5/13=1,5/36=2,99/5=2) pseudo=read geom=check guess=(re
 ad,tcheck) scf=(maxcycle=1)\\title\\0,1\O,0,1.60212699,1.52868661,-1.5
 9040236\C,0,1.05015067,0.66114135,-0.99396256\C,0,1.36191054,-0.196712
 31,0.23090798\N,0,0.09066787,-0.93744618,0.02553617\C,0,-0.96607547,-0
 .63807852,0.99186297\C,0,-1.58455149,0.66612119,0.48480899\C,0,-0.2639
 6575,-0.08638543,-1.14877693\H,0,2.24629389,-0.82798813,0.13033642\H,0
 ,1.43061804,0.36870155,1.16478415\H,0,-0.5680963,-0.5405055,2.00659927

 Normal termination of Gaussian 16 at Wed Apr  9 18:21:27 2025.
