 Gaussian 16, Revision C.01,

 ----------------------------------------------------------------------
 #t hf aug-cc-pvdz symm=none int=(grid=ultrafine) guess=(read,tcheck) s
 table=(opt,rrhf)
 ----------------------------------------------------------------------
 -----
 title
 -----
 Symbolic Z-matrix:
 Charge =  0 Multiplicity = 1

 SCF Done:  E(RHF) =  -269.465663194     A.U. after   17 cycles
 Normal termination of Gaussian 16 at Wed Apr  9 17:23:39 2025.
 Gaussian 16:  ES64L-G16RevC.01  3-Jul-2019

 ----------------------------------------------------------------------
 #t hf aug-cc-pvdz iop(5/13=1,5/36=2,99/5=2) pseudo=read geom=check gue
 ss=(read,tcheck) scf=(maxcycle=1)
 ----------------------------------------------------------------------
 -----
 title
 -----
 Structure from the checkpoint file:  "Grambow2020_wb97xd3_006588_forward_mol1.chk"
 Charge =  0 Multiplicity = 1

                         Standard orientation:
 ---------------------------------------------------------------------
 Center     Atomic      Atomic             Coordinates (Angstroms)
 Number     Number       Type             X           Y           Z
 ---------------------------------------------------------------------
      1          6           0       -2.218123    0.315855   -0.199225
      2          6           0       -0.875554   -0.087873    0.412790
      3          6           0       -0.284957   -1.429450   -0.096380
      4          6           0        1.164398   -1.192955   -0.052406
      5          6           0        2.200412   -0.529435   -0.041429
      6          6           0        0.172968    0.904171    0.132822
      7          6           0        0.995853    1.825178   -0.079699
      8          1           0       -2.137313    0.412989   -1.282484
      9          1           0       -2.954570   -0.457327    0.023355
     10          1           0       -2.583635    1.257734    0.210726
     11          1           0       -0.964692   -0.144689    1.501585
     12          1           0       -0.634411   -2.252963    0.529318
     13          1           0       -0.619643   -1.625139   -1.119325
     14          1           0        1.984631    1.082492   -0.117032
     15          1           0        0.979651    2.893958   -0.204975
 ---------------------------------------------------------------------

 SCF Done:  E(RHF) =  -269.749432200     A.U. after    2 cycles

 The electronic state is 1-A.
 Alpha  occ. eigenvalues --  -11.37122 -11.30311 -11.27866 -11.27179 -11.26970
 Alpha  occ. eigenvalues --  -11.17493 -11.17089  -1.17298  -1.08662  -1.01777
 Alpha  occ. eigenvalues --   -0.93262  -0.89436  -0.75489  -0.71228  -0.67722
 Alpha  occ. eigenvalues --   -0.64665  -0.61333  -0.59883  -0.57653  -0.55015
 Alpha  occ. eigenvalues --   -0.54150  -0.45764  -0.37809  -0.33621  -0.33353
 Alpha virt. eigenvalues --    0.01939   0.02567   0.03361   0.03630   0.04899
 Alpha virt. eigenvalues --    0.05586   0.06324   0.06896   0.07629   0.08972
 Alpha virt. eigenvalues --    0.11083   0.11287   0.11672   0.12261   0.13520

 Mulliken charges:
               1
     1  C   -0.097812
     2  C   -1.174346
     3  C   -0.126275
     4  C    0.382305
     5  C   -1.064108
     6  C    0.440235
     7  C   -0.139581
     8  H    0.207818
     9  H    0.189720
    10  H    0.158465
    11  H    0.242397
    12  H    0.175493
    13  H    0.207499
    14  H    0.766745
    15  H   -0.168554
 Sum of Mulliken charges =  -0.00000

 Dipole moment (field-independent basis, Debye):
    X=             -6.4280    Y=              3.3214    Z=              0.2565  Tot=              7.2399

 Test job not archived.
 1\1\GINC-SE103\SP\RHF\Aug-CC-pVDZ\C7H8\OHZDE\09-Apr-2025\0\\#t hf aug-
 cc-pvdz iop(5/13=1,5/36=2,99/5=2) pseudo=read geom=check guess=(read,t
 check) scf=(maxcycle=1)\\title\\0,1\C,0,-0.62556398,-1.62845905,-0.704
 94123\C,0,0.32393157,-0.58773405,-0.10878715\C,0,0.84310188,0.48855941
 ,-1.09870803\C,0,0.98146498,1.68081638,-0.25143402\C,0,0.76459676,2.41
 059136,0.71505442\C,0,-0.31596767,0.18246121,0.96790276\C,0,-0.8989633
 3,0.74640473,1.92322525\H,0,-1.51184161,-1.15042329,-1.12376049\H,0,-0
 .10964059,-2.15959573,-1.50582975\H,0,-0.94091204,-2.36192935,0.037603

 Normal termination of Gaussian 16 at Wed Apr  9 17:23:45 2025.
