 Gaussian 16, Revision C.01,

 ----------------------------------------------------------------------
 #t hf aug-cc-pvdz symm=none int=(grid=ultrafine) guess=(read,tcheck) s
 table=(opt,rrhf)
 ----------------------------------------------------------------------
 -----
 title
 -----
 Symbolic Z-matrix:
 Charge =  0 Multiplicity = 1

 SCF Done:  E(RHF) =  -271.220281807     A.U. after   12 cycles

 1\1\GINC-SE037\Stability\RHF\Aug-CC-pVDZ\C5H12O1\OHZDE\09-Apr-2025\0\\
 #t hf aug-cc-pvdz symm=none int=(grid=ultrafine) guess=(read,tcheck) s
 table=(opt,rrhf)\\title\\0,1\C,0,-0.92345655,1.26687267,-0.15309127\C,
 0,-0.17330601,-0.07142321,-0.0099698\C,0,-0.79543725,-1.12009077,-0.95
 142947\C,0,-0.25612336,-0.56667731,1.4468246\C,0,1.29937308,0.11207539
 ,-0.41535416\O,0,1.90565291,1.0870772,0.434965\H,0,-0.89042112,1.62381
 198,-1.19359411\H,0,-0.47074983,2.03431458,0.48642635\H,0,-1.97892703,
 1.1498234,0.13248072\H,0,-0.74855591,-0.79195556,-2.00070698\H,0,-0.27

 Normal termination of Gaussian 16 at Wed Apr  9 15:55:08 2025.
 Gaussian 16:  ES64L-G16RevC.01  3-Jul-2019

 ----------------------------------------------------------------------
 #t hf aug-cc-pvdz iop(5/13=1,5/36=2,99/5=2) pseudo=read geom=check gue
 ss=(read,tcheck) scf=(maxcycle=1)
 ----------------------------------------------------------------------
 -----
 title
 -----
 Structure from the checkpoint file:  "Grambow2020_b97d3_006881_forward_mol2.chk"
 Charge =  0 Multiplicity = 1

                         Standard orientation:
 ---------------------------------------------------------------------
 Center     Atomic      Atomic             Coordinates (Angstroms)
 Number     Number       Type             X           Y           Z
 ---------------------------------------------------------------------
      1          6           0        0.455798   -0.913593   -1.245073
      2          6           0        0.405596   -0.007444    0.000165
      3          6           0        1.593750    0.972826   -0.021221
      4          6           0        0.463856   -0.866934    1.277768
      5          6           0       -0.890370    0.821482   -0.011925
      6          8           0       -2.015032   -0.059574   -0.001029
      7          1           0        0.435359   -0.312428   -2.166662
      8          1           0       -0.403162   -1.595347   -1.262170
      9          1           0        1.378697   -1.511508   -1.249981
     10          1           0        1.576220    1.601323   -0.924293
     11          1           0        1.580381    1.635119    0.857478
     12          1           0        2.545358    0.422474   -0.012945
     13          1           0        1.385964   -1.465799    1.296782
     14          1           0        0.451560   -0.232326    2.176678
     15          1           0       -0.395788   -1.546331    1.326602
     16          1           0       -0.895303    1.487410    0.873051
     17          1           0       -0.894202    1.463545   -0.914410
     18          1           0       -2.816610    0.492436    0.009824
 ---------------------------------------------------------------------

 SCF Done:  E(RHF) =  -271.515663068     A.U. after    2 cycles

 The electronic state is 1-A.
 Alpha  occ. eigenvalues --  -20.54783 -11.28147 -11.23729 -11.22362 -11.21506
 Alpha  occ. eigenvalues --  -11.21481  -1.44165  -1.09772  -0.92902  -0.92413
 Alpha  occ. eigenvalues --   -0.91258  -0.73558  -0.69286  -0.64282  -0.62440
 Alpha  occ. eigenvalues --   -0.58303  -0.58234  -0.54275  -0.53005  -0.52613
 Alpha  occ. eigenvalues --   -0.51319  -0.46848  -0.46596  -0.45433  -0.43561
 Alpha virt. eigenvalues --    0.03355   0.03832   0.04124   0.04375   0.06271
 Alpha virt. eigenvalues --    0.06491   0.06697   0.06950   0.07093   0.09491
 Alpha virt. eigenvalues --    0.09687   0.10005   0.12643   0.13832   0.14285

 Mulliken charges:
               1
     1  C    0.251068
     2  C   -3.555323
     3  C    0.259199
     4  C    0.250091
     5  C    1.350324
     6  O   -1.154604
     7  H    0.209808
     8  H    0.252993
     9  H    0.206084
    10  H    0.197732
    11  H    0.199044
    12  H    0.202210
    13  H    0.206878
    14  H    0.207338
    15  H    0.252241
    16  H    0.184858
    17  H    0.185184
    18  H    0.294873
 Sum of Mulliken charges =   0.00000

 Dipole moment (field-independent basis, Debye):
    X=             -0.2139    Y=              1.5005    Z=              0.0091  Tot=              1.5157

 Test job not archived.
 1\1\GINC-SE037\SP\RHF\Aug-CC-pVDZ\C5H12O1\OHZDE\09-Apr-2025\0\\#t hf a
 ug-cc-pvdz iop(5/13=1,5/36=2,99/5=2) pseudo=read geom=check guess=(rea
 d,tcheck) scf=(maxcycle=1)\\title\\0,1\C,0,-0.92345655,1.26687267,-0.1
 5309127\C,0,-0.17330601,-0.07142321,-0.0099698\C,0,-0.79543725,-1.1200
 9077,-0.95142947\C,0,-0.25612336,-0.56667731,1.4468246\C,0,1.29937308,
 0.11207539,-0.41535416\O,0,1.90565291,1.0870772,0.434965\H,0,-0.890421
 12,1.62381198,-1.19359411\H,0,-0.47074983,2.03431458,0.48642635\H,0,-1
 .97892703,1.1498234,0.13248072\H,0,-0.74855591,-0.79195556,-2.00070698

 Normal termination of Gaussian 16 at Wed Apr  9 15:55:14 2025.
