 Gaussian 16, Revision C.01,

 ----------------------------------------------------------------------
 #t hf aug-cc-pvdz symm=none int=(grid=ultrafine) guess=(read,tcheck) s
 table=(opt,rrhf)
 ----------------------------------------------------------------------
 -----
 title
 -----
 Symbolic Z-matrix:
 Charge =  0 Multiplicity = 1

 SCF Done:  E(RHF) =  -320.177659151     A.U. after   17 cycles
 Normal termination of Gaussian 16 at Wed Apr  9 19:20:45 2025.
 Gaussian 16:  ES64L-G16RevC.01  3-Jul-2019

 ----------------------------------------------------------------------
 #t hf aug-cc-pvdz iop(5/13=1,5/36=2,99/5=2) pseudo=read geom=check gue
 ss=(read,tcheck) scf=(maxcycle=1)
 ----------------------------------------------------------------------
 -----
 title
 -----
 Structure from the checkpoint file:  "Grambow2020_wb97xd3_009384_forward_mol1.chk"
 Charge =  0 Multiplicity = 1

                         Standard orientation:
 ---------------------------------------------------------------------
 Center     Atomic      Atomic             Coordinates (Angstroms)
 Number     Number       Type             X           Y           Z
 ---------------------------------------------------------------------
      1          8           0       -2.021552   -0.750300   -0.003053
      2          6           0       -1.005370   -0.149598    0.000527
      3          6           0       -0.701139    1.350581    0.002824
      4          6           0        0.758808    1.323319   -0.001219
      5          6           0        1.863168    0.772709   -0.003561
      6          6           0        0.376811   -0.837545    0.001494
      7          7           0        1.234714   -1.654733    0.002044
      8          1           0       -1.150570    1.807897    0.887981
      9          1           0       -1.155885    1.812164   -0.877175
     10          1           0        2.082211   -0.791322   -0.001072
 ---------------------------------------------------------------------

 SCF Done:  E(RHF) =  -320.495323408     A.U. after    2 cycles

 The electronic state is 1-A.
 Alpha  occ. eigenvalues --  -20.62712 -15.57774 -11.43739 -11.40660 -11.31660
 Alpha  occ. eigenvalues --  -11.24055 -11.23727  -1.57059  -1.33194  -1.14951
 Alpha  occ. eigenvalues --   -1.00061  -0.94237  -0.78692  -0.74774  -0.71350
 Alpha  occ. eigenvalues --   -0.68784  -0.68168  -0.66277  -0.60304  -0.56489
 Alpha  occ. eigenvalues --   -0.50549  -0.45337  -0.40160  -0.39804
 Alpha virt. eigenvalues --    0.01304   0.03007   0.04262   0.04755   0.05716
 Alpha virt. eigenvalues --    0.07945   0.08454   0.09305   0.11061   0.11640
 Alpha virt. eigenvalues --    0.11828   0.12076   0.13952   0.14692   0.14909

 Mulliken charges:
               1
     1  O   -1.297664
     2  C    1.930008
     3  C   -0.607143
     4  C    0.402432
     5  C   -0.827682
     6  C   -1.643037
     7  N    0.810519
     8  H    0.289498
     9  H    0.287979
    10  H    0.655091
 Sum of Mulliken charges =  -0.00000

 Dipole moment (field-independent basis, Debye):
    X=             -2.7735    Y=              1.4853    Z=              0.0149  Tot=              3.1462

 Test job not archived.
 1\1\GINC-SE018\SP\RHF\Aug-CC-pVDZ\C5H3N1O1\OHZDE\09-Apr-2025\0\\#t hf
 aug-cc-pvdz iop(5/13=1,5/36=2,99/5=2) pseudo=read geom=check guess=(re
 ad,tcheck) scf=(maxcycle=1)\\title\\0,1\O,0,-2.29588306,-0.15049541,0.
 17160342\C,0,-1.12211456,-0.13973097,0.04656645\C,0,-0.14736809,-1.146
 41738,-0.56950964\C,0,1.11947311,-0.45373401,-0.35155031\C,0,1.8274359
 ,0.47616325,0.04451833\C,0,-0.2358691,1.02494426,0.53829253\N,0,0.1299
 7422,2.04643381,1.01422592\H,0,-0.40997772,-1.30652847,-1.61833345\H,0
 ,-0.24366977,-2.10442677,-0.05259887\H,0,1.28061709,1.77530769,0.75683

 Normal termination of Gaussian 16 at Wed Apr  9 19:20:48 2025.
