 Gaussian 16, Revision C.01,

 ----------------------------------------------------------------------
 #t hf aug-cc-pvdz symm=none int=(grid=ultrafine) guess=(read,tcheck) s
 table=(opt,rrhf)
 ----------------------------------------------------------------------
 -----
 title
 -----
 Symbolic Z-matrix:
 Charge =  0 Multiplicity = 1

 SCF Done:  E(RHF) =  -360.795857156     A.U. after   15 cycles
 Normal termination of Gaussian 16 at Wed Apr  9 17:41:44 2025.
 Gaussian 16:  ES64L-G16RevC.01  3-Jul-2019

 ----------------------------------------------------------------------
 #t hf aug-cc-pvdz iop(5/13=1,5/36=2,99/5=2) pseudo=read geom=check gue
 ss=(read,tcheck) scf=(maxcycle=1)
 ----------------------------------------------------------------------
 -----
 title
 -----
 Structure from the checkpoint file:  "Grambow2020_wb97xd3_006772_reverse_mol1.chk"
 Charge =  0 Multiplicity = 1

                         Standard orientation:
 ---------------------------------------------------------------------
 Center     Atomic      Atomic             Coordinates (Angstroms)
 Number     Number       Type             X           Y           Z
 ---------------------------------------------------------------------
      1          6           0       -2.498186    0.176577    0.135097
      2          7           0       -1.202139   -0.157998   -0.424728
      3          6           0       -0.379936   -0.916640    0.275318
      4          8           0        0.781719   -1.320429   -0.297625
      5          6           0        1.850715   -0.389388   -0.065590
      6          6           0        1.165910    0.867056    0.496959
      7          8           0        0.542870    1.604640   -0.355242
      8          1           0       -2.418836    1.004760    0.844772
      9          1           0       -3.170880    0.472344   -0.668144
     10          1           0       -2.924958   -0.687656    0.645283
     11          1           0       -0.803740   -1.582881    1.026189
     12          1           0        2.557779   -0.837556    0.639389
     13          1           0        2.343804   -0.181446   -1.015588
     14          1           0        0.327907    0.165749    1.161476
     15          1           0        1.705380    1.381176    1.309711
     16          1           0       -0.629216    0.672181   -0.797767
 ---------------------------------------------------------------------

 SCF Done:  E(RHF) =  -361.170031509     A.U. after    2 cycles

 The electronic state is 1-A.
 Alpha  occ. eigenvalues --  -20.58285 -20.46802 -15.53303 -11.40047 -11.30508
 Alpha  occ. eigenvalues --  -11.29688 -11.28390  -1.52626  -1.39123  -1.27161
 Alpha  occ. eigenvalues --   -1.01672  -0.98172  -0.90413  -0.81253  -0.74224
 Alpha  occ. eigenvalues --   -0.73651  -0.70757  -0.66056  -0.63604  -0.61296
 Alpha  occ. eigenvalues --   -0.58098  -0.56310  -0.55627  -0.53598  -0.48324
 Alpha  occ. eigenvalues --   -0.44872  -0.37385  -0.36097
 Alpha virt. eigenvalues --    0.02997   0.03933   0.04344   0.04726   0.05782
 Alpha virt. eigenvalues --    0.06281   0.06402   0.07360   0.08615   0.09857
 Alpha virt. eigenvalues --    0.10173   0.11675   0.13042   0.13701   0.14412

 Mulliken charges:
               1
     1  C   -0.339318
     2  N    0.690143
     3  C    0.008635
     4  O   -1.426929
     5  C    0.480271
     6  C    0.581272
     7  O   -1.462797
     8  H    0.127049
     9  H    0.100418
    10  H    0.135452
    11  H   -0.076832
    12  H    0.073948
    13  H    0.078711
    14  H    0.554452
    15  H    0.039551
    16  H    0.435975
 Sum of Mulliken charges =  -0.00000

 Dipole moment (field-independent basis, Debye):
    X=             -1.3312    Y=             -2.4990    Z=              2.5730  Tot=              3.8259

 Test job not archived.
 1\1\GINC-SE029\SP\RHF\Aug-CC-pVDZ\C4H9N1O2\OHZDE\09-Apr-2025\0\\#t hf
 aug-cc-pvdz iop(5/13=1,5/36=2,99/5=2) pseudo=read geom=check guess=(re
 ad,tcheck) scf=(maxcycle=1)\\title\\0,1\C,0,2.04109042,-0.59379247,-1.
 04707141\N,0,0.8687299,0.25040145,-0.91294277\C,0,0.52966873,0.6879114
 8,0.28507266\O,0,-0.49783252,1.56753218,0.39119253\C,0,-1.76162619,0.9
 0470114,0.5552399\C,0,-1.47752838,-0.57276589,0.23830151\O,0,-1.342587
 91,-0.87119268,-1.00716568\H,0,1.811181,-1.6311699,-0.78859208\H,0,2.3
 8976735,-0.56309082,-2.07793211\H,0,2.84164677,-0.23607077,-0.3986372\

 Normal termination of Gaussian 16 at Wed Apr  9 17:41:49 2025.
