 Gaussian 16, Revision C.01,

 ----------------------------------------------------------------------
 #t hf aug-cc-pvdz symm=none int=(grid=ultrafine) guess=(read,tcheck) s
 table=(opt,rrhf)
 ----------------------------------------------------------------------
 -----
 title
 -----
 Symbolic Z-matrix:
 Charge =  0 Multiplicity = 1

 SCF Done:  E(RHF) =  -343.603190788     A.U. after   15 cycles
 Normal termination of Gaussian 16 at Wed Apr  9 17:55:44 2025.
 Gaussian 16:  ES64L-G16RevC.01  3-Jul-2019

 ----------------------------------------------------------------------
 #t hf aug-cc-pvdz iop(5/13=1,5/36=2,99/5=2) pseudo=read geom=check gue
 ss=(read,tcheck) scf=(maxcycle=1)
 ----------------------------------------------------------------------
 -----
 title
 -----
 Structure from the checkpoint file:  "Grambow2020_wb97xd3_006878_reverse_mol1.chk"
 Charge =  0 Multiplicity = 1

                         Standard orientation:
 ---------------------------------------------------------------------
 Center     Atomic      Atomic             Coordinates (Angstroms)
 Number     Number       Type             X           Y           Z
 ---------------------------------------------------------------------
      1          6           0        0.764435    1.636451    0.018472
      2          6           0        0.683151    0.142788   -0.164600
      3          6           0        1.056687   -0.757694    0.984666
      4          6           0        1.945338   -0.654640   -0.233051
      5          8           0       -0.355996   -0.241857   -1.006329
      6          6           0       -1.989796   -0.543578   -0.179004
      7          8           0       -2.466271    0.227705    0.510193
      8          1           0       -0.142432    2.016216    0.492823
      9          1           0        0.872270    2.123515   -0.952382
     10          1           0        1.618344    1.910999    0.640139
     11          1           0        1.391259   -0.302945    1.908449
     12          1           0        0.509811   -1.683177    1.116077
     13          1           0        2.890600   -0.135283   -0.137341
     14          1           0        1.951889   -1.496785   -0.912135
     15          1           0       -1.272494   -1.259292   -0.745439
 ---------------------------------------------------------------------

 SCF Done:  E(RHF) =  -343.954774360     A.U. after    2 cycles

 The electronic state is 1-A.
 Alpha  occ. eigenvalues --  -20.66065 -20.51526 -11.43756 -11.28078 -11.22659
 Alpha  occ. eigenvalues --  -11.22065 -11.21723  -1.61136  -1.40782  -1.13030
 Alpha  occ. eigenvalues --   -0.96636  -0.88751  -0.82548  -0.78069  -0.72863
 Alpha  occ. eigenvalues --   -0.67578  -0.66086  -0.64403  -0.62057  -0.57440
 Alpha  occ. eigenvalues --   -0.54892  -0.52694  -0.51943  -0.47970  -0.45636
 Alpha  occ. eigenvalues --   -0.39984  -0.35144
 Alpha virt. eigenvalues --    0.03551   0.04313   0.04431   0.04639   0.06081
 Alpha virt. eigenvalues --    0.06614   0.07165   0.07596   0.08967   0.10081
 Alpha virt. eigenvalues --    0.11225   0.11929   0.13505   0.14452   0.14801

 Mulliken charges:
               1
     1  C   -0.606176
     2  C    1.224177
     3  C    0.163948
     4  C    0.345835
     5  O   -1.810622
     6  C    0.580810
     7  O   -0.664346
     8  H    0.174076
     9  H    0.207525
    10  H    0.119121
    11  H   -0.125944
    12  H   -0.156460
    13  H   -0.134995
    14  H   -0.115338
    15  H    0.798388
 Sum of Mulliken charges =  -0.00000

 Dipole moment (field-independent basis, Debye):
    X=             -0.7201    Y=             -1.1598    Z=              0.7840  Tot=              1.5742

 Test job not archived.
 1\1\GINC-SE174\SP\RHF\Aug-CC-pVDZ\C5H8O2\OHZDE\09-Apr-2025\0\\#t hf au
 g-cc-pvdz iop(5/13=1,5/36=2,99/5=2) pseudo=read geom=check guess=(read
 ,tcheck) scf=(maxcycle=1)\\title\\0,1\C,0,-0.38648059,1.53206222,-0.21
 536277\C,0,-0.08662075,0.14046303,0.27929689\C,0,-0.75826226,-1.033854
 4,-0.38484653\C,0,-1.14409693,-0.61696276,1.0153283\O,0,1.22312405,-0.
 002466,0.72698488\C,0,2.4618408,-0.50383584,-0.56104243\O,0,2.56820369
 ,0.06012766,-1.54467394\H,0,0.23780053,1.7775079,-1.07656411\H,0,-0.18
 159092,2.25801422,0.5735804\H,0,-1.43269779,1.62798253,-0.51071885\H,0

 Normal termination of Gaussian 16 at Wed Apr  9 17:55:49 2025.
