 Gaussian 16, Revision C.01,

 ----------------------------------------------------------------------
 #t hf aug-cc-pvdz symm=none int=(grid=ultrafine) guess=(read,tcheck) s
 table=(opt,rrhf)
 ----------------------------------------------------------------------
 -----
 title
 -----
 Symbolic Z-matrix:
 Charge =  0 Multiplicity = 1

 SCF Done:  E(RHF) =  -268.718367684     A.U. after   16 cycles
 Normal termination of Gaussian 16 at Wed Apr  9 16:00:55 2025.
 Gaussian 16:  ES64L-G16RevC.01  3-Jul-2019

 ----------------------------------------------------------------------
 #t hf aug-cc-pvdz iop(5/13=1,5/36=2,99/5=2) pseudo=read geom=check gue
 ss=(read,tcheck) scf=(maxcycle=1)
 ----------------------------------------------------------------------
 -----
 title
 -----
 Structure from the checkpoint file:  "Grambow2020_b97d3_007081_forward_mol1.chk"
 Charge =  0 Multiplicity = 1

                         Standard orientation:
 ---------------------------------------------------------------------
 Center     Atomic      Atomic             Coordinates (Angstroms)
 Number     Number       Type             X           Y           Z
 ---------------------------------------------------------------------
      1          6           0        2.217562    0.045016   -0.022079
      2          6           0        0.719436    0.093524   -0.004897
      3          6           0       -0.084363    1.184442    0.026107
      4          6           0       -1.518019    1.009762    0.112388
      5          8           0       -1.494091   -0.818997   -0.120232
      6          6           0       -0.081089   -1.185669    0.028442
      7          1           0        2.623223   -0.454105    0.875172
      8          1           0        2.645103    1.055051   -0.063610
      9          1           0        2.593138   -0.518781   -0.893401
     10          1           0        0.315387    2.201916    0.026451
     11          1           0       -2.088468    1.339678   -0.768582
     12          1           0       -1.846072   -0.340703    0.754990
     13          1           0        0.162313   -1.881006   -0.791768
     14          1           0        0.026937   -1.732528    0.982835
 ---------------------------------------------------------------------

 SCF Done:  E(RHF) =  -269.000159316     A.U. after    2 cycles

 The electronic state is 1-A.
 Alpha  occ. eigenvalues --  -20.59079 -11.30644 -11.27040 -11.24677 -11.24349
 Alpha  occ. eigenvalues --  -11.23863  -1.47054  -1.09871  -0.99851  -0.94507
 Alpha  occ. eigenvalues --   -0.82476  -0.75617  -0.69981  -0.66360  -0.60703
 Alpha  occ. eigenvalues --   -0.59026  -0.57229  -0.54850  -0.53862  -0.51895
 Alpha  occ. eigenvalues --   -0.48215  -0.42406  -0.29252
 Alpha virt. eigenvalues --    0.03430   0.03957   0.04317   0.04410   0.05942
 Alpha virt. eigenvalues --    0.06561   0.07380   0.08186   0.09855   0.10945
 Alpha virt. eigenvalues --    0.12768   0.13170   0.13827   0.14304   0.14696

 Mulliken charges:
               1
     1  C   -0.575473
     2  C    0.231343
     3  C    0.155138
     4  C   -0.442765
     5  O   -1.284945
     6  C    0.395584
     7  H    0.237533
     8  H    0.129347
     9  H    0.230959
    10  H   -0.120468
    11  H    0.087468
    12  H    0.654685
    13  H    0.122733
    14  H    0.178861
 Sum of Mulliken charges =  -0.00000

 Dipole moment (field-independent basis, Debye):
    X=              1.8549    Y=             -0.5016    Z=             -0.2056  Tot=              1.9324

 Test job not archived.
 1\1\GINC-SE037\SP\RHF\Aug-CC-pVDZ\C5H8O1\OHZDE\09-Apr-2025\0\\#t hf au
 g-cc-pvdz iop(5/13=1,5/36=2,99/5=2) pseudo=read geom=check guess=(read
 ,tcheck) scf=(maxcycle=1)\\title\\0,1\C,0,-1.83344446,0.30260717,-0.48
 589866\C,0,-0.38729596,0.14052744,-0.12615714\C,0,0.6389841,0.9909017,
 -0.37267123\C,0,1.98443279,0.60860193,-0.0026169\O,0,1.4961188,-0.9124
 2251,0.91775133\C,0,0.08785198,-1.11714527,0.55997814\H,0,-2.17354372,
 -0.48077348,-1.18546122\H,0,-2.01589209,1.27532183,-0.96047798\H,0,-2.
 48123407,0.23258973,0.40494018\H,0,0.49242999,1.94821814,-0.87974275\H

 Normal termination of Gaussian 16 at Wed Apr  9 16:00:59 2025.
