 Gaussian 16, Revision C.01,

 ----------------------------------------------------------------------
 #t hf aug-cc-pvdz symm=none int=(grid=ultrafine) guess=(read,tcheck) s
 table=(opt,rrhf)
 ----------------------------------------------------------------------
 -----
 title
 -----
 Symbolic Z-matrix:
 Charge =  0 Multiplicity = 1

 SCF Done:  E(RHF) =  -306.573107446     A.U. after   16 cycles
 Normal termination of Gaussian 16 at Wed Apr  9 18:19:22 2025.
 Gaussian 16:  ES64L-G16RevC.01  3-Jul-2019

 ----------------------------------------------------------------------
 #t hf aug-cc-pvdz iop(5/13=1,5/36=2,99/5=2) pseudo=read geom=check gue
 ss=(read,tcheck) scf=(maxcycle=1)
 ----------------------------------------------------------------------
 -----
 title
 -----
 Structure from the checkpoint file:  "Grambow2020_wb97xd3_007307_reverse_mol1.chk"
 Charge =  0 Multiplicity = 1

                         Standard orientation:
 ---------------------------------------------------------------------
 Center     Atomic      Atomic             Coordinates (Angstroms)
 Number     Number       Type             X           Y           Z
 ---------------------------------------------------------------------
      1          6           0        0.179231    1.951480    0.000281
      2          6           0        1.329543    1.174155   -0.000519
      3          6           0        1.082226   -0.804946    0.000131
      4          8           0        2.139508   -1.315392   -0.000084
      5          6           0       -0.276836   -1.062976    0.000431
      6          6           0       -1.282142   -0.271103    0.000173
      7          6           0       -2.759846   -0.371553   -0.000476
      8          1           0       -0.853396    0.881644    0.000646
      9          1           0       -0.151591    2.430153   -0.915108
     10          1           0       -0.149804    2.429396    0.916681
     11          1           0        1.914959    1.114358    0.910037
     12          1           0        1.913420    1.113576   -0.911974
     13          1           0       -3.091155   -1.407697   -0.009981
     14          1           0       -3.164872    0.126796    0.883011
     15          1           0       -3.166689    0.144573   -0.872773
 ---------------------------------------------------------------------

 SCF Done:  E(RHF) =  -306.889591646     A.U. after    2 cycles

 The electronic state is 1-A.
 Alpha  occ. eigenvalues --  -20.57289 -11.37925 -11.28184 -11.26391 -11.26210
 Alpha  occ. eigenvalues --  -11.25624 -11.23733  -1.51865  -1.11751  -1.05036
 Alpha  occ. eigenvalues --   -0.99808  -0.87136  -0.82444  -0.70894  -0.67619
 Alpha  occ. eigenvalues --   -0.66527  -0.63901  -0.61189  -0.60421  -0.58113
 Alpha  occ. eigenvalues --   -0.58065  -0.54367  -0.52460  -0.39771  -0.37067
 Alpha  occ. eigenvalues --   -0.33762
 Alpha virt. eigenvalues --    0.02522   0.03748   0.03821   0.04632   0.05278
 Alpha virt. eigenvalues --    0.06015   0.06932   0.07627   0.08230   0.08299
 Alpha virt. eigenvalues --    0.10076   0.11234   0.12065   0.13004   0.14166

 Mulliken charges:
               1
     1  C   -0.476218
     2  C   -0.097156
     3  C    0.605216
     4  O   -1.259790
     5  C   -0.037099
     6  C    0.621859
     7  C   -0.859037
     8  H    0.254081
     9  H    0.125796
    10  H    0.126316
    11  H    0.122808
    12  H    0.123127
    13  H    0.201502
    14  H    0.276019
    15  H    0.272575
 Sum of Mulliken charges =  -0.00000

 Dipole moment (field-independent basis, Debye):
    X=             -2.8468    Y=              3.0544    Z=              0.0008  Tot=              4.1753

 Test job not archived.
 1\1\GINC-SE162\SP\RHF\Aug-CC-pVDZ\C6H8O1\OHZDE\09-Apr-2025\0\\#t hf au
 g-cc-pvdz iop(5/13=1,5/36=2,99/5=2) pseudo=read geom=check guess=(read
 ,tcheck) scf=(maxcycle=1)\\title\\0,1\C,0,-1.40139518,-0.79865202,-0.2
 446227\C,0,-1.8079136,0.51554604,-0.05732843\C,0,-0.39546351,1.8373943
 2,0.42816983\O,0,-0.89515044,2.8926923,0.55088816\C,0,0.81127396,1.164
 3006,0.4941969\C,0,1.09721724,-0.06818236,0.30204097\C,0,2.29825124,-0
 .9344957,0.32880409\H,0,0.05496481,-0.65687057,0.01954214\H,0,-1.29790
 905,-1.19568027,-1.24869864\H,0,-1.58708475,-1.53737871,0.52755428\H,0

 Normal termination of Gaussian 16 at Wed Apr  9 18:19:27 2025.
