 Gaussian 16, Revision C.01,

 ----------------------------------------------------------------------
 #t hf aug-cc-pvdz symm=none int=(grid=ultrafine) guess=(read,tcheck) s
 table=(opt,rrhf)
 ----------------------------------------------------------------------
 -----
 title
 -----
 Symbolic Z-matrix:
 Charge =  0 Multiplicity = 1

 SCF Done:  E(RHF) =  -302.753195261     A.U. after   18 cycles
 Normal termination of Gaussian 16 at Wed Apr  9 19:11:07 2025.
 Gaussian 16:  ES64L-G16RevC.01  3-Jul-2019

 ----------------------------------------------------------------------
 #t hf aug-cc-pvdz iop(5/13=1,5/36=2,99/5=2) pseudo=read geom=check gue
 ss=(read,tcheck) scf=(maxcycle=1)
 ----------------------------------------------------------------------
 -----
 title
 -----
 Structure from the checkpoint file:  "Grambow2020_wb97xd3_008850_reverse_mol1.chk"
 Charge =  0 Multiplicity = 1

                         Standard orientation:
 ---------------------------------------------------------------------
 Center     Atomic      Atomic             Coordinates (Angstroms)
 Number     Number       Type             X           Y           Z
 ---------------------------------------------------------------------
      1          6           0        2.119752   -0.480732   -0.553107
      2          6           0        0.914233   -0.171909    0.253347
      3          6           0       -0.157251   -1.096056    0.601137
      4          6           0       -1.328107   -0.174229   -0.103118
      5          7           0       -2.489006   -0.285046   -0.355478
      6          6           0        0.532012    1.186399    0.663982
      7          7           0       -0.373033    0.917322   -0.457964
      8          1           0        2.880647   -0.905251    0.109542
      9          1           0        1.898345   -1.226950   -1.316257
     10          1           0        2.541384    0.408154   -1.022518
     11          1           0       -0.365388   -1.152312    1.668805
     12          1           0       -0.103813   -2.082034    0.148521
     13          1           0        1.245549    1.972630    0.431285
     14          1           0        0.048688    1.327436    1.630734
     15          1           0       -0.594967    1.651566   -1.129461
 ---------------------------------------------------------------------

 SCF Done:  E(RHF) =  -303.066989817     A.U. after    2 cycles

 The electronic state is 1-A.
 Alpha  occ. eigenvalues --  -15.55835 -15.39293 -11.36263 -11.32019 -11.28623
 Alpha  occ. eigenvalues --  -11.25741 -11.24919  -1.30833  -1.13070  -1.09688
 Alpha  occ. eigenvalues --   -1.00891  -0.97366  -0.81619  -0.78902  -0.70448
 Alpha  occ. eigenvalues --   -0.68005  -0.66521  -0.62203  -0.60160  -0.57967
 Alpha  occ. eigenvalues --   -0.56108  -0.55523  -0.50794  -0.46792  -0.38534
 Alpha  occ. eigenvalues --   -0.31136
 Alpha virt. eigenvalues --    0.01789   0.02730   0.03085   0.04121   0.04890
 Alpha virt. eigenvalues --    0.05193   0.05903   0.06551   0.08852   0.09316
 Alpha virt. eigenvalues --    0.10860   0.11547   0.12837   0.12926   0.13914

 Mulliken charges:
               1
     1  C   -0.687403
     2  C   -0.302321
     3  C   -0.135510
     4  C   -2.048445
     5  N    1.062056
     6  C    0.576880
     7  N    0.604193
     8  H    0.302230
     9  H    0.271698
    10  H    0.182241
    11  H    0.191440
    12  H    0.063606
    13  H   -0.000255
    14  H   -0.054848
    15  H   -0.025561
 Sum of Mulliken charges =  -0.00000

 Dipole moment (field-independent basis, Debye):
    X=             10.0280    Y=              1.8018    Z=              1.5156  Tot=             10.3007

 Test job not archived.
 1\1\GINC-SE036\SP\RHF\Aug-CC-pVDZ\C5H8N2\OHZDE\09-Apr-2025\0\\#t hf au
 g-cc-pvdz iop(5/13=1,5/36=2,99/5=2) pseudo=read geom=check guess=(read
 ,tcheck) scf=(maxcycle=1)\\title\\0,1\C,0,-1.3542065,1.1179454,-0.6573
 1211\C,0,-0.16465518,0.57665429,0.04339244\C,0,1.1983192,0.53053279,-0
 .46969151\C,0,1.31439614,-1.10691092,-0.32154143\N,0,2.09021306,-1.956
 72015,-0.63711116\C,0,-0.23118361,-0.17536179,1.30424935\N,0,-0.035563
 27,-1.23015902,0.30454547\H,0,-1.39481852,2.19853383,-0.48713522\H,0,-
 1.27929528,0.95946562,-1.73319881\H,0,-2.2837387,0.68465948,-0.2878882

 Normal termination of Gaussian 16 at Wed Apr  9 19:11:12 2025.
