 Gaussian 16, Revision C.01,

 ----------------------------------------------------------------------
 #t hf aug-cc-pvdz symm=none int=(grid=ultrafine) guess=(read,tcheck) s
 table=(opt,rrhf)
 ----------------------------------------------------------------------
 -----
 title
 -----
 Symbolic Z-matrix:
 Charge =  0 Multiplicity = 1

 SCF Done:  E(RHF) =  -343.586830495     A.U. after   16 cycles
 Normal termination of Gaussian 16 at Wed Apr  9 03:28:56 2025.
 Gaussian 16:  ES64L-G16RevC.01  3-Jul-2019

 ----------------------------------------------------------------------
 #t hf aug-cc-pvdz iop(5/13=1,5/36=2,99/5=2) pseudo=read geom=check gue
 ss=(read,tcheck) scf=(maxcycle=1)
 ----------------------------------------------------------------------
 -----
 title
 -----
 Structure from the checkpoint file:  "Grambow2020_wb97xd3_006719_reverse_mol2.chk"
 Charge =  0 Multiplicity = 1

                         Standard orientation:
 ---------------------------------------------------------------------
 Center     Atomic      Atomic             Coordinates (Angstroms)
 Number     Number       Type             X           Y           Z
 ---------------------------------------------------------------------
      1          8           0        2.700288    0.339756    0.002263
      2          6           0        1.393825    0.192385    0.411373
      3          6           0       -1.475681    1.538668    0.071406
      4          8           0        0.664920   -0.406524   -0.660369
      5          6           0       -0.612319   -0.793753   -0.467879
      6          6           0       -1.347409   -0.875073    0.765046
      7          6           0       -1.878315    0.236326   -0.205327
      8          1           0        3.084265   -0.528115   -0.142760
      9          1           0        1.304474   -0.456984    1.293396
     10          1           0        0.977884    1.179169    0.618078
     11          1           0       -2.152412    2.237221   -0.448938
     12          1           0       -0.916811   -1.451298   -1.272538
     13          1           0       -0.924280   -0.472486    1.672899
     14          1           0       -2.032201   -1.702724    0.894319
     15          1           0       -2.743185   -0.061958   -0.797320
 ---------------------------------------------------------------------

 SCF Done:  E(RHF) =  -343.938164933     A.U. after    2 cycles

 The electronic state is 1-A.
 Alpha  occ. eigenvalues --  -20.57224 -20.56129 -11.34403 -11.34072 -11.26907
 Alpha  occ. eigenvalues --  -11.24596 -11.24022  -1.52648  -1.45532  -1.15938
 Alpha  occ. eigenvalues --   -0.96605  -0.94164  -0.82785  -0.77011  -0.73283
 Alpha  occ. eigenvalues --   -0.72000  -0.68273  -0.64981  -0.61042  -0.57610
 Alpha  occ. eigenvalues --   -0.55776  -0.54418  -0.50493  -0.47731  -0.46146
 Alpha  occ. eigenvalues --   -0.38796  -0.34298
 Alpha virt. eigenvalues --    0.02859   0.03523   0.03740   0.04633   0.05980
 Alpha virt. eigenvalues --    0.06502   0.06747   0.07454   0.08455   0.11286
 Alpha virt. eigenvalues --    0.11840   0.12519   0.13434   0.13527   0.14489

 Mulliken charges:
               1
     1  O   -1.167740
     2  C    1.251423
     3  C   -0.581526
     4  O   -1.595509
     5  C    1.492217
     6  C    0.220161
     7  C    0.329685
     8  H    0.286914
     9  H    0.079760
    10  H    0.116197
    11  H    0.004304
    12  H   -0.184229
    13  H   -0.003456
    14  H   -0.072060
    15  H   -0.176140
 Sum of Mulliken charges =  -0.00000

 Dipole moment (field-independent basis, Debye):
    X=             -1.4905    Y=             -3.6800    Z=              0.4122  Tot=              3.9917

 Test job not archived.
 1\1\GINC-SE247\SP\RHF\Aug-CC-pVDZ\C5H8O2\OHZDE\09-Apr-2025\0\\#t hf au
 g-cc-pvdz iop(5/13=1,5/36=2,99/5=2) pseudo=read geom=check guess=(read
 ,tcheck) scf=(maxcycle=1)\\title\\0,1\O,0,2.36771951,1.57398853,0.9380
 455\C,0,1.42576817,0.91254245,0.18230074\C,0,0.16946523,-1.98858548,-0
 .22670061\O,0,0.26318217,0.73327437,0.99154948\C,0,-0.86486551,0.23798
 596,0.4433375\C,0,-1.16407475,0.01851852,-0.94568382\C,0,-1.0383031,-1
 .30723121,-0.11787975\H,0,2.04068426,2.45111866,1.15102765\H,0,1.13731
 43,1.48006007,-0.71343766\H,0,1.82203023,-0.06515078,-0.09440831\H,0,0

 Normal termination of Gaussian 16 at Wed Apr  9 03:29:01 2025.
