 Gaussian 16, Revision C.01,

 ----------------------------------------------------------------------
 #t hf aug-cc-pvdz symm=none int=(grid=ultrafine) guess=(read,tcheck) s
 table=(opt,rrhf)
 ----------------------------------------------------------------------
 -----
 title
 -----
 Symbolic Z-matrix:
 Charge =  0 Multiplicity = 1

 SCF Done:  E(RHF) =  -317.621487886     A.U. after   16 cycles
 Normal termination of Gaussian 16 at Wed Apr  9 18:42:22 2025.
 Gaussian 16:  ES64L-G16RevC.01  3-Jul-2019

 ----------------------------------------------------------------------
 #t hf aug-cc-pvdz iop(5/13=1,5/36=2,99/5=2) pseudo=read geom=check gue
 ss=(read,tcheck) scf=(maxcycle=1)
 ----------------------------------------------------------------------
 -----
 title
 -----
 Structure from the checkpoint file:  "Grambow2020_wb97xd3_007981_reverse_mol2.chk"
 Charge =  0 Multiplicity = 1

                         Standard orientation:
 ---------------------------------------------------------------------
 Center     Atomic      Atomic             Coordinates (Angstroms)
 Number     Number       Type             X           Y           Z
 ---------------------------------------------------------------------
      1          7           0       -1.683657   -0.000809   -0.751836
      2          6           0        1.250011    0.001957   -0.804869
      3          7           0        1.141719    1.120939   -0.088451
      4          6           0        0.019999    1.191789    0.535284
      5          6           0       -0.919102   -0.002170    0.489115
      6          6           0        0.023650   -1.193708    0.533274
      7          7           0        1.145235   -1.117579   -0.089958
      8          1           0       -2.267830   -0.821342   -0.830475
      9          1           0       -2.264216    0.822402   -0.830503
     10          1           0       -0.206144    2.071356    1.128925
     11          1           0       -1.533875   -0.003880    1.399208
     12          1           0       -0.198367   -2.073593    1.127730
 ---------------------------------------------------------------------

 SCF Done:  E(RHF) =  -317.943245781     A.U. after    2 cycles

 The electronic state is 1-A.
 Alpha  occ. eigenvalues --  -15.53378 -15.53339 -15.51530 -11.31215 -11.31185
 Alpha  occ. eigenvalues --  -11.30734 -11.30456  -1.35109  -1.23087  -1.21319
 Alpha  occ. eigenvalues --   -1.03719  -0.92171  -0.89564  -0.75471  -0.74339
 Alpha  occ. eigenvalues --   -0.70221  -0.68699  -0.66800  -0.61929  -0.59063
 Alpha  occ. eigenvalues --   -0.54940  -0.47836  -0.46061  -0.45343  -0.34752
 Alpha virt. eigenvalues --    0.02203   0.02721   0.03647   0.04513   0.04999
 Alpha virt. eigenvalues --    0.05969   0.09645   0.10101   0.10446   0.10595
 Alpha virt. eigenvalues --    0.11260   0.12566   0.13340   0.13713   0.13919

 Mulliken charges:
               1
     1  N    0.415859
     2  C   -0.818926
     3  N    0.908986
     4  C   -0.506962
     5  C   -0.657895
     6  C   -0.503807
     7  N    0.909051
     8  H    0.166289
     9  H    0.166887
    10  H   -0.075175
    11  H    0.071370
    12  H   -0.075676
 Sum of Mulliken charges =   0.00000

 Dipole moment (field-independent basis, Debye):
    X=             -5.2991    Y=             -0.0085    Z=              3.6372  Tot=              6.4272

 Test job not archived.
 1\1\GINC-SE014\SP\RHF\Aug-CC-pVDZ\C4H5N3\OHZDE\09-Apr-2025\0\\#t hf au
 g-cc-pvdz iop(5/13=1,5/36=2,99/5=2) pseudo=read geom=check guess=(read
 ,tcheck) scf=(maxcycle=1)\\title\\0,1\N,0,1.25455658,0.0197256,0.90206
 739\C,0,0.33160955,-0.34220621,-1.85952626\N,0,-0.41615249,-1.32292012
 ,-1.35340987\C,0,-0.63657645,-1.16664975,-0.09670236\C,0,-0.16297866,0
 .11144029,0.57543798\C,0,-0.39814692,1.17496077,-0.48480433\N,0,-0.192
 79991,0.87446095,-1.7175648\H,0,1.60375084,0.88386474,1.29199538\H,0,1
 .43875365,-0.73058116,1.55324\H,0,-1.20622565,-1.91616559,0.44266309\H

 Normal termination of Gaussian 16 at Wed Apr  9 18:42:27 2025.
