 Gaussian 16, Revision C.01,

 ----------------------------------------------------------------------
 #t hf aug-cc-pvdz symm=none int=(grid=ultrafine) guess=(read,tcheck) s
 table=(opt,rrhf)
 ----------------------------------------------------------------------
 -----
 title
 -----
 Symbolic Z-matrix:
 Charge =  0 Multiplicity = 1

 SCF Done:  E(RHF) =  -286.774037113     A.U. after   15 cycles
 Normal termination of Gaussian 16 at Wed Apr  9 19:08:04 2025.
 Gaussian 16:  ES64L-G16RevC.01  3-Jul-2019

 ----------------------------------------------------------------------
 #t hf aug-cc-pvdz iop(5/13=1,5/36=2,99/5=2) pseudo=read geom=check gue
 ss=(read,tcheck) scf=(maxcycle=1)
 ----------------------------------------------------------------------
 -----
 title
 -----
 Structure from the checkpoint file:  "Grambow2020_wb97xd3_008601_reverse_mol2.chk"
 Charge =  0 Multiplicity = 1

                         Standard orientation:
 ---------------------------------------------------------------------
 Center     Atomic      Atomic             Coordinates (Angstroms)
 Number     Number       Type             X           Y           Z
 ---------------------------------------------------------------------
      1          6           0       -1.479599   -0.774836    0.538372
      2          6           0       -1.215251   -0.003042   -0.738020
      3          6           0       -0.958775    1.351401   -0.359482
      4          6           0        2.114588   -0.424715   -0.317648
      5          6           0        0.825501   -0.198354    0.449229
      6          6           0        0.327285    1.275328    0.381489
      7          7           0       -0.254381   -1.000017   -0.147837
      8          1           0       -2.236059   -1.545680    0.457344
      9          1           0       -1.467258   -0.243288    1.486471
     10          1           0       -1.782218   -0.298861   -1.609770
     11          1           0        1.987509   -0.141597   -1.365447
     12          1           0        2.410377   -1.473494   -0.284540
     13          1           0        2.922489    0.178275    0.102922
     14          1           0        0.953010   -0.521332    1.486241
     15          1           0        0.316716    1.839997    1.316604
     16          1           0        0.993609    1.851415   -0.278609
 ---------------------------------------------------------------------

 SCF Done:  E(RHF) =  -287.079666273     A.U. after    2 cycles

 The electronic state is 1-A.
 Alpha  occ. eigenvalues --  -15.51613 -11.29253 -11.27001 -11.26972 -11.26016
 Alpha  occ. eigenvalues --  -11.24050 -11.22816  -1.31220  -1.07848  -1.03517
 Alpha  occ. eigenvalues --   -0.92959  -0.88433  -0.80808  -0.76288  -0.69258
 Alpha  occ. eigenvalues --   -0.66466  -0.62212  -0.58068  -0.56444  -0.54747
 Alpha  occ. eigenvalues --   -0.53972  -0.51744  -0.49647  -0.47804  -0.41988
 Alpha  occ. eigenvalues --   -0.35976
 Alpha virt. eigenvalues --    0.03429   0.03802   0.04064   0.04557   0.05256
 Alpha virt. eigenvalues --    0.05537   0.06233   0.06919   0.08056   0.08604
 Alpha virt. eigenvalues --    0.10715   0.11820   0.12894   0.13725   0.13901

 Mulliken charges:
               1
     1  C    0.275317
     2  C    0.065936
     3  C   -0.567168
     4  C   -0.268985
     5  C   -0.849368
     6  C   -0.048812
     7  N    0.760055
     8  H   -0.099871
     9  H   -0.034973
    10  H   -0.146885
    11  H    0.209391
    12  H    0.154624
    13  H    0.206224
    14  H   -0.044986
    15  H    0.156261
    16  H    0.233240
 Sum of Mulliken charges =   0.00000

 Dipole moment (field-independent basis, Debye):
    X=              0.7723    Y=             -0.7593    Z=              1.4718  Tot=              1.8273

 Test job not archived.
 1\1\GINC-SE083\SP\RHF\Aug-CC-pVDZ\C6H9N1\OHZDE\09-Apr-2025\0\\#t hf au
 g-cc-pvdz iop(5/13=1,5/36=2,99/5=2) pseudo=read geom=check guess=(read
 ,tcheck) scf=(maxcycle=1)\\title\\0,1\C,0,1.77282548,0.65149452,-0.308
 83891\C,0,1.28143133,0.08365809,1.00676533\C,0,0.29938521,0.99198387,1
 .51086514\C,0,-1.32793382,-1.36955221,-0.58123482\C,0,-0.45569412,-0.1
 2850124,-0.59003096\C,0,-0.81968417,0.87975697,0.53933753\N,0,0.944392
 57,-0.50420472,-0.33724668\H,0,2.82781496,0.50371155,-0.50417002\H,0,1
 .37178791,1.60089111,-0.6543857\H,0,2.01211924,-0.42928407,1.61659575\

 Normal termination of Gaussian 16 at Wed Apr  9 19:08:09 2025.
