 Gaussian 16, Revision C.01,

 ----------------------------------------------------------------------
 #t hf aug-cc-pvdz symm=none int=(grid=ultrafine) guess=(read,tcheck) s
 table=(opt,rrhf)
 ----------------------------------------------------------------------
 -----
 title
 -----
 Symbolic Z-matrix:
 Charge =  0 Multiplicity = 1

 SCF Done:  E(RHF) =  -359.621848815     A.U. after   15 cycles
 Normal termination of Gaussian 16 at Wed Apr  9 03:52:40 2025.
 Gaussian 16:  ES64L-G16RevC.01  3-Jul-2019

 ----------------------------------------------------------------------
 #t hf aug-cc-pvdz iop(5/13=1,5/36=2,99/5=2) pseudo=read geom=check gue
 ss=(read,tcheck) scf=(maxcycle=1)
 ----------------------------------------------------------------------
 -----
 title
 -----
 Structure from the checkpoint file:  "Grambow2020_wb97xd3_008274_forward_mol1.chk"
 Charge =  0 Multiplicity = 1

                         Standard orientation:
 ---------------------------------------------------------------------
 Center     Atomic      Atomic             Coordinates (Angstroms)
 Number     Number       Type             X           Y           Z
 ---------------------------------------------------------------------
      1          6           0        2.372011   -0.548516    0.016843
      2          6           0        0.963743   -0.077869    0.076727
      3          6           0        0.423060    1.265177   -0.319086
      4          7           0       -0.928608    1.145814    0.168176
      5          6           0       -1.299156   -0.132233   -0.025906
      6          8           0       -2.302227   -0.752910   -0.045209
      7          8           0        0.015063   -0.939149   -0.125042
      8          1           0        2.628154   -0.747713   -1.026856
      9          1           0        2.486823   -1.474768    0.576612
     10          1           0        3.049531    0.208806    0.406786
     11          1           0        0.636609    0.328954    1.589619
     12          1           0        0.458779    1.329604   -1.413119
     13          1           0        0.952300    2.110401    0.115691
     14          1           0       -0.172570    0.721137    1.444564
 ---------------------------------------------------------------------

 SCF Done:  E(RHF) =  -359.987393491     A.U. after    2 cycles

 The electronic state is 1-A.
 Alpha  occ. eigenvalues --  -20.62204 -20.53192 -15.50081 -11.41016 -11.40971
 Alpha  occ. eigenvalues --  -11.30280 -11.29082  -1.57580  -1.48415  -1.24761
 Alpha  occ. eigenvalues --   -1.09864  -0.99061  -0.85487  -0.81171  -0.78208
 Alpha  occ. eigenvalues --   -0.71949  -0.66579  -0.65156  -0.63848  -0.62063
 Alpha  occ. eigenvalues --   -0.59456  -0.57056  -0.55115  -0.52412  -0.48496
 Alpha  occ. eigenvalues --   -0.45498  -0.39419
 Alpha virt. eigenvalues --    0.02100   0.02738   0.03431   0.04676   0.06209
 Alpha virt. eigenvalues --    0.06295   0.07695   0.08512   0.09217   0.09931
 Alpha virt. eigenvalues --    0.11965   0.12618   0.12937   0.13441   0.14655

 Mulliken charges:
               1
     1  C   -0.484727
     2  C    0.709833
     3  C   -0.509247
     4  N    0.265197
     5  C    1.208190
     6  O   -1.194428
     7  O   -1.472838
     8  H    0.299203
     9  H    0.188353
    10  H    0.236721
    11  H    0.365575
    12  H    0.150320
    13  H    0.041198
    14  H    0.196651
 Sum of Mulliken charges =   0.00000

 Dipole moment (field-independent basis, Debye):
    X=              7.3069    Y=              0.5411    Z=             -0.5390  Tot=              7.3467

 Test job not archived.
 1\1\GINC-SE253\SP\RHF\Aug-CC-pVDZ\C4H7N1O2\OHZDE\09-Apr-2025\0\\#t hf
 aug-cc-pvdz iop(5/13=1,5/36=2,99/5=2) pseudo=read geom=check guess=(re
 ad,tcheck) scf=(maxcycle=1)\\title\\0,1\C,0,-1.62349901,-0.91002928,-0
 .19448043\C,0,-0.28202751,-0.29035019,-0.03711692\C,0,0.04096487,1.116
 60743,0.37389078\N,0,1.46228267,1.12931226,0.13228665\C,0,1.9211203,-0
 .09306213,0.45422864\O,0,2.96307081,-0.59914743,0.67779066\O,0,0.69907
 674,-1.03514443,0.36935929\H,0,-2.03759232,-1.10014721,0.79898777\H,0,
 -1.54311872,-1.86194022,-0.71589241\H,0,-2.29541663,-0.24527142,-0.734

 Normal termination of Gaussian 16 at Wed Apr  9 03:52:45 2025.
