 Gaussian 16, Revision C.01,

 ----------------------------------------------------------------------
 #t hf aug-cc-pvdz symm=none int=(grid=ultrafine) guess=(read,tcheck) s
 table=(opt,rrhf)
 ----------------------------------------------------------------------
 -----
 title
 -----
 Symbolic Z-matrix:
 Charge =  0 Multiplicity = 1

 SCF Done:  E(RHF) =  -305.733216074     A.U. after   15 cycles
 Normal termination of Gaussian 16 at Wed Apr  9 16:02:54 2025.
 Gaussian 16:  ES64L-G16RevC.01  3-Jul-2019

 ----------------------------------------------------------------------
 #t hf aug-cc-pvdz iop(5/13=1,5/36=2,99/5=2) pseudo=read geom=check gue
 ss=(read,tcheck) scf=(maxcycle=1)
 ----------------------------------------------------------------------
 -----
 title
 -----
 Structure from the checkpoint file:  "Grambow2020_b97d3_007100_forward_mol1.chk"
 Charge =  0 Multiplicity = 1

                         Standard orientation:
 ---------------------------------------------------------------------
 Center     Atomic      Atomic             Coordinates (Angstroms)
 Number     Number       Type             X           Y           Z
 ---------------------------------------------------------------------
      1          6           0       -0.808689    1.899335    0.244213
      2          6           0       -0.629696   -0.361776   -0.527079
      3          6           0       -1.983778   -0.851887   -0.088366
      4          8           0        0.306013   -0.914979    0.347907
      5          6           0        1.621346   -0.523136    0.225792
      6          8           0        2.022910    0.420198   -0.409265
      7          1           0       -1.812997    2.214958   -0.047034
      8          1           0       -0.731616    1.562416    1.278625
      9          1           0       -0.005697    2.571903   -0.064994
     10          1           0       -0.515706    0.866387   -0.653396
     11          1           0       -2.042087   -1.916405   -0.368262
     12          1           0       -2.774940   -0.319992   -0.629583
     13          1           0       -2.172713   -0.796711    0.997154
     14          1           0        2.229270   -1.199525    0.850992
 ---------------------------------------------------------------------

 SCF Done:  E(RHF) =  -306.044544043     A.U. after    2 cycles

 The electronic state is 1-A.
 Alpha  occ. eigenvalues --  -20.61678 -20.56120 -11.40903 -11.32333 -11.25901
 Alpha  occ. eigenvalues --  -11.24615  -1.55614  -1.47215  -1.04828  -0.94503
 Alpha  occ. eigenvalues --   -0.90650  -0.77187  -0.74253  -0.68476  -0.65313
 Alpha  occ. eigenvalues --   -0.59825  -0.58986  -0.58151  -0.56648  -0.56421
 Alpha  occ. eigenvalues --   -0.52754  -0.49574  -0.46248  -0.31279
 Alpha virt. eigenvalues --    0.03457   0.03793   0.04206   0.05059   0.05832
 Alpha virt. eigenvalues --    0.06783   0.07327   0.07849   0.09250   0.10095
 Alpha virt. eigenvalues --    0.11070   0.13851   0.14407   0.14805   0.15517

 Mulliken charges:
               1
     1  C   -0.712000
     2  C    0.267425
     3  C   -0.530618
     4  O   -1.155752
     5  C    1.374730
     6  O   -0.913216
     7  H    0.087892
     8  H    0.168709
     9  H    0.072267
    10  H    0.652366
    11  H    0.189068
    12  H    0.198736
    13  H    0.181283
    14  H    0.119109
 Sum of Mulliken charges =  -0.00000

 Dipole moment (field-independent basis, Debye):
    X=             -1.4485    Y=             -0.9756    Z=              1.8273  Tot=              2.5276

 Test job not archived.
 1\1\GINC-SE232\SP\RHF\Aug-CC-pVDZ\C4H8O2\OHZDE\09-Apr-2025\0\\#t hf au
 g-cc-pvdz iop(5/13=1,5/36=2,99/5=2) pseudo=read geom=check guess=(read
 ,tcheck) scf=(maxcycle=1)\\title\\0,1\C,0,-0.12028389,1.70804445,-0.34
 911605\C,0,-0.21193025,-0.68504888,-0.4143643\C,0,-1.55574588,-0.87177
 564,0.23794654\O,0,0.75093696,-1.05818481,0.52416756\C,0,2.07779275,-0
 .8678068,0.20516117\O,0,2.49768587,-0.20237436,-0.70879611\H,0,-1.1164
 9123,2.03403693,-0.65632595\H,0,0.0249176,1.68230868,0.73149316\H,0,0.
 70509708,2.16714532,-0.89750142\H,0,-0.00433707,0.43174178,-0.91137138

 Normal termination of Gaussian 16 at Wed Apr  9 16:02:58 2025.
