 Gaussian 16, Revision C.01,

 ----------------------------------------------------------------------
 #t hf aug-cc-pvdz symm=none int=(grid=ultrafine) guess=(read,tcheck) s
 table=(opt,rrhf)
 ----------------------------------------------------------------------
 -----
 title
 -----
 Symbolic Z-matrix:
 Charge =  0 Multiplicity = 1

 SCF Done:  E(RHF) =  -359.684599103     A.U. after   15 cycles
 Normal termination of Gaussian 16 at Wed Apr  9 18:56:44 2025.
 Gaussian 16:  ES64L-G16RevC.01  3-Jul-2019

 ----------------------------------------------------------------------
 #t hf aug-cc-pvdz iop(5/13=1,5/36=2,99/5=2) pseudo=read geom=check gue
 ss=(read,tcheck) scf=(maxcycle=1)
 ----------------------------------------------------------------------
 -----
 title
 -----
 Structure from the checkpoint file:  "Grambow2020_wb97xd3_008375_reverse_mol2.chk"
 Charge =  0 Multiplicity = 1

                         Standard orientation:
 ---------------------------------------------------------------------
 Center     Atomic      Atomic             Coordinates (Angstroms)
 Number     Number       Type             X           Y           Z
 ---------------------------------------------------------------------
      1          8           0        1.718448   -1.488404    0.272875
      2          6           0        1.066661   -0.520649    0.060555
      3          6           0        1.126985    0.669086   -0.884997
      4          7           0        0.004632    1.278279   -0.134540
      5          6           0       -0.223015    0.077869    0.671199
      6          6           0       -1.446648   -0.730799    0.321897
      7          8           0       -2.207868   -0.416511   -0.550635
      8          1           0        0.167504    4.137988    1.676999
      9          1           0        0.184626    3.496903    1.292535
     10          1           0        0.899261    0.383647   -1.917084
     11          1           0        2.056713    1.240450   -0.862266
     12          1           0       -0.798751    1.490309   -0.714085
     13          1           0       -0.178251    0.219016    1.756685
     14          1           0       -1.592073   -1.649989    0.919149
 ---------------------------------------------------------------------

 SCF Done:  E(RHF) =  -360.050400181     A.U. after    2 cycles

 The electronic state is 1-A.
 Alpha  occ. eigenvalues --  -20.57588 -20.57495 -15.51694 -11.37089 -11.36863
 Alpha  occ. eigenvalues --  -11.30282 -11.29400  -1.51536  -1.51045  -1.27807
 Alpha  occ. eigenvalues --   -1.02069  -0.98314  -0.86127  -0.75876  -0.74709
 Alpha  occ. eigenvalues --   -0.72045  -0.69180  -0.66316  -0.63345  -0.59730
 Alpha  occ. eigenvalues --   -0.58760  -0.58336  -0.55389  -0.54362  -0.47426
 Alpha  occ. eigenvalues --   -0.44003  -0.41877
 Alpha virt. eigenvalues --    0.03479   0.04004   0.04757   0.05181   0.05803
 Alpha virt. eigenvalues --    0.06484   0.07524   0.09102   0.09223   0.09844
 Alpha virt. eigenvalues --    0.11760   0.12381   0.13615   0.13784   0.14158

 Mulliken charges:
               1
     1  O   -1.228166
     2  C    1.275468
     3  C   -0.267546
     4  N    0.362857
     5  C   -0.941542
     6  C    1.231243
     7  O   -1.154055
     8  H    0.060722
     9  H   -0.063546
    10  H    0.144686
    11  H    0.082136
    12  H    0.287840
    13  H    0.065029
    14  H    0.144873
 Sum of Mulliken charges =  -0.00000

 Dipole moment (field-independent basis, Debye):
    X=              0.0271    Y=              0.4963    Z=              0.2902  Tot=              0.5756

 Test job not archived.
 1\1\GINC-SE105\SP\RHF\Aug-CC-pVDZ\C4H7N1O2\OHZDE\09-Apr-2025\0\\#t hf
 aug-cc-pvdz iop(5/13=1,5/36=2,99/5=2) pseudo=read geom=check guess=(re
 ad,tcheck) scf=(maxcycle=1)\\title\\0,1\O,0,-0.22563705,-0.5133554,2.5
 9734873\C,0,-0.23956412,-0.14961312,1.46865341\C,0,-1.0487431,0.828204
 73,0.63063331\N,0,-0.36672114,0.30505884,-0.57565904\C,0,0.57109623,-0
 .50769564,0.20019712\C,0,1.98855078,0.00168707,0.26790603\O,0,2.348146
 51,1.00279047,-0.28709496\H,0,-1.86195698,-1.37013446,-3.11418924\H,0,
 -1.56875265,-1.02484408,-2.51929276\H,0,-0.82103757,1.86903781,0.88233

 Normal termination of Gaussian 16 at Wed Apr  9 18:56:48 2025.
