 Gaussian 16, Revision C.01,

 ----------------------------------------------------------------------
 #t hf aug-cc-pvdz symm=none int=(grid=ultrafine) guess=(read,tcheck) s
 table=(opt,rrhf)
 ----------------------------------------------------------------------
 -----
 title
 -----
 Symbolic Z-matrix:
 Charge =  0 Multiplicity = 1

 SCF Done:  E(RHF) =  -305.905431870     A.U. after   14 cycles
 Normal termination of Gaussian 16 at Wed Apr  9 16:00:53 2025.
 Gaussian 16:  ES64L-G16RevC.01  3-Jul-2019

 ----------------------------------------------------------------------
 #t hf aug-cc-pvdz iop(5/13=1,5/36=2,99/5=2) pseudo=read geom=check gue
 ss=(read,tcheck) scf=(maxcycle=1)
 ----------------------------------------------------------------------
 -----
 title
 -----
 Structure from the checkpoint file:  "Grambow2020_b97d3_007090_forward_mol2.chk"
 Charge =  0 Multiplicity = 1

                         Standard orientation:
 ---------------------------------------------------------------------
 Center     Atomic      Atomic             Coordinates (Angstroms)
 Number     Number       Type             X           Y           Z
 ---------------------------------------------------------------------
      1          6           0       -0.872389    1.446396    0.292379
      2          6           0       -0.679643    0.045543   -0.281669
      3          6           0       -1.941974   -0.806230   -0.251007
      4          8           0        0.311054   -0.682221    0.531121
      5          6           0        1.610873   -0.438272    0.262397
      6          8           0        2.054106    0.323338   -0.572473
      7          1           0       -1.642171    1.980852   -0.281711
      8          1           0       -1.198111    1.388696    1.340018
      9          1           0        0.061548    2.017531    0.235915
     10          1           0       -0.277599    0.111793   -1.300834
     11          1           0       -1.744873   -1.811099   -0.645857
     12          1           0       -2.721529   -0.336746   -0.866162
     13          1           0       -2.320722   -0.901236    0.775780
     14          1           0        2.220973   -1.063352    0.941064
 ---------------------------------------------------------------------

 SCF Done:  E(RHF) =  -306.220159638     A.U. after    2 cycles

 The electronic state is 1-A.
 Alpha  occ. eigenvalues --  -20.59372 -20.54414 -11.39663 -11.30835 -11.23989
 Alpha  occ. eigenvalues --  -11.23603  -1.53511  -1.45065  -1.07584  -0.95104
 Alpha  occ. eigenvalues --   -0.88480  -0.78619  -0.73141  -0.68271  -0.65248
 Alpha  occ. eigenvalues --   -0.61735  -0.58511  -0.56503  -0.55426  -0.52937
 Alpha  occ. eigenvalues --   -0.51659  -0.49583  -0.45431  -0.44732
 Alpha virt. eigenvalues --    0.03663   0.03864   0.04208   0.04708   0.06309
 Alpha virt. eigenvalues --    0.07167   0.07428   0.07659   0.10385   0.11436
 Alpha virt. eigenvalues --    0.12988   0.14634   0.14930   0.15593   0.15713

 Mulliken charges:
               1
     1  C   -0.372895
     2  C    0.172386
     3  C   -0.303970
     4  O   -1.209898
     5  C    1.262248
     6  O   -0.985093
     7  H    0.199361
     8  H    0.238832
     9  H    0.123562
    10  H    0.197159
    11  H    0.166819
    12  H    0.208473
    13  H    0.213546
    14  H    0.089471
 Sum of Mulliken charges =   0.00000

 Dipole moment (field-independent basis, Debye):
    X=             -1.9468    Y=             -0.6710    Z=              0.7793  Tot=              2.2017

 Test job not archived.
 1\1\GINC-SE043\SP\RHF\Aug-CC-pVDZ\C4H8O2\OHZDE\09-Apr-2025\0\\#t hf au
 g-cc-pvdz iop(5/13=1,5/36=2,99/5=2) pseudo=read geom=check guess=(read
 ,tcheck) scf=(maxcycle=1)\\title\\0,1\C,0,-0.16611887,1.41874542,-0.07
 713152\C,0,-0.22345775,-0.09747155,-0.24105619\C,0,-1.53996377,-0.7120
 0656,0.21621323\O,0,0.81757142,-0.7180835,0.59730291\C,0,2.0660261,-0.
 75160077,0.0859418\O,0,2.42751851,-0.31786352,-0.9886323\H,0,-0.967859
 45,1.88693481,-0.66517667\H,0,-0.30264219,1.69462728,0.9774873\H,0,0.7
 9581251,1.80812259,-0.43025312\H,0,-0.00627427,-0.36888801,-1.28215672

 Normal termination of Gaussian 16 at Wed Apr  9 16:00:57 2025.
