 Gaussian 16, Revision C.01,

 ----------------------------------------------------------------------
 #t hf aug-cc-pvdz symm=none int=(grid=ultrafine) guess=(read,tcheck) s
 table=(opt,rrhf)
 ----------------------------------------------------------------------
 -----
 title
 -----
 Symbolic Z-matrix:
 Charge =  0 Multiplicity = 1

 SCF Done:  E(RHF) =  -354.684186244     A.U. after   14 cycles
 Normal termination of Gaussian 16 at Wed Apr  9 03:40:11 2025.
 Gaussian 16:  ES64L-G16RevC.01  3-Jul-2019

 ----------------------------------------------------------------------
 #t hf aug-cc-pvdz iop(5/13=1,5/36=2,99/5=2) pseudo=read geom=check gue
 ss=(read,tcheck) scf=(maxcycle=1)
 ----------------------------------------------------------------------
 -----
 title
 -----
 Structure from the checkpoint file:  "Grambow2020_wb97xd3_007470_forward_mol1.chk"
 Charge =  0 Multiplicity = 1

                         Standard orientation:
 ---------------------------------------------------------------------
 Center     Atomic      Atomic             Coordinates (Angstroms)
 Number     Number       Type             X           Y           Z
 ---------------------------------------------------------------------
      1          7           0       -2.314088   -0.619124   -0.085907
      2          6           0       -1.049470   -0.061919   -0.008651
      3          6           0       -0.648524    1.239236    0.005813
      4          7           0        0.771146    1.224101    0.007602
      5          6           0        1.140413   -0.056291    0.003282
      6          8           0        2.214281   -0.752124    0.001812
      7          7           0        0.078998   -0.854479   -0.005915
      8          1           0       -2.375851   -1.518763    0.363094
      9          1           0       -3.052128   -0.003991    0.213097
     10          1           0       -1.209213    2.156350    0.000408
     11          1           0        1.383505    2.016669    0.010292
     12          1           0        1.132526   -1.612910   -0.014516
 ---------------------------------------------------------------------

 SCF Done:  E(RHF) =  -355.044626680     A.U. after    2 cycles

 The electronic state is 1-A.
 Alpha  occ. eigenvalues --  -20.53048 -15.55890 -15.52221 -15.50403 -11.37131
 Alpha  occ. eigenvalues --  -11.32099 -11.25598  -1.48377  -1.33828  -1.23690
 Alpha  occ. eigenvalues --   -1.18458  -1.00648  -0.88066  -0.87412  -0.78148
 Alpha  occ. eigenvalues --   -0.72108  -0.68850  -0.67614  -0.64682  -0.62092
 Alpha  occ. eigenvalues --   -0.57780  -0.55314  -0.50702  -0.46825  -0.44619
 Alpha  occ. eigenvalues --   -0.30859
 Alpha virt. eigenvalues --    0.02741   0.03685   0.04621   0.05792   0.07095
 Alpha virt. eigenvalues --    0.09900   0.10205   0.11162   0.11608   0.11932
 Alpha virt. eigenvalues --    0.12815   0.13588   0.14618   0.15538   0.16985

 Mulliken charges:
               1
     1  N    0.706561
     2  C   -1.591747
     3  C    0.291067
     4  N    0.428493
     5  C    0.400600
     6  O   -1.396665
     7  N    0.516514
     8  H    0.073638
     9  H    0.183975
    10  H   -0.192338
    11  H    0.099481
    12  H    0.480422
 Sum of Mulliken charges =  -0.00000

 Dipole moment (field-independent basis, Debye):
    X=             -2.5923    Y=              2.1483    Z=              1.1164  Tot=              3.5470

 Test job not archived.
 1\1\GINC-SE454\SP\RHF\Aug-CC-pVDZ\C3H5N3O1\OHZDE\09-Apr-2025\0\\#t hf
 aug-cc-pvdz iop(5/13=1,5/36=2,99/5=2) pseudo=read geom=check guess=(re
 ad,tcheck) scf=(maxcycle=1)\\title\\0,1\N,0,2.11310144,-0.00643411,0.0
 5205619\C,0,0.73290331,0.09366941,0.02494095\C,0,-0.08209634,1.1839911
 6,0.05571601\N,0,-1.41330209,0.69188999,0.09343143\C,0,-1.33057887,-0.
 63799241,0.07470771\O,0,-2.10751895,-1.65463338,0.08819569\N,0,-0.0630
 8227,-1.03235778,0.03323595\H,0,2.45763294,-0.82588231,-0.42183112\H,0
 ,2.5905761,0.82568278,-0.25141491\H,0,0.13773301,2.23612715,0.06929566

 Normal termination of Gaussian 16 at Wed Apr  9 03:40:15 2025.
