 Gaussian 16, Revision C.01,

 ----------------------------------------------------------------------
 #t hf aug-cc-pvdz symm=none int=(grid=ultrafine) guess=(read,tcheck) s
 table=(opt,rrhf)
 ----------------------------------------------------------------------
 -----
 title
 -----
 Symbolic Z-matrix:
 Charge =  0 Multiplicity = 1

 SCF Done:  E(RHF) =  -306.568657492     A.U. after   16 cycles
 Normal termination of Gaussian 16 at Wed Apr  9 19:19:09 2025.
 Gaussian 16:  ES64L-G16RevC.01  3-Jul-2019

 ----------------------------------------------------------------------
 #t hf aug-cc-pvdz iop(5/13=1,5/36=2,99/5=2) pseudo=read geom=check gue
 ss=(read,tcheck) scf=(maxcycle=1)
 ----------------------------------------------------------------------
 -----
 title
 -----
 Structure from the checkpoint file:  "Grambow2020_wb97xd3_009281_forward_mol1.chk"
 Charge =  0 Multiplicity = 1

                         Standard orientation:
 ---------------------------------------------------------------------
 Center     Atomic      Atomic             Coordinates (Angstroms)
 Number     Number       Type             X           Y           Z
 ---------------------------------------------------------------------
      1          6           0       -1.782653   -1.069669   -0.133308
      2          6           0       -0.967021    0.059419    0.494455
      3          6           0       -1.236551    1.408666   -0.172307
      4          6           0        0.480276   -0.261010    0.484003
      5          8           0        1.081875   -0.413006   -1.078949
      6          6           0        1.646035   -0.185928    1.137685
      7          6           0        1.867983    0.197194   -0.226101
      8          1           0       -1.545043   -1.164907   -1.193513
      9          1           0       -2.848221   -0.857957   -0.033015
     10          1           0       -1.576324   -2.024797    0.350659
     11          1           0       -1.207019    0.133259    1.559602
     12          1           0       -0.966881    1.376490   -1.228818
     13          1           0       -2.297629    1.649405   -0.098372
     14          1           0       -0.670432    2.206882    0.309610
     15          1           0        2.408137    1.093644   -0.541121
 ---------------------------------------------------------------------

 SCF Done:  E(RHF) =  -306.884865604     A.U. after    2 cycles

 The electronic state is 1-A.
 Alpha  occ. eigenvalues --  -20.59140 -11.37822 -11.35206 -11.27719 -11.24675
 Alpha  occ. eigenvalues --  -11.24221 -11.23706  -1.52524  -1.15437  -1.10159
 Alpha  occ. eigenvalues --   -0.95663  -0.90280  -0.83450  -0.72199  -0.68594
 Alpha  occ. eigenvalues --   -0.65787  -0.62139  -0.60378  -0.58740  -0.56675
 Alpha  occ. eigenvalues --   -0.54942  -0.52005  -0.50865  -0.48217  -0.41716
 Alpha  occ. eigenvalues --   -0.36817
 Alpha virt. eigenvalues --    0.03238   0.03382   0.04214   0.04398   0.05928
 Alpha virt. eigenvalues --    0.06682   0.07088   0.07305   0.09018   0.09424
 Alpha virt. eigenvalues --    0.10575   0.12467   0.13130   0.13382   0.14332

 Mulliken charges:
               1
     1  C    0.020986
     2  C   -1.383220
     3  C   -0.080178
     4  C    0.715185
     5  O   -1.189688
     6  C   -0.528817
     7  C    1.075838
     8  H    0.253909
     9  H    0.142537
    10  H    0.155551
    11  H    0.252056
    12  H    0.274937
    13  H    0.142336
    14  H    0.174542
    15  H   -0.025974
 Sum of Mulliken charges =  -0.00000

 Dipole moment (field-independent basis, Debye):
    X=             -2.2193    Y=              1.4082    Z=             -1.4979  Tot=              3.0252

 Test job not archived.
 1\1\GINC-SE028\SP\RHF\Aug-CC-pVDZ\C6H8O1\OHZDE\09-Apr-2025\0\\#t hf au
 g-cc-pvdz iop(5/13=1,5/36=2,99/5=2) pseudo=read geom=check guess=(read
 ,tcheck) scf=(maxcycle=1)\\title\\0,1\C,0,-1.24763024,0.67723464,-1.15
 105627\C,0,-0.22523668,-0.26308961,-0.51490878\C,0,-0.7456183,-0.89716
 623,0.77537493\C,0,1.06458814,0.43067257,-0.28578014\O,0,0.91183946,1.
 7043205,0.80156958\C,0,2.40000567,0.338474,-0.29530301\C,0,2.00105123,
 0.98522371,0.92063554\H,0,-1.50407033,1.48160153,-0.46055243\H,0,-2.15
 663223,0.12601875,-1.39639608\H,0,-0.86003486,1.12355008,-2.0673733\H,

 Normal termination of Gaussian 16 at Wed Apr  9 19:19:14 2025.
