 Gaussian 16, Revision C.01,

 ----------------------------------------------------------------------
 #t hf aug-cc-pvdz symm=none int=(grid=ultrafine) guess=(read,tcheck) s
 table=(opt,rrhf)
 ----------------------------------------------------------------------
 -----
 title
 -----
 Symbolic Z-matrix:
 Charge =  0 Multiplicity = 1

 SCF Done:  E(RHF) =  -342.395913799     A.U. after   17 cycles
 Normal termination of Gaussian 16 at Wed Apr  9 19:04:53 2025.
 Gaussian 16:  ES64L-G16RevC.01  3-Jul-2019

 ----------------------------------------------------------------------
 #t hf aug-cc-pvdz iop(5/13=1,5/36=2,99/5=2) pseudo=read geom=check gue
 ss=(read,tcheck) scf=(maxcycle=1)
 ----------------------------------------------------------------------
 -----
 title
 -----
 Structure from the checkpoint file:  "Grambow2020_wb97xd3_008516_forward_mol1.chk"
 Charge =  0 Multiplicity = 1

                         Standard orientation:
 ---------------------------------------------------------------------
 Center     Atomic      Atomic             Coordinates (Angstroms)
 Number     Number       Type             X           Y           Z
 ---------------------------------------------------------------------
      1          8           0       -2.178716   -0.958241   -0.014479
      2          6           0       -1.234576   -0.321719   -0.019201
      3          6           0       -0.585044    1.674472    0.192092
      4          8           0        0.601547    1.723503   -0.138758
      5          6           0        1.522168   -0.231933   -0.469770
      6          6           0        1.327903   -0.971542    0.787111
      7          6           0        0.558440   -1.142779   -0.497289
      8          1           0       -0.882699    1.690649    1.252916
      9          1           0       -1.380375    1.954300   -0.518418
     10          1           0        2.264060    0.290681   -1.041019
     11          1           0        0.812874   -0.477172    1.614219
     12          1           0        2.076066   -1.695600    1.102899
     13          1           0        0.194080   -1.923947   -1.142367
 ---------------------------------------------------------------------

 SCF Done:  E(RHF) =  -342.736422671     A.U. after    2 cycles

 The electronic state is 1-A.
 Alpha  occ. eigenvalues --  -20.62805 -20.53081 -11.37323 -11.34097 -11.28371
 Alpha  occ. eigenvalues --  -11.25843 -11.24931  -1.58226  -1.45453  -1.18234
 Alpha  occ. eigenvalues --   -0.89220  -0.84287  -0.80412  -0.78054  -0.70704
 Alpha  occ. eigenvalues --   -0.68078  -0.67039  -0.63333  -0.61737  -0.61478
 Alpha  occ. eigenvalues --   -0.56607  -0.50885  -0.47328  -0.44285  -0.41197
 Alpha  occ. eigenvalues --   -0.33529
 Alpha virt. eigenvalues --    0.03627   0.04003   0.04069   0.04460   0.05963
 Alpha virt. eigenvalues --    0.07312   0.07981   0.09001   0.10310   0.10536
 Alpha virt. eigenvalues --    0.12159   0.13293   0.14025   0.14496   0.14545

 Mulliken charges:
               1
     1  O   -0.962100
     2  C    0.845628
     3  C    0.500087
     4  O   -0.988608
     5  C    0.568114
     6  C    0.039212
     7  C    0.250368
     8  H    0.170825
     9  H    0.138217
    10  H   -0.237539
    11  H    0.010581
    12  H   -0.113943
    13  H   -0.220842
 Sum of Mulliken charges =  -0.00000

 Dipole moment (field-independent basis, Debye):
    X=             -0.2533    Y=             -0.7570    Z=             -0.1001  Tot=              0.8045

 Test job not archived.
 1\1\GINC-SE108\SP\RHF\Aug-CC-pVDZ\C5H6O2\OHZDE\09-Apr-2025\0\\#t hf au
 g-cc-pvdz iop(5/13=1,5/36=2,99/5=2) pseudo=read geom=check guess=(read
 ,tcheck) scf=(maxcycle=1)\\title\\0,1\O,0,1.01952201,2.16265354,0.9924
 9933\C,0,0.81281399,1.17263459,0.46931934\C,0,1.7905913,-0.55212555,-0
 .25211614\O,0,0.98248161,-1.18942799,-0.93084063\C,0,-1.06949758,-0.44
 270756,-0.81842538\C,0,-1.41243711,-0.46032577,0.61216671\C,0,-1.04603
 227,0.74103997,-0.22062854\H,0,2.05155429,-0.86855819,0.77061392\H,0,2
 .51914314,0.12350003,-0.73005326\H,0,-1.23793213,-0.96778629,-1.738086

 Normal termination of Gaussian 16 at Wed Apr  9 19:04:57 2025.
