 Gaussian 16, Revision C.01,

 ----------------------------------------------------------------------
 #t hf aug-cc-pvdz symm=none int=(grid=ultrafine) guess=(read,tcheck) s
 table=(opt,rrhf)
 ----------------------------------------------------------------------
 -----
 title
 -----
 Symbolic Z-matrix:
 Charge =  0 Multiplicity = 1

 SCF Done:  E(RHF) =  -283.521145017     A.U. after   16 cycles
 Normal termination of Gaussian 16 at Wed Apr  9 16:13:42 2025.
 Gaussian 16:  ES64L-G16RevC.01  3-Jul-2019

 ----------------------------------------------------------------------
 #t hf aug-cc-pvdz iop(5/13=1,5/36=2,99/5=2) pseudo=read geom=check gue
 ss=(read,tcheck) scf=(maxcycle=1)
 ----------------------------------------------------------------------
 -----
 title
 -----
 Structure from the checkpoint file:  "Grambow2020_b97d3_007170_forward_mol1.chk"
 Charge =  0 Multiplicity = 1

                         Standard orientation:
 ---------------------------------------------------------------------
 Center     Atomic      Atomic             Coordinates (Angstroms)
 Number     Number       Type             X           Y           Z
 ---------------------------------------------------------------------
      1          6           0        2.136089    0.375111   -0.022872
      2          7           0        1.091674   -0.632363    0.148792
      3          6           0       -0.190967   -0.491836   -0.156968
      4          8           0       -0.758287    1.134220   -0.088336
      5          6           0       -1.420541   -1.079023   -0.166698
      6          6           0       -1.768464    0.257689    0.141336
      7          1           0        2.911056    0.004780   -0.708309
      8          1           0        2.594333    0.618500    0.944961
      9          1           0        1.676175    1.273082   -0.439963
     10          1           0        1.363207   -1.568345    0.444974
     11          1           0       -2.656901    0.653112    0.654703
 ---------------------------------------------------------------------

 SCF Done:  E(RHF) =  -283.807159687     A.U. after    2 cycles

 The electronic state is 1-A.
 Alpha  occ. eigenvalues --  -20.57636 -15.57424 -11.40202 -11.35928 -11.30404
 Alpha  occ. eigenvalues --  -11.20110  -1.47859  -1.29250  -1.09898  -0.99877
 Alpha  occ. eigenvalues --   -0.87754  -0.80672  -0.72163  -0.67252  -0.65011
 Alpha  occ. eigenvalues --   -0.59900  -0.59055  -0.58795  -0.51330  -0.49241
 Alpha  occ. eigenvalues --   -0.36745  -0.34387
 Alpha virt. eigenvalues --    0.02472   0.04336   0.04549   0.04763   0.06131
 Alpha virt. eigenvalues --    0.06808   0.09110   0.09571   0.10868   0.12245
 Alpha virt. eigenvalues --    0.12850   0.13200   0.13978   0.15308   0.15919

 Mulliken charges:
               1
     1  C   -0.334007
     2  N    0.746867
     3  C   -0.485351
     4  O   -1.244521
     5  C   -0.366403
     6  C    1.105144
     7  H    0.155484
     8  H    0.133342
     9  H    0.106397
    10  H    0.182101
    11  H    0.000947
 Sum of Mulliken charges =  -0.00000

 Dipole moment (field-independent basis, Debye):
    X=              3.8655    Y=              1.3273    Z=              1.0855  Tot=              4.2288

 Test job not archived.
 1\1\GINC-SE097\SP\RHF\Aug-CC-pVDZ\C4H5N1O1\OHZDE\09-Apr-2025\0\\#t hf
 aug-cc-pvdz iop(5/13=1,5/36=2,99/5=2) pseudo=read geom=check guess=(re
 ad,tcheck) scf=(maxcycle=1)\\title\\0,1\C,0,-1.76884921,0.11900072,-0.
 03354223\N,0,-0.49830358,0.11686902,-0.75533479\C,0,0.67202691,-0.2879
 3128,-0.28113127\O,0,0.82986718,-0.1388692,1.42868939\C,0,1.99962213,-
 0.45263329,-0.54016546\C,0,2.04157096,-0.06987799,0.82162493\H,0,-2.49
 7672,-0.52335525,-0.54709754\H,0,-2.16846015,1.1397157,0.03262968\H,0,
 -1.58805171,-0.26330223,0.97293314\H,0,-0.50089114,0.35954406,-1.74458

 Normal termination of Gaussian 16 at Wed Apr  9 16:13:45 2025.
