 Gaussian 16, Revision C.01,

 ----------------------------------------------------------------------
 #t hf aug-cc-pvdz symm=none int=(grid=ultrafine) guess=(read,tcheck) s
 table=(opt,rrhf)
 ----------------------------------------------------------------------
 -----
 title
 -----
 Symbolic Z-matrix:
 Charge =  0 Multiplicity = 1

 SCF Done:  E(RHF) =  -354.695892185     A.U. after   16 cycles
 Normal termination of Gaussian 16 at Wed Apr  9 03:40:12 2025.
 Gaussian 16:  ES64L-G16RevC.01  3-Jul-2019

 ----------------------------------------------------------------------
 #t hf aug-cc-pvdz iop(5/13=1,5/36=2,99/5=2) pseudo=read geom=check gue
 ss=(read,tcheck) scf=(maxcycle=1)
 ----------------------------------------------------------------------
 -----
 title
 -----
 Structure from the checkpoint file:  "Grambow2020_wb97xd3_007473_reverse_mol2.chk"
 Charge =  0 Multiplicity = 1

                         Standard orientation:
 ---------------------------------------------------------------------
 Center     Atomic      Atomic             Coordinates (Angstroms)
 Number     Number       Type             X           Y           Z
 ---------------------------------------------------------------------
      1          7           0       -1.860702    0.172648    0.754557
      2          6           0       -0.889782   -0.310969   -0.077411
      3          6           0        1.819280   -1.059762    0.678087
      4          7           0        1.598713    0.009547   -0.055653
      5          6           0        0.316007    0.602218   -0.164338
      6          8           0        0.211583    1.780628   -0.358865
      7          7           0       -0.884248   -1.338966   -0.814850
      8          1           0       -2.782645   -0.219831    0.677689
      9          1           0       -1.821329    1.151158    0.983983
     10          1           0        2.911708   -1.217950    0.662144
     11          1           0        2.316248    0.595235   -0.480824
     12          1           0       -1.766010   -1.845163   -0.778473
 ---------------------------------------------------------------------

 SCF Done:  E(RHF) =  -355.048688862     A.U. after    2 cycles

 The electronic state is 1-A.
 Alpha  occ. eigenvalues --  -20.57003 -15.57884 -15.53633 -15.48889 -11.39707
 Alpha  occ. eigenvalues --  -11.34562 -11.28037  -1.52201  -1.29745  -1.27799
 Alpha  occ. eigenvalues --   -1.17608  -0.97629  -0.92538  -0.82139  -0.77369
 Alpha  occ. eigenvalues --   -0.75843  -0.71900  -0.66918  -0.64291  -0.61538
 Alpha  occ. eigenvalues --   -0.58306  -0.51524  -0.50695  -0.46466  -0.43405
 Alpha  occ. eigenvalues --   -0.37945
 Alpha virt. eigenvalues --    0.02809   0.03910   0.05271   0.05807   0.06169
 Alpha virt. eigenvalues --    0.06832   0.09329   0.10253   0.10760   0.11541
 Alpha virt. eigenvalues --    0.12016   0.13157   0.13808   0.15370   0.15702

 Mulliken charges:
               1
     1  N    0.609250
     2  C   -1.815228
     3  C   -0.455969
     4  N    0.621274
     5  C    0.899683
     6  O   -1.195927
     7  N    0.891269
     8  H    0.068744
     9  H    0.091539
    10  H    0.074407
    11  H    0.136491
    12  H    0.074468
 Sum of Mulliken charges =   0.00000

 Dipole moment (field-independent basis, Debye):
    X=             -0.8522    Y=              1.2406    Z=              0.5775  Tot=              1.6121

 Test job not archived.
 1\1\GINC-SE364\SP\RHF\Aug-CC-pVDZ\C3H5N3O1\OHZDE\09-Apr-2025\0\\#t hf
 aug-cc-pvdz iop(5/13=1,5/36=2,99/5=2) pseudo=read geom=check guess=(re
 ad,tcheck) scf=(maxcycle=1)\\title\\0,1\N,0,1.71358517,-0.84851423,0.3
 1161195\C,0,0.44936857,-0.70444079,-0.1881305\C,0,-0.92073717,1.805776
 3,-0.72859631\N,0,-1.30532047,1.03149343,0.26288097\C,0,-0.48611062,-0
 .00460527,0.77649583\O,0,-0.57499867,-0.32805693,1.92752723\N,0,-0.052
 35593,-1.12103331,-1.27226429\H,0,2.32108876,-1.51382494,-0.13361514\H
 ,0,1.82622264,-0.75316512,1.30654361\H,0,-1.70250777,2.57856043,-0.830

 Normal termination of Gaussian 16 at Wed Apr  9 03:40:16 2025.
