 Gaussian 16, Revision C.01,

 ----------------------------------------------------------------------
 #t hf aug-cc-pvdz symm=none int=(grid=ultrafine) guess=(read,tcheck) s
 table=(opt,rrhf)
 ----------------------------------------------------------------------
 -----
 title
 -----
 Symbolic Z-matrix:
 Charge =  0 Multiplicity = 1

 SCF Done:  E(RHF) =  -339.043374780     A.U. after   18 cycles
 Normal termination of Gaussian 16 at Wed Apr  9 15:49:34 2025.
 Gaussian 16:  ES64L-G16RevC.01  3-Jul-2019

 ----------------------------------------------------------------------
 #t hf aug-cc-pvdz iop(5/13=1,5/36=2,99/5=2) pseudo=read geom=check gue
 ss=(read,tcheck) scf=(maxcycle=1)
 ----------------------------------------------------------------------
 -----
 title
 -----
 Structure from the checkpoint file:  "Grambow2020_b97d3_006810_forward_mol1.chk"
 Charge =  0 Multiplicity = 1

                         Standard orientation:
 ---------------------------------------------------------------------
 Center     Atomic      Atomic             Coordinates (Angstroms)
 Number     Number       Type             X           Y           Z
 ---------------------------------------------------------------------
      1          8           0        1.602260    0.676386   -0.024323
      2          6           0        0.355631    0.939081    0.052660
      3          6           0       -1.340311   -0.292983   -0.004540
      4          8           0       -2.401042    0.232989   -0.055496
      5          6           0       -0.150789   -0.890773    0.084198
      6          8           0        1.643616   -0.729244   -0.063625
      7          1           0        0.084350    1.999982    0.177932
      8          1           0       -0.030213   -1.972982    0.175711
 ---------------------------------------------------------------------

 SCF Done:  E(RHF) =  -339.368511603     A.U. after    2 cycles

 The electronic state is 1-A.
 Alpha  occ. eigenvalues --  -20.70338 -20.60988 -20.60181 -11.41549 -11.41123
 Alpha  occ. eigenvalues --  -11.35408  -1.67179  -1.54366  -1.29619  -1.09605
 Alpha  occ. eigenvalues --   -0.90237  -0.78935  -0.75912  -0.72756  -0.68914
 Alpha  occ. eigenvalues --   -0.64668  -0.63232  -0.61143  -0.51521  -0.46337
 Alpha  occ. eigenvalues --   -0.41573  -0.38253
 Alpha virt. eigenvalues --    0.03056   0.03801   0.04013   0.06964   0.09393
 Alpha virt. eigenvalues --    0.10098   0.10988   0.11353   0.12693   0.12963
 Alpha virt. eigenvalues --    0.13490   0.14464   0.14779   0.16321   0.17520

 Mulliken charges:
               1
     1  O   -0.692822
     2  C    0.539808
     3  C    0.847959
     4  O   -0.964620
     5  C    0.735672
     6  O   -0.526276
     7  H    0.091898
     8  H   -0.031619
 Sum of Mulliken charges =  -0.00000

 Dipole moment (field-independent basis, Debye):
    X=             -0.4653    Y=              1.5371    Z=              0.3716  Tot=              1.6484

 Test job not archived.
 1\1\GINC-SE454\SP\RHF\Aug-CC-pVDZ\C3H2O3\OHZDE\09-Apr-2025\0\\#t hf au
 g-cc-pvdz iop(5/13=1,5/36=2,99/5=2) pseudo=read geom=check guess=(read
 ,tcheck) scf=(maxcycle=1)\\title\\0,1\O,0,-0.61971913,-0.88598741,1.40
 966483\C,0,-0.72720327,0.16823645,0.69827422\C,0,0.37983692,0.87112654
 ,-0.93814798\O,0,0.15110111,1.96684949,-1.32733206\C,0,0.62035153,-0.3
 7439894,-0.5246167\O,0,0.41276418,-1.60636609,0.78190407\H,0,-1.546335
 79,0.85693535,0.96193115\H,0,1.32204445,-1.04614439,-1.02509052\\Versi
 on=ES64L-G16RevC.01\State=1-A\HF=-339.3685116\RMSD=1.227e-02\Dipole=-0

 Normal termination of Gaussian 16 at Wed Apr  9 15:49:37 2025.
