 Gaussian 16, Revision C.01,

 ----------------------------------------------------------------------
 #t hf aug-cc-pvdz symm=none int=(grid=ultrafine) guess=(read,tcheck) s
 table=(opt,rrhf)
 ----------------------------------------------------------------------
 -----
 title
 -----
 Symbolic Z-matrix:
 Charge =  0 Multiplicity = 1

 SCF Done:  E(RHF) =  -379.484303386     A.U. after   13 cycles
 Normal termination of Gaussian 16 at Wed Apr  9 03:45:53 2025.
 Gaussian 16:  ES64L-G16RevC.01  3-Jul-2019

 ----------------------------------------------------------------------
 #t hf aug-cc-pvdz iop(5/13=1,5/36=2,99/5=2) pseudo=read geom=check gue
 ss=(read,tcheck) scf=(maxcycle=1)
 ----------------------------------------------------------------------
 -----
 title
 -----
 Structure from the checkpoint file:  "Grambow2020_wb97xd3_007851_forward_mol2.chk"
 Charge =  0 Multiplicity = 1

                         Standard orientation:
 ---------------------------------------------------------------------
 Center     Atomic      Atomic             Coordinates (Angstroms)
 Number     Number       Type             X           Y           Z
 ---------------------------------------------------------------------
      1          8           0        2.055474   -0.824539    0.008506
      2          6           0        0.676680   -0.720338    0.011211
      3          6           0        0.025293    0.361263    0.904404
      4          8           0        0.569722    1.382855   -0.007679
      5          6           0        0.019528    0.344477   -0.901380
      6          6           0       -1.223170    0.332347   -0.007730
      7          8           0       -2.040054   -0.795031   -0.074098
      8          1           0        2.400247    0.075506   -0.001930
      9          1           0        0.238029   -1.714503    0.021386
     10          1           0        0.118626    0.540167    1.974242
     11          1           0        0.104287    0.502502   -1.974597
     12          1           0       -1.768364    1.278036   -0.017410
     13          1           0       -2.763944   -0.694485    0.545448
 ---------------------------------------------------------------------

 SCF Done:  E(RHF) =  -379.867562989     A.U. after    2 cycles

 The electronic state is 1-A.
 Alpha  occ. eigenvalues --  -20.57300 -20.55777 -20.55312 -11.31243 -11.30905
 Alpha  occ. eigenvalues --  -11.30834 -11.30238  -1.51085  -1.47784  -1.45207
 Alpha  occ. eigenvalues --   -1.09527  -0.91955  -0.90877  -0.79043  -0.74133
 Alpha  occ. eigenvalues --   -0.72331  -0.68522  -0.63794  -0.60580  -0.59068
 Alpha  occ. eigenvalues --   -0.56282  -0.54302  -0.50852  -0.49521  -0.45448
 Alpha  occ. eigenvalues --   -0.42380  -0.41948
 Alpha virt. eigenvalues --    0.02916   0.03972   0.04316   0.04554   0.06209
 Alpha virt. eigenvalues --    0.06883   0.09865   0.10346   0.11515   0.12260
 Alpha virt. eigenvalues --    0.13675   0.14451   0.14643   0.15243   0.15592

 Mulliken charges:
               1
     1  O   -1.463909
     2  C    1.347575
     3  C    0.639700
     4  O   -1.416988
     5  C    0.569215
     6  C    1.113967
     7  O   -1.318683
     8  H    0.276410
     9  H    0.042507
    10  H   -0.088222
    11  H   -0.074746
    12  H    0.068760
    13  H    0.304413
 Sum of Mulliken charges =  -0.00000

 Dipole moment (field-independent basis, Debye):
    X=             -2.3251    Y=              0.6402    Z=              0.9939  Tot=              2.6084

 Test job not archived.
 1\1\GINC-SE398\SP\RHF\Aug-CC-pVDZ\C4H6O3\OHZDE\09-Apr-2025\0\\#t hf au
 g-cc-pvdz iop(5/13=1,5/36=2,99/5=2) pseudo=read geom=check guess=(read
 ,tcheck) scf=(maxcycle=1)\\title\\0,1\O,0,-2.2953662,-0.37790691,0.140
 65892\C,0,-0.96114536,-0.19181855,0.45236986\C,0,0.10327348,-0.8099095
 ,-0.4840778\O,0,-0.28086487,0.18042528,-1.50565657\C,0,-0.19619458,0.9
 5579121,-0.25214807\C,0,1.12517142,0.23393105,0.02347042\O,0,1.5751808
 ,0.21825004,1.34253435\H,0,-2.37425801,-0.26498732,-0.81332403\H,0,-0.
 81950158,-0.3080141,1.52349936\H,0,0.2423637,-1.8398612,-0.80830789\H,

 Normal termination of Gaussian 16 at Wed Apr  9 03:45:57 2025.
