 Gaussian 16, Revision C.01,

 ----------------------------------------------------------------------
 #t hf aug-cc-pvdz symm=none int=(grid=ultrafine) guess=(read,tcheck) s
 table=(opt,rrhf)
 ----------------------------------------------------------------------
 -----
 title
 -----
 Symbolic Z-matrix:
 Charge =  0 Multiplicity = 1

 SCF Done:  E(RHF) =  -307.671839760     A.U. after   17 cycles

 1\1\GINC-SE116\Stability\RHF\Aug-CC-pVDZ\C6H10O1\OHZDE\09-Apr-2025\0\\
 #t hf aug-cc-pvdz symm=none int=(grid=ultrafine) guess=(read,tcheck) s
 table=(opt,rrhf)\\title\\0,1\C,0,2.03501721,0.04427945,-0.21175502\C,0
 ,0.80410054,0.18113893,0.39866637\C,0,0.08946701,-0.89442411,0.8854058
 2\C,0,-1.39836153,-0.79324322,0.68350712\C,0,-1.07076767,-0.16505577,-
 0.63702864\C,0,-0.24110273,1.05357268,-0.2990529\O,0,-0.87960186,2.054
 77939,0.4661494\H,0,2.66251341,-0.81154858,0.01448559\H,0,2.53022906,0
 .90022399,-0.65377468\H,0,1.11078582,-0.54448739,-1.5396127\H,0,0.5645

 Normal termination of Gaussian 16 at Wed Apr  9 18:35:04 2025.
 Gaussian 16:  ES64L-G16RevC.01  3-Jul-2019

 ----------------------------------------------------------------------
 #t hf aug-cc-pvdz iop(5/13=1,5/36=2,99/5=2) pseudo=read geom=check gue
 ss=(read,tcheck) scf=(maxcycle=1)
 ----------------------------------------------------------------------
 -----
 title
 -----
 Structure from the checkpoint file:  "Grambow2020_wb97xd3_007734_reverse_mol1.chk"
 Charge =  0 Multiplicity = 1

                         Standard orientation:
 ---------------------------------------------------------------------
 Center     Atomic      Atomic             Coordinates (Angstroms)
 Number     Number       Type             X           Y           Z
 ---------------------------------------------------------------------
      1          6           0        2.136602   -0.297067   -0.046807
      2          6           0        0.824486   -0.102025   -0.429966
      3          6           0        0.287905    1.151715   -0.641319
      4          6           0       -1.136655    1.302615   -0.180352
      5          6           0       -0.746944    0.425050    0.970194
      6          6           0       -0.259558   -0.859959    0.338660
      7          8           0       -1.208816   -1.590391   -0.410345
      8          1           0        2.888423    0.449728   -0.280128
      9          1           0        2.501333   -1.289503    0.188348
     10          1           0        1.579489    0.240144    1.491077
     11          1           0        0.900408    2.012363   -0.892756
     12          1           0       -1.930825    0.928146   -0.835362
     13          1           0       -1.374871    2.327380    0.100903
     14          1           0        0.785301    0.576385    1.718978
     15          1           0       -1.200363    0.515311    1.950925
     16          1           0        0.163879   -1.552697    1.064021
     17          1           0       -1.277251   -1.206109   -1.285705
 ---------------------------------------------------------------------

 SCF Done:  E(RHF) =  -307.998865125     A.U. after    2 cycles

 The electronic state is 1-A.
 Alpha  occ. eigenvalues --  -20.55207 -11.29778 -11.28258 -11.27804 -11.25802
 Alpha  occ. eigenvalues --  -11.24295 -11.24132  -1.45746  -1.18673  -1.03279
 Alpha  occ. eigenvalues --   -0.96254  -0.89064  -0.80230  -0.76462  -0.69554
 Alpha  occ. eigenvalues --   -0.67706  -0.63642  -0.62080  -0.58935  -0.58555
 Alpha  occ. eigenvalues --   -0.55826  -0.54526  -0.51316  -0.48889  -0.43726
 Alpha  occ. eigenvalues --   -0.36002  -0.29107
 Alpha virt. eigenvalues --    0.03062   0.03403   0.03886   0.04268   0.05787
 Alpha virt. eigenvalues --    0.05820   0.06406   0.07006   0.07728   0.08504
 Alpha virt. eigenvalues --    0.10753   0.11230   0.12015   0.12720   0.13766

 Mulliken charges:
               1
     1  C   -0.293244
     2  C   -0.039123
     3  C    0.406522
     4  C   -0.084783
     5  C   -0.291751
     6  C    1.432275
     7  O   -1.472943
     8  H   -0.108645
     9  H   -0.089650
    10  H    0.086110
    11  H   -0.176218
    12  H    0.030258
    13  H    0.049182
    14  H    0.362647
    15  H   -0.121222
    16  H    0.000055
    17  H    0.310528
 Sum of Mulliken charges =   0.00000

 Dipole moment (field-independent basis, Debye):
    X=             -0.2195    Y=              2.0375    Z=             -0.5869  Tot=              2.1317

 Test job not archived.
 1\1\GINC-SE116\SP\RHF\Aug-CC-pVDZ\C6H10O1\OHZDE\09-Apr-2025\0\\#t hf a
 ug-cc-pvdz iop(5/13=1,5/36=2,99/5=2) pseudo=read geom=check guess=(rea
 d,tcheck) scf=(maxcycle=1)\\title\\0,1\C,0,2.03501721,0.04427945,-0.21
 175502\C,0,0.80410054,0.18113893,0.39866637\C,0,0.08946701,-0.89442411
 ,0.88540582\C,0,-1.39836153,-0.79324322,0.68350712\C,0,-1.07076767,-0.
 16505577,-0.63702864\C,0,-0.24110273,1.05357268,-0.2990529\O,0,-0.8796
 0186,2.05477939,0.4661494\H,0,2.66251341,-0.81154858,0.01448559\H,0,2.
 53022906,0.90022399,-0.65377468\H,0,1.11078582,-0.54448739,-1.5396127\

 Normal termination of Gaussian 16 at Wed Apr  9 18:35:10 2025.
