 Gaussian 16, Revision C.01,

 ----------------------------------------------------------------------
 #t hf aug-cc-pvdz symm=none int=(grid=ultrafine) guess=(read,tcheck) s
 table=(opt,rrhf)
 ----------------------------------------------------------------------
 -----
 title
 -----
 Symbolic Z-matrix:
 Charge =  0 Multiplicity = 1

 SCF Done:  E(RHF) =  -268.548241002     A.U. after   16 cycles
 Normal termination of Gaussian 16 at Wed Apr  9 16:57:14 2025.
 Gaussian 16:  ES64L-G16RevC.01  3-Jul-2019

 ----------------------------------------------------------------------
 #t hf aug-cc-pvdz iop(5/13=1,5/36=2,99/5=2) pseudo=read geom=check gue
 ss=(read,tcheck) scf=(maxcycle=1)
 ----------------------------------------------------------------------
 -----
 title
 -----
 Structure from the checkpoint file:  "Grambow2020_wb97xd3_006201_reverse_mol1.chk"
 Charge =  0 Multiplicity = 1

                         Standard orientation:
 ---------------------------------------------------------------------
 Center     Atomic      Atomic             Coordinates (Angstroms)
 Number     Number       Type             X           Y           Z
 ---------------------------------------------------------------------
      1          6           0        1.515209    0.498036    0.635407
      2          6           0        2.035020   -0.025439   -0.614511
      3          6           0        0.687553   -0.591350    0.010501
      4          6           0       -0.619678   -0.110866    0.136726
      5          6           0       -1.676199    0.687337   -0.422213
      6          8           0       -1.841463   -0.675266    0.059195
      7          1           0        1.072537    1.478102    0.441624
      8          1           0        0.617158    0.438766    1.891890
      9          1           0        2.717387   -0.868412   -0.644400
     10          1           0        2.066247    0.599835   -1.502637
     11          1           0        0.841155   -1.587259    0.413328
     12          1           0       -0.313985    0.357771    1.762684
     13          1           0       -2.157607    1.443598    0.186931
     14          1           0       -1.762623    0.793423   -1.498435
 ---------------------------------------------------------------------

 SCF Done:  E(RHF) =  -268.829099833     A.U. after    2 cycles

 The electronic state is 1-A.
 Alpha  occ. eigenvalues --  -20.60468 -11.36670 -11.32942 -11.28247 -11.25225
 Alpha  occ. eigenvalues --  -11.23602  -1.55712  -1.17398  -0.98051  -0.94675
 Alpha  occ. eigenvalues --   -0.82309  -0.79234  -0.72234  -0.70983  -0.64285
 Alpha  occ. eigenvalues --   -0.61668  -0.59087  -0.54363  -0.50598  -0.49749
 Alpha  occ. eigenvalues --   -0.46772  -0.38309  -0.31322
 Alpha virt. eigenvalues --    0.02955   0.03622   0.04373   0.04532   0.06266
 Alpha virt. eigenvalues --    0.06376   0.07370   0.07944   0.09388   0.09661
 Alpha virt. eigenvalues --    0.10935   0.12718   0.13054   0.13494   0.14913

 Mulliken charges:
               1
     1  C   -0.312253
     2  C    0.065742
     3  C    0.539763
     4  C    0.402929
     5  C    0.250506
     6  O   -1.274376
     7  H    0.059353
     8  H    0.425575
     9  H   -0.006670
    10  H   -0.098335
    11  H   -0.120940
    12  H    0.030763
    13  H   -0.009533
    14  H    0.047475
 Sum of Mulliken charges =  -0.00000

 Dipole moment (field-independent basis, Debye):
    X=             -0.2677    Y=              1.0942    Z=             -2.7868  Tot=              3.0058

 Test job not archived.
 1\1\GINC-SE173\SP\RHF\Aug-CC-pVDZ\C5H8O1\OHZDE\09-Apr-2025\0\\#t hf au
 g-cc-pvdz iop(5/13=1,5/36=2,99/5=2) pseudo=read geom=check guess=(read
 ,tcheck) scf=(maxcycle=1)\\title\\0,1\C,0,-1.24038674,0.04762528,-0.64
 427471\C,0,-1.31597594,1.38631489,-0.08864728\C,0,-0.60703343,0.209220
 06,0.71036042\C,0,0.60151552,-0.48255598,0.58189386\C,0,1.98437105,-0.
 4431847,0.19210011\O,0,1.501064,-0.97602322,1.4563185\H,0,-0.47886602,
 0.04167922,-1.42791376\H,0,-1.02514407,-1.47971479,-0.5459843\H,0,-2.1
 4477731,1.70280282,0.53588805\H,0,-0.77391961,2.20613109,-0.5520979\H,

 Normal termination of Gaussian 16 at Wed Apr  9 16:57:19 2025.
