 Gaussian 16, Revision C.01,

 ----------------------------------------------------------------------
 #t hf aug-cc-pvdz symm=none int=(grid=ultrafine) guess=(read,tcheck) s
 table=(opt,rrhf)
 ----------------------------------------------------------------------
 -----
 title
 -----
 Symbolic Z-matrix:
 Charge =  0 Multiplicity = 1

 SCF Done:  E(RHF) =  -264.872171410     A.U. after   16 cycles
 Normal termination of Gaussian 16 at Wed Apr  9 15:51:56 2025.
 Gaussian 16:  ES64L-G16RevC.01  3-Jul-2019

 ----------------------------------------------------------------------
 #t hf aug-cc-pvdz iop(5/13=1,5/36=2,99/5=2) pseudo=read geom=check gue
 ss=(read,tcheck) scf=(maxcycle=1)
 ----------------------------------------------------------------------
 -----
 title
 -----
 Structure from the checkpoint file:  "Grambow2020_b97d3_006849_forward_mol1.chk"
 Charge =  0 Multiplicity = 1

                         Standard orientation:
 ---------------------------------------------------------------------
 Center     Atomic      Atomic             Coordinates (Angstroms)
 Number     Number       Type             X           Y           Z
 ---------------------------------------------------------------------
      1          6           0       -1.465500   -1.079925    0.098243
      2          7           0       -0.105858   -1.085106   -0.141396
      3          6           0        0.686478   -0.015581    0.371640
      4          6           0        2.126812   -0.031426   -0.122934
      5          6           0       -0.080614    1.389370    0.030785
      6          7           0       -1.289641    1.289145   -0.153612
      7          1           0       -1.756290   -1.053537    1.148962
      8          1           0       -2.058629   -1.717270   -0.557170
      9          1           0       -2.250658    1.133272   -0.389952
     10          1           0        0.117979   -1.272822   -1.119521
     11          1           0        0.646030   -0.023811    1.470921
     12          1           0        2.642851    0.865949    0.237390
     13          1           0        2.663620   -0.921224    0.230858
     14          1           0        2.160531   -0.013454   -1.222836
 ---------------------------------------------------------------------

 SCF Done:  E(RHF) =  -265.146097957     A.U. after    2 cycles

 The electronic state is 1-A.
 Alpha  occ. eigenvalues --  -15.54514 -15.51751 -11.28888 -11.28490 -11.26554
 Alpha  occ. eigenvalues --  -11.23743  -1.26871  -1.20211  -1.03670  -0.91310
 Alpha  occ. eigenvalues --   -0.87579  -0.83908  -0.71240  -0.68030  -0.65768
 Alpha  occ. eigenvalues --   -0.58241  -0.56901  -0.54459  -0.53989  -0.49989
 Alpha  occ. eigenvalues --   -0.48888  -0.45348  -0.25757
 Alpha virt. eigenvalues --    0.03266   0.04287   0.04371   0.04677   0.05223
 Alpha virt. eigenvalues --    0.05369   0.06103   0.07557   0.09128   0.11029
 Alpha virt. eigenvalues --    0.11130   0.12741   0.13309   0.14363   0.14833

 Mulliken charges:
               1
     1  C   -0.359821
     2  N    0.835320
     3  C   -0.997330
     4  C   -0.078014
     5  C   -1.167203
     6  N    0.765575
     7  H    0.032004
     8  H   -0.021051
     9  H    0.030684
    10  H    0.301711
    11  H    0.098020
    12  H    0.178775
    13  H    0.202892
    14  H    0.178438
 Sum of Mulliken charges =  -0.00000

 Dipole moment (field-independent basis, Debye):
    X=             -0.6010    Y=             -3.0217    Z=             -0.5748  Tot=              3.1341

 Test job not archived.
 1\1\GINC-SE037\SP\RHF\Aug-CC-pVDZ\C4H8N2\OHZDE\09-Apr-2025\0\\#t hf au
 g-cc-pvdz iop(5/13=1,5/36=2,99/5=2) pseudo=read geom=check guess=(read
 ,tcheck) scf=(maxcycle=1)\\title\\0,1\C,0,1.795276,-0.08697953,0.37787
 628\N,0,0.56008123,-0.69616476,0.28159893\C,0,-0.45037537,-0.07909863,
 -0.51407249\C,0,-1.81739432,-0.73744293,-0.38270585\C,0,-0.48117655,1.
 51476211,-0.14372476\N,0,0.55829621,1.95630132,0.33620613\H,0,2.310051
 95,0.08141319,-0.56865154\H,0,2.41045103,-0.40664057,1.21868167\H,0,1.
 39383876,2.23752818,0.81211372\H,0,0.19154644,-0.9785484,1.19072411\H,

 Normal termination of Gaussian 16 at Wed Apr  9 15:52:00 2025.
