 Gaussian 16, Revision C.01,

 ----------------------------------------------------------------------
 #t hf aug-cc-pvdz symm=none int=(grid=ultrafine) guess=(read,tcheck) s
 table=(opt,rrhf)
 ----------------------------------------------------------------------
 -----
 title
 -----
 Symbolic Z-matrix:
 Charge =  0 Multiplicity = 1

 SCF Done:  E(RHF) =  -325.042815986     A.U. after   14 cycles
 Normal termination of Gaussian 16 at Wed Apr  9 03:52:20 2025.
 Gaussian 16:  ES64L-G16RevC.01  3-Jul-2019

 ----------------------------------------------------------------------
 #t hf aug-cc-pvdz iop(5/13=1,5/36=2,99/5=2) pseudo=read geom=check gue
 ss=(read,tcheck) scf=(maxcycle=1)
 ----------------------------------------------------------------------
 -----
 title
 -----
 Structure from the checkpoint file:  "Grambow2020_wb97xd3_008230_reverse_mol2.chk"
 Charge =  0 Multiplicity = 1

                         Standard orientation:
 ---------------------------------------------------------------------
 Center     Atomic      Atomic             Coordinates (Angstroms)
 Number     Number       Type             X           Y           Z
 ---------------------------------------------------------------------
      1          6           0        1.992505    0.113667   -1.133753
      2          6           0        1.971040   -0.147578    0.340182
      3          6           0        0.933336    0.051766    1.154824
      4          7           0       -0.321662    0.558192    0.790667
      5          6           0       -1.118575   -0.150392    0.106691
      6          8           0       -0.874153   -1.405839   -0.318127
      7          6           0       -2.464249    0.336685   -0.310273
      8          1           0        2.830628    0.763705   -1.394442
      9          1           0        2.121150   -0.811226   -1.703585
     10          1           0        1.074499    0.594524   -1.471730
     11          1           0        2.896478   -0.483707    0.796366
     12          1           0       -0.095640    3.538138   -0.769119
     13          1           0        0.018462   -1.650285   -0.032332
     14          1           0        1.053154   -0.113718    2.222008
     15          1           0       -0.140345    2.935221   -0.329660
     16          1           0       -2.550261    0.303568   -1.397487
     17          1           0       -2.610676    1.353183    0.043484
     18          1           0       -3.236933   -0.314921    0.100821
 ---------------------------------------------------------------------

 SCF Done:  E(RHF) =  -325.389332293     A.U. after    2 cycles

 The electronic state is 1-A.
 Alpha  occ. eigenvalues --  -20.59008 -15.48561 -11.35418 -11.26796 -11.24332
 Alpha  occ. eigenvalues --  -11.23799 -11.23348  -1.51819  -1.23838  -1.07379
 Alpha  occ. eigenvalues --   -1.01728  -0.94266  -0.83191  -0.79672  -0.69049
 Alpha  occ. eigenvalues --   -0.68101  -0.66500  -0.62458  -0.58259  -0.58137
 Alpha  occ. eigenvalues --   -0.57296  -0.56576  -0.55023  -0.54300  -0.52567
 Alpha  occ. eigenvalues --   -0.48732  -0.43280  -0.35301
 Alpha virt. eigenvalues --    0.03633   0.04076   0.04199   0.04770   0.05367
 Alpha virt. eigenvalues --    0.05605   0.06377   0.06752   0.08489   0.09242
 Alpha virt. eigenvalues --    0.10261   0.11689   0.12919   0.13622   0.14134

 Mulliken charges:
               1
     1  C   -0.632228
     2  C    0.354618
     3  C   -0.697121
     4  N    1.145619
     5  C    0.186270
     6  O   -1.465311
     7  C   -0.169024
     8  H    0.170467
     9  H    0.221044
    10  H    0.067685
    11  H   -0.163660
    12  H    0.033694
    13  H    0.503296
    14  H   -0.164913
    15  H   -0.032061
    16  H    0.243993
    17  H    0.184532
    18  H    0.213101
 Sum of Mulliken charges =  -0.00000

 Dipole moment (field-independent basis, Debye):
    X=              0.1875    Y=             -1.3173    Z=             -0.7283  Tot=              1.5169

 Test job not archived.
 1\1\GINC-SE292\SP\RHF\Aug-CC-pVDZ\C5H11N1O1\OHZDE\09-Apr-2025\0\\#t hf
  aug-cc-pvdz iop(5/13=1,5/36=2,99/5=2) pseudo=read geom=check guess=(r
 ead,tcheck) scf=(maxcycle=1)\\title\\0,1\C,0,-1.72494925,0.71687653,-0
 .93408137\C,0,-1.54467968,1.2623701,0.44835632\C,0,-0.63712055,0.85528
 727,1.33764148\N,0,0.30323875,-0.16752731,1.15413459\C,0,1.28661351,0.
 00595834,0.37447956\O,0,1.53771242,1.13205705,-0.32209201\C,0,2.315813
 15,-1.04648271,0.13984107\H,0,-2.76044719,0.40662024,-1.09042552\H,0,-
 1.50282598,1.47056004,-1.6952041\H,0,-1.08322874,-0.14560104,-1.114401

 Normal termination of Gaussian 16 at Wed Apr  9 03:52:27 2025.
