 Gaussian 16, Revision C.01,

 ----------------------------------------------------------------------
 #t hf aug-cc-pvdz symm=none int=(grid=ultrafine) guess=(read,tcheck) s
 table=(opt,rrhf)
 ----------------------------------------------------------------------
 -----
 title
 -----
 Symbolic Z-matrix:
 Charge =  0 Multiplicity = 1

 SCF Done:  E(RHF) =  -306.828913159     A.U. after   16 cycles

 1\1\GINC-SE114\Stability\RHF\Aug-CC-pVDZ\C4H10O2\OHZDE\09-Apr-2025\0\\
 #t hf aug-cc-pvdz symm=none int=(grid=ultrafine) guess=(read,tcheck) s
 table=(opt,rrhf)\\title\\0,1\C,0,2.12862233,0.70751866,-1.08709464\O,0
 ,0.74212079,0.41457115,-0.92216188\C,0,0.50080059,-0.67299829,0.008813
 65\C,0,-1.02244524,-0.78503002,0.18100507\C,0,-1.58125145,0.39189097,0
 .83403914\O,0,-1.11151906,1.61664359,0.59848059\H,0,2.66411496,-0.1636
 8582,-1.49925928\H,0,2.197799,1.54262175,-1.79372484\H,0,2.59867896,0.
 99393333,-0.13043518\H,0,1.00330304,-0.45139537,0.96628768\H,0,0.92043

 Normal termination of Gaussian 16 at Wed Apr  9 15:48:59 2025.
 Gaussian 16:  ES64L-G16RevC.01  3-Jul-2019

 ----------------------------------------------------------------------
 #t hf aug-cc-pvdz iop(5/13=1,5/36=2,99/5=2) pseudo=read geom=check gue
 ss=(read,tcheck) scf=(maxcycle=1)
 ----------------------------------------------------------------------
 -----
 title
 -----
 Structure from the checkpoint file:  "Grambow2020_b97d3_006769_forward_mol1.chk"
 Charge =  0 Multiplicity = 1

                         Standard orientation:
 ---------------------------------------------------------------------
 Center     Atomic      Atomic             Coordinates (Angstroms)
 Number     Number       Type             X           Y           Z
 ---------------------------------------------------------------------
      1          6           0        2.431927    0.263254    0.045990
      2          8           0        1.097545    0.055733   -0.414191
      3          6           0        0.379609   -0.938507    0.362864
      4          6           0       -1.065160   -0.958395   -0.161277
      5          6           0       -1.757135    0.294829    0.111599
      6          8           0       -1.132918    1.470751    0.050648
      7          1           0        3.021237   -0.664823   -0.037774
      8          1           0        2.875936    1.033278   -0.595436
      9          1           0        2.450067    0.602495    1.096119
     10          1           0        0.421019   -0.665362    1.431532
     11          1           0        0.858851   -1.922421    0.233425
     12          1           0       -1.022332   -1.259230   -1.215077
     13          1           0       -2.070835   -1.639648    0.048706
     14          1           0       -3.211845   -1.296498   -0.425185
     15          1           0       -2.749627    0.343584    0.545124
     16          1           0       -0.224935    1.289667   -0.328145
 ---------------------------------------------------------------------

 SCF Done:  E(RHF) =  -307.150139105     A.U. after    2 cycles

 The electronic state is 1-A.
 Alpha  occ. eigenvalues --  -20.63571 -20.58759 -11.39364 -11.31787 -11.31384
 Alpha  occ. eigenvalues --  -11.25317  -1.54946  -1.48930  -1.08723  -0.98080
 Alpha  occ. eigenvalues --   -0.91364  -0.86535  -0.74282  -0.72239  -0.67947
 Alpha  occ. eigenvalues --   -0.66848  -0.65958  -0.62442  -0.58891  -0.55655
 Alpha  occ. eigenvalues --   -0.55482  -0.52296  -0.48720  -0.45756  -0.26515
 Alpha virt. eigenvalues --    0.02563   0.03444   0.03639   0.04127   0.05730
 Alpha virt. eigenvalues --    0.06166   0.06286   0.07653   0.07764   0.09289
 Alpha virt. eigenvalues --    0.10225   0.11330   0.12940   0.14170   0.14559

 Mulliken charges:
               1
     1  C    0.179787
     2  O   -1.321442
     3  C    0.169680
     4  C   -0.402096
     5  C    1.184028
     6  O   -1.374126
     7  H    0.192711
     8  H    0.018798
     9  H    0.198411
    10  H    0.191797
    11  H    0.128126
    12  H    0.275181
    13  H    0.222396
    14  H   -0.324586
    15  H    0.059097
    16  H    0.602238
 Sum of Mulliken charges =  -0.00000

 Dipole moment (field-independent basis, Debye):
    X=              6.0162    Y=              1.5688    Z=              1.6477  Tot=              6.4320

 Test job not archived.
 1\1\GINC-SE114\SP\RHF\Aug-CC-pVDZ\C4H10O2\OHZDE\09-Apr-2025\0\\#t hf a
 ug-cc-pvdz iop(5/13=1,5/36=2,99/5=2) pseudo=read geom=check guess=(rea
 d,tcheck) scf=(maxcycle=1)\\title\\0,1\C,0,2.12862233,0.70751866,-1.08
 709464\O,0,0.74212079,0.41457115,-0.92216188\C,0,0.50080059,-0.6729982
 9,0.00881365\C,0,-1.02244524,-0.78503002,0.18100507\C,0,-1.58125145,0.
 39189097,0.83403914\O,0,-1.11151906,1.61664359,0.59848059\H,0,2.664114
 96,-0.16368582,-1.49925928\H,0,2.197799,1.54262175,-1.79372484\H,0,2.5
 9867896,0.99393333,-0.13043518\H,0,1.00330304,-0.45139537,0.96628768\H

 Normal termination of Gaussian 16 at Wed Apr  9 15:49:04 2025.
