 Gaussian 16, Revision C.01,

 ----------------------------------------------------------------------
 #t hf aug-cc-pvdz symm=none int=(grid=ultrafine) guess=(read,tcheck) s
 table=(opt,rrhf)
 ----------------------------------------------------------------------
 -----
 title
 -----
 Symbolic Z-matrix:
 Charge =  0 Multiplicity = 1

 SCF Done:  E(RHF) =  -302.795924460     A.U. after   15 cycles
 Normal termination of Gaussian 16 at Wed Apr  9 19:13:03 2025.
 Gaussian 16:  ES64L-G16RevC.01  3-Jul-2019

 ----------------------------------------------------------------------
 #t hf aug-cc-pvdz iop(5/13=1,5/36=2,99/5=2) pseudo=read geom=check gue
 ss=(read,tcheck) scf=(maxcycle=1)
 ----------------------------------------------------------------------
 -----
 title
 -----
 Structure from the checkpoint file:  "Grambow2020_wb97xd3_008910_reverse_mol1.chk"
 Charge =  0 Multiplicity = 1

                         Standard orientation:
 ---------------------------------------------------------------------
 Center     Atomic      Atomic             Coordinates (Angstroms)
 Number     Number       Type             X           Y           Z
 ---------------------------------------------------------------------
      1          6           0        1.443198    1.451812    0.007174
      2          7           0        0.240896    0.654763    0.009814
      3          6           0       -1.033172    1.087947   -0.061241
      4          6           0       -1.900055    0.025706   -0.042085
      5          6           0       -1.186412   -1.218149   -0.006774
      6          6           0        0.182949   -0.751966    0.123187
      7          7           0        1.350053   -1.485829   -0.181774
      8          1           0        2.199254    0.949771   -0.596909
      9          1           0        1.231545    2.425796   -0.431226
     10          1           0        1.834826    1.599660    1.017000
     11          1           0       -1.239327    2.150940   -0.084379
     12          1           0       -2.975408    0.120417   -0.076850
     13          1           0       -0.319788   -1.030189    1.176530
     14          1           0        2.001620   -1.565555    0.584574
     15          1           0        1.091583   -2.405485   -0.506584
 ---------------------------------------------------------------------

 SCF Done:  E(RHF) =  -303.113709498     A.U. after    2 cycles

 The electronic state is 1-A.
 Alpha  occ. eigenvalues --  -15.54496 -15.50707 -11.30977 -11.29170 -11.28701
 Alpha  occ. eigenvalues --  -11.21708 -11.20859  -1.32262  -1.19997  -1.09449
 Alpha  occ. eigenvalues --   -0.98986  -0.95219  -0.81552  -0.77450  -0.72964
 Alpha  occ. eigenvalues --   -0.72056  -0.67436  -0.64724  -0.60489  -0.59429
 Alpha  occ. eigenvalues --   -0.57420  -0.53723  -0.48478  -0.41738  -0.34442
 Alpha  occ. eigenvalues --   -0.34361
 Alpha virt. eigenvalues --    0.02696   0.03608   0.04408   0.04661   0.05284
 Alpha virt. eigenvalues --    0.06059   0.06520   0.07305   0.09748   0.10126
 Alpha virt. eigenvalues --    0.11593   0.12675   0.12920   0.14582   0.14669

 Mulliken charges:
               1
     1  C   -0.370976
     2  N    0.814258
     3  C   -0.231042
     4  C    0.731904
     5  C   -0.925615
     6  C   -1.356156
     7  N    0.376565
     8  H    0.182831
     9  H    0.022832
    10  H    0.177488
    11  H   -0.269727
    12  H   -0.136323
    13  H    0.550535
    14  H    0.196502
    15  H    0.236922
 Sum of Mulliken charges =  -0.00000

 Dipole moment (field-independent basis, Debye):
    X=              2.9329    Y=              3.1402    Z=              1.2260  Tot=              4.4683

 Test job not archived.
 1\1\GINC-SE173\SP\RHF\Aug-CC-pVDZ\C5H8N2\OHZDE\09-Apr-2025\0\\#t hf au
 g-cc-pvdz iop(5/13=1,5/36=2,99/5=2) pseudo=read geom=check guess=(read
 ,tcheck) scf=(maxcycle=1)\\title\\0,1\C,0,-1.30755056,-1.19531977,0.45
 120293\N,0,-0.08136841,-0.50645894,0.13062392\C,0,1.17137497,-1.002382
 37,0.15592496\C,0,2.07263427,-0.04164294,-0.22475735\C,0,1.40385535,1.
 17562383,-0.58351339\C,0,0.02964453,0.85101227,-0.24360254\N,0,-1.1282
 2328,1.49709017,-0.72900116\H,0,-2.08032642,-0.88905656,-0.2542067\H,0
 ,-1.15408202,-2.26956309,0.36128937\H,0,-1.64461726,-0.97328251,1.4671

 Normal termination of Gaussian 16 at Wed Apr  9 19:13:08 2025.
