 Gaussian 16, Revision C.01,

 ----------------------------------------------------------------------
 #t hf aug-cc-pvdz symm=none int=(grid=ultrafine) guess=(read,tcheck) s
 table=(opt,rrhf)
 ----------------------------------------------------------------------
 -----
 title
 -----
 Symbolic Z-matrix:
 Charge =  0 Multiplicity = 1

 SCF Done:  E(RHF) =  -306.605356315     A.U. after   15 cycles
 Normal termination of Gaussian 16 at Wed Apr  9 18:19:19 2025.
 Gaussian 16:  ES64L-G16RevC.01  3-Jul-2019

 ----------------------------------------------------------------------
 #t hf aug-cc-pvdz iop(5/13=1,5/36=2,99/5=2) pseudo=read geom=check gue
 ss=(read,tcheck) scf=(maxcycle=1)
 ----------------------------------------------------------------------
 -----
 title
 -----
 Structure from the checkpoint file:  "Grambow2020_wb97xd3_007304_reverse_mol2.chk"
 Charge =  0 Multiplicity = 1

                         Standard orientation:
 ---------------------------------------------------------------------
 Center     Atomic      Atomic             Coordinates (Angstroms)
 Number     Number       Type             X           Y           Z
 ---------------------------------------------------------------------
      1          6           0        3.035565   -0.810877   -0.093116
      2          6           0        2.960270    0.479939    0.186818
      3          6           0       -0.321040    0.437963   -0.083585
      4          8           0       -0.358354    1.582072   -0.108700
      5          6           0       -0.609822   -0.888192   -0.038972
      6          6           0       -1.975946   -1.076924    0.037960
      7          6           0       -2.983292    0.008507    0.071756
      8          1           0        0.154103   -1.652616   -0.062892
      9          1           0        3.024403   -1.563114    0.687862
     10          1           0        3.119347   -1.168045   -1.113413
     11          1           0        2.979045    1.233813   -0.592205
     12          1           0        2.883057    0.837003    1.207706
     13          1           0       -2.660429    1.061240    0.030787
     14          1           0       -3.684016   -0.171697   -0.748669
     15          1           0       -3.583089   -0.135654    0.975256
 ---------------------------------------------------------------------

 SCF Done:  E(RHF) =  -306.916897342     A.U. after    2 cycles

 The electronic state is 1-A.
 Alpha  occ. eigenvalues --  -20.65643 -11.43264 -11.26223 -11.25553 -11.25393
 Alpha  occ. eigenvalues --  -11.25081 -11.23569  -1.60535  -1.12390  -1.05537
 Alpha  occ. eigenvalues --   -0.98688  -0.82444  -0.80946  -0.76911  -0.70924
 Alpha  occ. eigenvalues --   -0.67165  -0.66640  -0.65389  -0.61760  -0.57907
 Alpha  occ. eigenvalues --   -0.56972  -0.54448  -0.52593  -0.40462  -0.40299
 Alpha  occ. eigenvalues --   -0.32169
 Alpha virt. eigenvalues --    0.03614   0.03988   0.04150   0.04521   0.06070
 Alpha virt. eigenvalues --    0.06154   0.06456   0.06641   0.07959   0.08965
 Alpha virt. eigenvalues --    0.10463   0.11530   0.11917   0.12607   0.13248

 Mulliken charges:
               1
     1  C    0.145646
     2  C    0.141255
     3  C    0.610606
     4  O   -0.923972
     5  C    0.964593
     6  C   -0.729662
     7  C   -0.503772
     8  H   -0.009690
     9  H   -0.069777
    10  H   -0.061611
    11  H   -0.072025
    12  H   -0.062145
    13  H    0.062221
    14  H    0.259379
    15  H    0.248953
 Sum of Mulliken charges =  -0.00000

 Dipole moment (field-independent basis, Debye):
    X=              1.8448    Y=              1.4831    Z=             -0.0916  Tot=              2.3688

 Test job not archived.
 1\1\GINC-SE035\SP\RHF\Aug-CC-pVDZ\C6H8O1\OHZDE\09-Apr-2025\0\\#t hf au
 g-cc-pvdz iop(5/13=1,5/36=2,99/5=2) pseudo=read geom=check guess=(read
 ,tcheck) scf=(maxcycle=1)\\title\\0,1\C,0,-2.98519989,-0.36695958,0.44
 823572\C,0,-2.74144716,0.62355118,-0.39420738\C,0,0.48659655,0.4874670
 3,0.24068632\O,0,0.65485128,1.49823958,-0.27023084\C,0,0.62163034,-0.7
 147072,0.85762761\C,0,1.9585984,-1.01196307,1.03648064\C,0,3.08523176,
 -0.1483776,0.61343838\H,0,-0.22581389,-1.31903833,1.14937712\H,0,-3.00
 830594,-1.39994109,0.11910528\H,0,-3.17933789,-0.18534146,1.49938752\H

 Normal termination of Gaussian 16 at Wed Apr  9 18:19:23 2025.
