 Gaussian 16, Revision C.01,

 ----------------------------------------------------------------------
 #t hf aug-cc-pvdz symm=none int=(grid=ultrafine) guess=(read,tcheck) s
 table=(opt,rrhf)
 ----------------------------------------------------------------------
 -----
 title
 -----
 Symbolic Z-matrix:
 Charge =  0 Multiplicity = 1

 SCF Done:  E(RHF) =  -323.852532098     A.U. after   14 cycles
 Normal termination of Gaussian 16 at Wed Apr  9 18:28:50 2025.
 Gaussian 16:  ES64L-G16RevC.01  3-Jul-2019

 ----------------------------------------------------------------------
 #t hf aug-cc-pvdz iop(5/13=1,5/36=2,99/5=2) pseudo=read geom=check gue
 ss=(read,tcheck) scf=(maxcycle=1)
 ----------------------------------------------------------------------
 -----
 title
 -----
 Structure from the checkpoint file:  "Grambow2020_wb97xd3_007606_reverse_mol2.chk"
 Charge =  0 Multiplicity = 1

                         Standard orientation:
 ---------------------------------------------------------------------
 Center     Atomic      Atomic             Coordinates (Angstroms)
 Number     Number       Type             X           Y           Z
 ---------------------------------------------------------------------
      1          6           0        2.278801    1.145357   -0.193278
      2          6           0        2.398681   -0.310706    0.136189
      3          7           0        1.299727   -1.010851    0.016181
      4          6           0       -0.055722   -0.620763   -0.395795
      5          6           0       -0.845151   -0.012754    0.752082
      6          6           0       -2.252261    0.360369    0.379728
      7          8           0       -2.734581    0.186942   -0.705832
      8          1           0        1.357825    1.514519   -0.661923
      9          1           0        2.430022    1.687170    0.746146
     10          1           0        3.128390    1.425847   -0.818286
     11          1           0       -0.004317    0.075062   -1.231173
     12          1           0        1.382200   -1.987562    0.256686
     13          1           0       -0.563373   -1.510769   -0.768440
     14          1           0       -0.351166    0.885079    1.139723
     15          1           0       -0.898743   -0.700882    1.603874
     16          1           0       -2.848359    0.822938    1.193227
 ---------------------------------------------------------------------

 SCF Done:  E(RHF) =  -324.187850222     A.U. after    2 cycles

 The electronic state is 1-A.
 Alpha  occ. eigenvalues --  -20.56079 -15.54430 -11.35562 -11.28642 -11.26664
 Alpha  occ. eigenvalues --  -11.24804 -11.22753  -1.49582  -1.26484  -1.08147
 Alpha  occ. eigenvalues --   -0.99968  -0.94165  -0.82315  -0.79674  -0.72921
 Alpha  occ. eigenvalues --   -0.67437  -0.66755  -0.64545  -0.61446  -0.59525
 Alpha  occ. eigenvalues --   -0.56397  -0.54730  -0.54287  -0.51232  -0.48019
 Alpha  occ. eigenvalues --   -0.42917  -0.33621
 Alpha virt. eigenvalues --    0.02862   0.03431   0.04205   0.04831   0.05394
 Alpha virt. eigenvalues --    0.06248   0.06624   0.07539   0.08410   0.10303
 Alpha virt. eigenvalues --    0.10962   0.11663   0.12238   0.12746   0.13284

 Mulliken charges:
               1
     1  C   -0.163111
     2  C   -0.804762
     3  N    0.750108
     4  C   -0.711595
     5  C   -0.323062
     6  C    1.039891
     7  O   -1.138876
     8  H    0.055367
     9  H    0.215541
    10  H    0.101281
    11  H    0.086296
    12  H    0.279286
    13  H    0.018681
    14  H    0.247672
    15  H    0.235558
    16  H    0.111722
 Sum of Mulliken charges =   0.00000

 Dipole moment (field-independent basis, Debye):
    X=             -1.5177    Y=              0.4041    Z=              1.7100  Tot=              2.3218

 Test job not archived.
 1\1\GINC-SE014\SP\RHF\Aug-CC-pVDZ\C5H9N1O1\OHZDE\09-Apr-2025\0\\#t hf
 aug-cc-pvdz iop(5/13=1,5/36=2,99/5=2) pseudo=read geom=check guess=(re
 ad,tcheck) scf=(maxcycle=1)\\title\\0,1\C,0,-1.88949231,0.12908564,1.3
 016906\C,0,-1.92758054,1.05539615,0.12545174\N,0,-1.03805936,0.8246953
 9,-0.80612396\C,0,0.00855312,-0.2012779,-0.91155889\C,0,1.25971378,0.1
 8240216,-0.13833049\C,0,2.36925751,-0.82388973,-0.25713733\O,0,2.30464
 747,-1.83000111,-0.90883867\H,0,-1.25720101,-0.76667993,1.25790068\H,0
 ,-1.57485875,0.73292763,2.15920182\H,0,-2.91245214,-0.17334979,1.53233

 Normal termination of Gaussian 16 at Wed Apr  9 18:28:56 2025.
