 Gaussian 16, Revision C.01,

 ----------------------------------------------------------------------
 #t hf aug-cc-pvdz symm=none int=(grid=ultrafine) guess=(read,tcheck) s
 table=(opt,rrhf)
 ----------------------------------------------------------------------
 -----
 title
 -----
 Symbolic Z-matrix:
 Charge =  0 Multiplicity = 1

 SCF Done:  E(RHF) =  -318.827685159     A.U. after   15 cycles
 Normal termination of Gaussian 16 at Wed Apr  9 18:00:38 2025.
 Gaussian 16:  ES64L-G16RevC.01  3-Jul-2019

 ----------------------------------------------------------------------
 #t hf aug-cc-pvdz iop(5/13=1,5/36=2,99/5=2) pseudo=read geom=check gue
 ss=(read,tcheck) scf=(maxcycle=1)
 ----------------------------------------------------------------------
 -----
 title
 -----
 Structure from the checkpoint file:  "Grambow2020_wb97xd3_006932_reverse_mol1.chk"
 Charge =  0 Multiplicity = 1

                         Standard orientation:
 ---------------------------------------------------------------------
 Center     Atomic      Atomic             Coordinates (Angstroms)
 Number     Number       Type             X           Y           Z
 ---------------------------------------------------------------------
      1          7           0        2.443738   -0.465794    0.037223
      2          6           0        1.087959   -0.182111   -0.009806
      3          6           0        0.000091   -0.981560    0.045278
      4          6           0       -1.143080   -0.072239    0.094855
      5          7           0       -2.459820   -0.472265   -0.208754
      6          6           0       -0.694045    1.304377   -0.025739
      7          7           0        0.666501    1.135386   -0.028871
      8          1           0        2.650883   -1.444913   -0.072396
      9          1           0        3.003703    0.093979   -0.587308
     10          1           0       -0.022626   -2.059352    0.039468
     11          1           0       -3.073820    0.326926   -0.271908
     12          1           0       -2.831684   -1.157681    0.431004
     13          1           0       -1.083826    0.540625    1.155641
     14          1           0        1.298888    1.908331    0.080787
 ---------------------------------------------------------------------

 SCF Done:  E(RHF) =  -319.159860245     A.U. after    2 cycles

 The electronic state is 1-A.
 Alpha  occ. eigenvalues --  -15.53515 -15.52884 -15.49451 -11.31739 -11.28154
 Alpha  occ. eigenvalues --  -11.24620 -11.21375  -1.31253  -1.22016  -1.19277
 Alpha  occ. eigenvalues --   -1.04554  -0.98011  -0.82506  -0.81133  -0.76777
 Alpha  occ. eigenvalues --   -0.71079  -0.70596  -0.68484  -0.61229  -0.59603
 Alpha  occ. eigenvalues --   -0.59458  -0.52889  -0.50040  -0.40387  -0.36493
 Alpha  occ. eigenvalues --   -0.33109
 Alpha virt. eigenvalues --    0.02554   0.03887   0.04399   0.05241   0.06140
 Alpha virt. eigenvalues --    0.06669   0.07924   0.10459   0.11187   0.11743
 Alpha virt. eigenvalues --    0.11910   0.13009   0.14017   0.14607   0.15119

 Mulliken charges:
               1
     1  N    0.673933
     2  C   -1.937305
     3  C    1.198760
     4  C   -1.243574
     5  N    0.500715
     6  C   -0.793210
     7  N    0.730998
     8  H    0.198546
     9  H    0.080960
    10  H   -0.188370
    11  H    0.161608
    12  H    0.138957
    13  H    0.513203
    14  H   -0.035222
 Sum of Mulliken charges =  -0.00000

 Dipole moment (field-independent basis, Debye):
    X=              2.3009    Y=             -2.0040    Z=              0.5601  Tot=              3.1022

 Test job not archived.
 1\1\GINC-SE162\SP\RHF\Aug-CC-pVDZ\C4H7N3\OHZDE\09-Apr-2025\0\\#t hf au
 g-cc-pvdz iop(5/13=1,5/36=2,99/5=2) pseudo=read geom=check guess=(read
 ,tcheck) scf=(maxcycle=1)\\title\\0,1\N,0,-2.43531867,-0.41258474,-0.1
 7314151\C,0,-1.09226934,-0.10564686,-0.02203327\C,0,0.01125026,-0.8850
 9253,-0.00424071\C,0,1.13796087,0.04475187,0.04130692\N,0,2.43560489,-
 0.33562013,0.43809449\C,0,0.65586202,1.41170401,0.14265126\N,0,-0.6977
 9049,1.21874754,0.04242169\H,0,-2.63194088,-1.39644145,-0.08969006\H,0
 ,-3.0504568,0.12972752,0.41375411\H,0,0.0533618,-1.96231003,-0.0081912

 Normal termination of Gaussian 16 at Wed Apr  9 18:00:43 2025.
