 Gaussian 16, Revision C.01,

 ----------------------------------------------------------------------
 #t hf aug-cc-pvdz symm=none int=(grid=ultrafine) guess=(read,tcheck) s
 table=(opt,rrhf)
 ----------------------------------------------------------------------
 -----
 title
 -----
 Symbolic Z-matrix:
 Charge =  0 Multiplicity = 1

 SCF Done:  E(RHF) =  -306.563427977     A.U. after   16 cycles
 Normal termination of Gaussian 16 at Wed Apr  9 18:52:50 2025.
 Gaussian 16:  ES64L-G16RevC.01  3-Jul-2019

 ----------------------------------------------------------------------
 #t hf aug-cc-pvdz iop(5/13=1,5/36=2,99/5=2) pseudo=read geom=check gue
 ss=(read,tcheck) scf=(maxcycle=1)
 ----------------------------------------------------------------------
 -----
 title
 -----
 Structure from the checkpoint file:  "Grambow2020_wb97xd3_008162_reverse_mol1.chk"
 Charge =  0 Multiplicity = 1

                         Standard orientation:
 ---------------------------------------------------------------------
 Center     Atomic      Atomic             Coordinates (Angstroms)
 Number     Number       Type             X           Y           Z
 ---------------------------------------------------------------------
      1          8           0        2.176402   -0.136826   -0.134562
      2          6           0        0.841319    0.075641    0.162092
      3          6           0        0.063031    1.305232   -0.266052
      4          6           0       -1.248714    0.647544    0.192135
      5          6           0       -1.367130   -0.551632   -0.774413
      6          6           0       -0.175617   -1.068505    0.018976
      7          6           0       -0.693213   -0.369238    1.258250
      8          1           0        2.237866   -0.806646   -0.818058
      9          1           0        0.102496    1.548024   -1.331399
     10          1           0        0.330601    2.185273    0.319132
     11          1           0       -2.087138    1.294997    0.435871
     12          1           0       -2.253198   -1.155936   -0.579638
     13          1           0       -1.279566   -0.360840   -1.847193
     14          1           0        0.219649   -2.081643    0.023951
     15          1           0        0.800024    0.237128    1.327902
 ---------------------------------------------------------------------

 SCF Done:  E(RHF) =  -306.881595804     A.U. after    2 cycles

 The electronic state is 1-A.
 Alpha  occ. eigenvalues --  -20.57487 -11.32421 -11.27543 -11.25284 -11.24960
 Alpha  occ. eigenvalues --  -11.24875 -11.24800  -1.48511  -1.23887  -1.00273
 Alpha  occ. eigenvalues --   -0.96764  -0.87429  -0.80276  -0.72977  -0.72038
 Alpha  occ. eigenvalues --   -0.67858  -0.62421  -0.61536  -0.57423  -0.55397
 Alpha  occ. eigenvalues --   -0.51948  -0.49403  -0.49057  -0.46212  -0.42363
 Alpha  occ. eigenvalues --   -0.35125
 Alpha virt. eigenvalues --    0.02885   0.03456   0.03919   0.04492   0.05924
 Alpha virt. eigenvalues --    0.06372   0.06672   0.07380   0.09733   0.11521
 Alpha virt. eigenvalues --    0.11735   0.12565   0.13242   0.13798   0.14539

 Mulliken charges:
               1
     1  O   -1.407913
     2  C    0.832790
     3  C    0.026756
     4  C    0.152841
     5  C    0.123165
     6  C    0.212563
     7  C   -0.384378
     8  H    0.213210
     9  H    0.049989
    10  H    0.104549
    11  H   -0.117822
    12  H    0.005807
    13  H   -0.014661
    14  H   -0.166972
    15  H    0.370076
 Sum of Mulliken charges =   0.00000

 Dipole moment (field-independent basis, Debye):
    X=             -0.3204    Y=             -0.0982    Z=             -3.0940  Tot=              3.1121

 Test job not archived.
 1\1\GINC-SE118\SP\RHF\Aug-CC-pVDZ\C6H8O1\OHZDE\09-Apr-2025\0\\#t hf au
 g-cc-pvdz iop(5/13=1,5/36=2,99/5=2) pseudo=read geom=check guess=(read
 ,tcheck) scf=(maxcycle=1)\\title\\0,1\O,0,2.1684828,0.89323851,-0.1765
 923\C,0,0.94055511,0.28435632,-0.36906889\C,0,0.61825506,-1.13141262,0
 .06985629\C,0,-0.86829048,-0.90294323,-0.24818574\C,0,-1.25688398,0.18
 690974,0.77527688\C,0,-0.35927328,1.05740831,-0.0923956\C,0,-0.7514242
 5,0.25128653,-1.3126687\H,0,2.08570608,1.53915436,0.52735751\H,0,0.828
 80345,-1.36611171,1.11678245\H,0,1.08618519,-1.87743168,-0.57279628\H,

 Normal termination of Gaussian 16 at Wed Apr  9 18:52:56 2025.
