 Gaussian 16, Revision C.01,

 ----------------------------------------------------------------------
 #t hf aug-cc-pvdz symm=none int=(grid=ultrafine) guess=(read,tcheck) s
 table=(opt,rrhf)
 ----------------------------------------------------------------------
 -----
 title
 -----
 Symbolic Z-matrix:
 Charge =  0 Multiplicity = 1

 SCF Done:  E(RHF) =  -307.726659918     A.U. after   17 cycles

 1\1\GINC-SE114\Stability\RHF\Aug-CC-pVDZ\C6H10O1\OHZDE\09-Apr-2025\0\\
 #t hf aug-cc-pvdz symm=none int=(grid=ultrafine) guess=(read,tcheck) s
 table=(opt,rrhf)\\title\\0,1\O,0,1.49207838,-0.16155052,1.18646035\C,0
 ,1.33560721,-0.4904593,-0.14670458\C,0,0.15224572,-1.39148184,-0.47481
 038\C,0,-1.18679107,-0.76116728,-0.07283906\C,0,-1.15402105,0.73008751
 ,0.04156337\C,0,-0.13004597,1.50092786,-0.4869004\C,0,1.11392213,0.921
 40716,-0.5476597\H,0,0.24901074,0.43522508,1.68591649\H,0,2.25478587,-
 0.9134007,-0.57075858\H,0,0.28388717,-2.34779665,0.0341542\H,0,0.16660

 Normal termination of Gaussian 16 at Wed Apr  9 19:00:08 2025.
 Gaussian 16:  ES64L-G16RevC.01  3-Jul-2019

 ----------------------------------------------------------------------
 #t hf aug-cc-pvdz iop(5/13=1,5/36=2,99/5=2) pseudo=read geom=check gue
 ss=(read,tcheck) scf=(maxcycle=1)
 ----------------------------------------------------------------------
 -----
 title
 -----
 Structure from the checkpoint file:  "Grambow2020_wb97xd3_008428_forward_mol1.chk"
 Charge =  0 Multiplicity = 1

                         Standard orientation:
 ---------------------------------------------------------------------
 Center     Atomic      Atomic             Coordinates (Angstroms)
 Number     Number       Type             X           Y           Z
 ---------------------------------------------------------------------
      1          8           0       -1.442333   -0.029306    1.007940
      2          6           0       -1.169204    0.308293   -0.304089
      3          6           0       -0.124723    1.398195   -0.506605
      4          6           0        1.237203    1.014723    0.085007
      5          6           0        1.445409   -0.458228    0.243336
      6          6           0        0.647767   -1.400876   -0.386884
      7          6           0       -0.657871   -1.047411   -0.626395
      8          1           0       -0.192763   -0.395472    1.682708
      9          1           0       -2.082796    0.560438   -0.856686
     10          1           0       -0.484455    2.322097   -0.050635
     11          1           0       -0.031066    1.585018   -1.580763
     12          1           0        1.409144    1.502050    1.044769
     13          1           0        2.048709    1.362252   -0.566323
     14          1           0        2.411720   -0.763214    0.633000
     15          1           0        0.627105   -0.582492    1.885828
     16          1           0        0.950321   -2.440310   -0.396290
     17          1           0       -1.388752   -1.804099   -0.885346
 ---------------------------------------------------------------------

 SCF Done:  E(RHF) =  -308.053425612     A.U. after    2 cycles

 The electronic state is 1-A.
 Alpha  occ. eigenvalues --  -20.47200 -11.33478 -11.30483 -11.27469 -11.26010
 Alpha  occ. eigenvalues --  -11.23925 -11.23515  -1.36300  -1.15006  -1.04456
 Alpha  occ. eigenvalues --   -1.00651  -0.87235  -0.84417  -0.73763  -0.70614
 Alpha  occ. eigenvalues --   -0.66427  -0.63534  -0.61101  -0.59687  -0.59260
 Alpha  occ. eigenvalues --   -0.53367  -0.52425  -0.50433  -0.49045  -0.41335
 Alpha  occ. eigenvalues --   -0.34536  -0.33656
 Alpha virt. eigenvalues --    0.02234   0.02779   0.03536   0.04051   0.04958
 Alpha virt. eigenvalues --    0.05416   0.05566   0.06896   0.08412   0.09211
 Alpha virt. eigenvalues --    0.10004   0.12036   0.12927   0.13467   0.13743

 Mulliken charges:
               1
     1  O   -1.544714
     2  C    1.003152
     3  C   -0.307223
     4  C   -0.364017
     5  C   -0.282878
     6  C    0.801257
     7  C    0.007572
     8  H    0.178640
     9  H    0.074339
    10  H    0.210162
    11  H    0.143990
    12  H    0.141078
    13  H    0.232170
    14  H   -0.147777
    15  H    0.171764
    16  H   -0.142069
    17  H   -0.175445
 Sum of Mulliken charges =   0.00000

 Dipole moment (field-independent basis, Debye):
    X=              3.3289    Y=             -0.1189    Z=             -3.0008  Tot=              4.4834

 Test job not archived.
 1\1\GINC-SE114\SP\RHF\Aug-CC-pVDZ\C6H10O1\OHZDE\09-Apr-2025\0\\#t hf a
 ug-cc-pvdz iop(5/13=1,5/36=2,99/5=2) pseudo=read geom=check guess=(rea
 d,tcheck) scf=(maxcycle=1)\\title\\0,1\O,0,1.49207838,-0.16155052,1.18
 646035\C,0,1.33560721,-0.4904593,-0.14670458\C,0,0.15224572,-1.3914818
 4,-0.47481038\C,0,-1.18679107,-0.76116728,-0.07283906\C,0,-1.15402105,
 0.73008751,0.04156337\C,0,-0.13004597,1.50092786,-0.4869004\C,0,1.1139
 2213,0.92140716,-0.5476597\H,0,0.24901074,0.43522508,1.68591649\H,0,2.
 25478587,-0.9134007,-0.57075858\H,0,0.28388717,-2.34779665,0.0341542\H

 Normal termination of Gaussian 16 at Wed Apr  9 19:00:14 2025.
