 Gaussian 16, Revision C.01,

 ----------------------------------------------------------------------
 #t hf aug-cc-pvdz symm=none int=(grid=ultrafine) guess=(read,tcheck) s
 table=(opt,rrhf)
 ----------------------------------------------------------------------
 -----
 title
 -----
 Symbolic Z-matrix:
 Charge =  0 Multiplicity = 1

 SCF Done:  E(RHF) =  -357.274649131     A.U. after   18 cycles
 Normal termination of Gaussian 16 at Wed Apr  9 03:59:23 2025.
 Gaussian 16:  ES64L-G16RevC.01  3-Jul-2019

 ----------------------------------------------------------------------
 #t hf aug-cc-pvdz iop(5/13=1,5/36=2,99/5=2) pseudo=read geom=check gue
 ss=(read,tcheck) scf=(maxcycle=1)
 ----------------------------------------------------------------------
 -----
 title
 -----
 Structure from the checkpoint file:  "Grambow2020_wb97xd3_008755_reverse_mol2.chk"
 Charge =  0 Multiplicity = 1

                         Standard orientation:
 ---------------------------------------------------------------------
 Center     Atomic      Atomic             Coordinates (Angstroms)
 Number     Number       Type             X           Y           Z
 ---------------------------------------------------------------------
      1          8           0       -2.429336   -0.044747   -0.000269
      2          6           0       -1.457213   -0.747703    0.000098
      3          6           0       -0.057586   -0.253632   -0.000960
      4          7           0        0.932072   -1.317552    0.001330
      5          8           0        2.075239   -0.974311   -0.000713
      6          6           0        0.625846    2.256937    0.000460
      7          6           0        0.270038    1.019172   -0.000686
      8          1           0       -1.527516   -1.852191    0.001594
      9          1           0        0.775930    2.791148   -0.930763
     10          1           0        0.773348    2.787735    0.934238
 ---------------------------------------------------------------------

 SCF Done:  E(RHF) =  -357.619721323     A.U. after    2 cycles

 The electronic state is 1-A.
 Alpha  occ. eigenvalues --  -20.62600 -20.55868 -15.66082 -11.36200 -11.33024
 Alpha  occ. eigenvalues --  -11.30121 -11.29969  -1.61678  -1.49457  -1.16963
 Alpha  occ. eigenvalues --   -1.08489  -0.95837  -0.89238  -0.77574  -0.73886
 Alpha  occ. eigenvalues --   -0.71944  -0.67468  -0.67313  -0.64849  -0.64163
 Alpha  occ. eigenvalues --   -0.55856  -0.46295  -0.45476  -0.41783  -0.41766
 Alpha virt. eigenvalues --    0.01035   0.02968   0.04128   0.04595   0.07156
 Alpha virt. eigenvalues --    0.07805   0.09215   0.09304   0.10859   0.11464
 Alpha virt. eigenvalues --    0.12386   0.13571   0.14917   0.15203   0.15692

 Mulliken charges:
               1
     1  O   -1.170207
     2  C    1.074498
     3  C   -1.064274
     4  N    1.395651
     5  O   -1.114319
     6  C   -0.019420
     7  C    0.791855
     8  H    0.107971
     9  H   -0.001599
    10  H   -0.000156
 Sum of Mulliken charges =  -0.00000

 Dipole moment (field-independent basis, Debye):
    X=              1.4194    Y=              2.3838    Z=              0.0011  Tot=              2.7744

 Test job not archived.
 1\1\GINC-SE419\SP\RHF\Aug-CC-pVDZ\C4H3N1O2\OHZDE\09-Apr-2025\0\\#t hf
 aug-cc-pvdz iop(5/13=1,5/36=2,99/5=2) pseudo=read geom=check guess=(re
 ad,tcheck) scf=(maxcycle=1)\\title\\0,1\O,0,-2.10250477,1.05967232,-0.
 68823441\C,0,-1.53167238,0.0471653,-0.98513509\C,0,-0.2319494,-0.38789
 798,-0.41548318\N,0,0.23793092,-1.65591265,-0.94718419\O,0,1.28096874,
 -2.0515985,-0.52273728\C,0,1.12059552,0.93845766,1.36817543\C,0,0.4385
 7739,0.2951392,0.48519442\H,0,-1.93965132,-0.6642428,-1.72829664\H,0,1
 .86193705,1.67097698,1.06999335\H,0,0.95833524,0.76342147,2.42575659\\

 Normal termination of Gaussian 16 at Wed Apr  9 03:59:26 2025.
