 Gaussian 16, Revision C.01,

 ----------------------------------------------------------------------
 #t hf aug-cc-pvdz symm=none int=(grid=ultrafine) guess=(read,tcheck) s
 table=(opt,rrhf)
 ----------------------------------------------------------------------
 -----
 title
 -----
 Symbolic Z-matrix:
 Charge =  0 Multiplicity = 1

 SCF Done:  E(RHF) =  -306.720810182     A.U. after   14 cycles
 Normal termination of Gaussian 16 at Wed Apr  9 18:54:49 2025.
 Gaussian 16:  ES64L-G16RevC.01  3-Jul-2019

 ----------------------------------------------------------------------
 #t hf aug-cc-pvdz iop(5/13=1,5/36=2,99/5=2) pseudo=read geom=check gue
 ss=(read,tcheck) scf=(maxcycle=1)
 ----------------------------------------------------------------------
 -----
 title
 -----
 Structure from the checkpoint file:  "Grambow2020_wb97xd3_008207_reverse_mol2.chk"
 Charge =  0 Multiplicity = 1

                         Standard orientation:
 ---------------------------------------------------------------------
 Center     Atomic      Atomic             Coordinates (Angstroms)
 Number     Number       Type             X           Y           Z
 ---------------------------------------------------------------------
      1          6           0       -1.688467    0.002940   -0.366713
      2          8           0       -1.836015    0.037798    1.033342
      3          6           0        0.574436    1.180389   -0.302777
      4          6           0        1.646030    0.731662    0.357661
      5          6           0        1.642092   -0.736637    0.334119
      6          6           0        0.570548   -1.162427   -0.344993
      7          6           0       -0.225857    0.021107   -0.821841
      8          1           0       -2.180716   -0.882732   -0.790507
      9          1           0       -2.207547    0.883356   -0.751135
     10          1           0        0.286177    2.213387   -0.440568
     11          1           0        2.399160    1.337309    0.843105
     12          1           0        2.402000   -1.360943    0.785319
     13          1           0        0.298069   -2.190290   -0.545184
     14          1           0       -1.192428   -0.561752    1.420284
     15          1           0       -0.229289    0.037075   -1.920793
 ---------------------------------------------------------------------

 SCF Done:  E(RHF) =  -307.041880768     A.U. after    2 cycles

 The electronic state is 1-A.
 Alpha  occ. eigenvalues --  -20.54141 -11.28873 -11.24562 -11.24499 -11.23832
 Alpha  occ. eigenvalues --  -11.23784 -11.23670  -1.44768  -1.16770  -1.00893
 Alpha  occ. eigenvalues --   -0.97686  -0.88190  -0.76068  -0.74994  -0.71628
 Alpha  occ. eigenvalues --   -0.66996  -0.64317  -0.61126  -0.57992  -0.54637
 Alpha  occ. eigenvalues --   -0.52645  -0.51787  -0.49080  -0.44498  -0.42396
 Alpha  occ. eigenvalues --   -0.32576
 Alpha virt. eigenvalues --    0.03430   0.03488   0.03776   0.04950   0.05307
 Alpha virt. eigenvalues --    0.05561   0.06831   0.08332   0.09006   0.11394
 Alpha virt. eigenvalues --    0.12343   0.13247   0.14086   0.14416   0.14715

 Mulliken charges:
               1
     1  C    0.877428
     2  O   -1.167861
     3  C    0.733665
     4  C    0.082004
     5  C    0.133962
     6  C    0.537854
     7  C   -1.485203
     8  H    0.114581
     9  H    0.079263
    10  H   -0.152552
    11  H   -0.127130
    12  H   -0.125160
    13  H   -0.139078
    14  H    0.386808
    15  H    0.251418
 Sum of Mulliken charges =  -0.00000

 Dipole moment (field-independent basis, Debye):
    X=              1.0872    Y=             -0.7309    Z=             -1.0402  Tot=              1.6728

 Test job not archived.
 1\1\GINC-SE131\SP\RHF\Aug-CC-pVDZ\C6H8O1\OHZDE\09-Apr-2025\0\\#t hf au
 g-cc-pvdz iop(5/13=1,5/36=2,99/5=2) pseudo=read geom=check guess=(read
 ,tcheck) scf=(maxcycle=1)\\title\\0,1\C,0,-1.58713211,-0.16966874,-0.6
 7132264\O,0,-0.98393523,-0.84293619,-1.75113972\C,0,0.20327427,-0.9198
 3528,0.98484681\C,0,1.50900561,-0.66443889,0.85961003\C,0,1.68074924,0
 .6446346,0.21672212\C,0,0.47689419,1.17132329,-0.03631346\C,0,-0.59468
 294,0.22317088,0.42750475\H,0,-2.11056623,0.73251454,-1.01542526\H,0,-
 2.33796718,-0.85142708,-0.26658996\H,0,-0.24354257,-1.81344787,1.39833

 Normal termination of Gaussian 16 at Wed Apr  9 18:54:54 2025.
