 Gaussian 16, Revision C.01,

 ----------------------------------------------------------------------
 #t hf aug-cc-pvdz symm=none int=(grid=ultrafine) guess=(read,tcheck) s
 table=(opt,rrhf)
 ----------------------------------------------------------------------
 -----
 title
 -----
 Symbolic Z-matrix:
 Charge =  0 Multiplicity = 1

 SCF Done:  E(RHF) =  -284.688248891     A.U. after   16 cycles
 Normal termination of Gaussian 16 at Wed Apr  9 16:24:00 2025.
 Gaussian 16:  ES64L-G16RevC.01  3-Jul-2019

 ----------------------------------------------------------------------
 #t hf aug-cc-pvdz iop(5/13=1,5/36=2,99/5=2) pseudo=read geom=check gue
 ss=(read,tcheck) scf=(maxcycle=1)
 ----------------------------------------------------------------------
 -----
 title
 -----
 Structure from the checkpoint file:  "Grambow2020_b97d3_007212_forward_mol1.chk"
 Charge =  0 Multiplicity = 1

                         Standard orientation:
 ---------------------------------------------------------------------
 Center     Atomic      Atomic             Coordinates (Angstroms)
 Number     Number       Type             X           Y           Z
 ---------------------------------------------------------------------
      1          6           0       -1.298385    1.335083   -0.026455
      2          6           0       -1.545042   -0.144492    0.019703
      3          8           0       -0.654988   -1.065046   -0.365527
      4          6           0        0.624149   -1.091395    0.093445
      5          6           0        1.503728    0.019710   -0.013178
      6          7           0        2.276059    0.907465   -0.061701
      7          1           0       -1.261056    1.684906   -1.072840
      8          1           0       -2.137252    1.843503    0.466358
      9          1           0       -0.367354    1.633558    0.462619
     10          1           0       -2.551922   -0.495388   -0.214672
     11          1           0       -0.967953   -0.425381    1.630801
     12          1           0        1.059840   -2.077945   -0.046415
     13          1           0       -0.173514   -0.708576    1.689179
 ---------------------------------------------------------------------

 SCF Done:  E(RHF) =  -284.975835475     A.U. after    2 cycles

 The electronic state is 1-A.
 Alpha  occ. eigenvalues --  -20.65889 -15.51036 -11.38084 -11.32946 -11.28549
 Alpha  occ. eigenvalues --  -11.27258  -1.58043  -1.21406  -1.08034  -1.00874
 Alpha  occ. eigenvalues --   -0.87820  -0.76798  -0.74671  -0.70126  -0.64598
 Alpha  occ. eigenvalues --   -0.60412  -0.59782  -0.58536  -0.55055  -0.51588
 Alpha  occ. eigenvalues --   -0.50759  -0.48539  -0.32323
 Alpha virt. eigenvalues --    0.02701   0.03016   0.03807   0.04216   0.04723
 Alpha virt. eigenvalues --    0.07017   0.07899   0.08675   0.09073   0.10994
 Alpha virt. eigenvalues --    0.11682   0.13053   0.14090   0.14505   0.15077

 Mulliken charges:
               1
     1  C   -0.442121
     2  C    0.539328
     3  O   -1.175401
     4  C    0.958046
     5  C   -1.524375
     6  N    0.735624
     7  H    0.275131
     8  H    0.204414
     9  H    0.148973
    10  H   -0.020326
    11  H    0.227268
    12  H   -0.021730
    13  H    0.095168
 Sum of Mulliken charges =   0.00000

 Dipole moment (field-independent basis, Debye):
    X=             -5.2782    Y=             -1.3983    Z=             -0.4549  Tot=              5.4792

 Test job not archived.
 1\1\GINC-SE173\SP\RHF\Aug-CC-pVDZ\C4H7N1O1\OHZDE\09-Apr-2025\0\\#t hf
 aug-cc-pvdz iop(5/13=1,5/36=2,99/5=2) pseudo=read geom=check guess=(re
 ad,tcheck) scf=(maxcycle=1)\\title\\0,1\C,0,-1.30516877,-0.7472201,-0.
 1929\C,0,-0.92301317,0.70201658,-0.26893478\O,0,0.1744746,1.21822785,0
 .29415208\C,0,1.41684299,0.70399097,0.09510255\C,0,1.73937476,-0.65468
 475,0.3588345\N,0,2.06621477,-1.77031995,0.54723024\H,0,-1.60500599,-1
 .0109851,0.83628264\H,0,-2.17123217,-0.91373144,-0.84655267\H,0,-0.500
 07584,-1.42289758,-0.4935414\H,0,-1.72816224,1.43839866,-0.23227693\H,

 Normal termination of Gaussian 16 at Wed Apr  9 16:24:04 2025.
