 Gaussian 16, Revision C.01,

 ----------------------------------------------------------------------
 #t hf aug-cc-pvdz symm=none int=(grid=ultrafine) guess=(read,tcheck) s
 table=(opt,rrhf)
 ----------------------------------------------------------------------
 -----
 title
 -----
 Symbolic Z-matrix:
 Charge =  0 Multiplicity = 1

 SCF Done:  E(RHF) =  -306.624703167     A.U. after   16 cycles
 Normal termination of Gaussian 16 at Wed Apr  9 19:08:57 2025.
 Gaussian 16:  ES64L-G16RevC.01  3-Jul-2019

 ----------------------------------------------------------------------
 #t hf aug-cc-pvdz iop(5/13=1,5/36=2,99/5=2) pseudo=read geom=check gue
 ss=(read,tcheck) scf=(maxcycle=1)
 ----------------------------------------------------------------------
 -----
 title
 -----
 Structure from the checkpoint file:  "Grambow2020_wb97xd3_008800_forward_mol1.chk"
 Charge =  0 Multiplicity = 1

                         Standard orientation:
 ---------------------------------------------------------------------
 Center     Atomic      Atomic             Coordinates (Angstroms)
 Number     Number       Type             X           Y           Z
 ---------------------------------------------------------------------
      1          8           0       -2.297429    0.023506   -0.028707
      2          6           0       -1.022687    0.120280    0.041905
      3          6           0       -0.435573   -1.165025    0.149909
      4          6           0        1.007153   -1.257941   -0.304423
      5          6           0        1.796397   -0.033641    0.178711
      6          6           0        1.057304    1.263758    0.001228
      7          6           0       -0.274753    1.354498   -0.070505
      8          1           0       -0.662805   -1.611691    1.119910
      9          1           0       -1.906419   -1.170107   -0.178599
     10          1           0        1.482602   -2.171059    0.055597
     11          1           0        1.053499   -1.295386   -1.397699
     12          1           0        2.031972   -0.126050    1.247868
     13          1           0        2.759396    0.031536   -0.333481
     14          1           0        1.651112    2.171540   -0.050664
     15          1           0       -0.796977    2.291599   -0.214229
 ---------------------------------------------------------------------

 SCF Done:  E(RHF) =  -306.944289836     A.U. after    2 cycles

 The electronic state is 1-A.
 Alpha  occ. eigenvalues --  -20.55327 -11.34520 -11.28863 -11.25390 -11.25280
 Alpha  occ. eigenvalues --  -11.23754 -11.19911  -1.48786  -1.14618  -1.03446
 Alpha  occ. eigenvalues --   -1.00067  -0.87502  -0.83735  -0.70770  -0.70070
 Alpha  occ. eigenvalues --   -0.67766  -0.63372  -0.59746  -0.58723  -0.56437
 Alpha  occ. eigenvalues --   -0.54848  -0.53236  -0.48289  -0.45383  -0.40462
 Alpha  occ. eigenvalues --   -0.31943
 Alpha virt. eigenvalues --    0.02831   0.03600   0.03928   0.04422   0.05752
 Alpha virt. eigenvalues --    0.06153   0.06479   0.06810   0.07466   0.11225
 Alpha virt. eigenvalues --    0.12437   0.13109   0.13538   0.13934   0.14412

 Mulliken charges:
               1
     1  O   -1.567995
     2  C    1.062537
     3  C   -0.304750
     4  C   -0.384546
     5  C   -0.519709
     6  C    0.339596
     7  C    0.424154
     8  H   -0.011494
     9  H    0.582379
    10  H    0.194069
    11  H    0.140069
    12  H    0.239338
    13  H    0.200275
    14  H   -0.186126
    15  H   -0.207800
 Sum of Mulliken charges =  -0.00000

 Dipole moment (field-independent basis, Debye):
    X=              3.3572    Y=              1.2003    Z=              0.3739  Tot=              3.5848

 Test job not archived.
 1\1\GINC-SE454\SP\RHF\Aug-CC-pVDZ\C6H8O1\OHZDE\09-Apr-2025\0\\#t hf au
 g-cc-pvdz iop(5/13=1,5/36=2,99/5=2) pseudo=read geom=check guess=(read
 ,tcheck) scf=(maxcycle=1)\\title\\0,1\O,0,0.40284499,-2.59111016,0.469
 11249\C,0,0.37183409,-1.33832296,0.2066602\C,0,-0.95292897,-0.92799384
 ,-0.08490756\C,0,-1.23635313,0.54515465,0.12960602\C,0,-0.06291847,1.3
 9204032,-0.3813456\C,0,1.28348365,0.84413566,0.00336723\C,0,1.50611543
 ,-0.44284526,0.28949622\H,0,-1.28480611,-1.34672191,-1.03704743\H,0,-0
 .83368543,-2.32453972,0.46896018\H,0,-2.15824767,0.8521043,-0.36571399

 Normal termination of Gaussian 16 at Wed Apr  9 19:09:02 2025.
