 Gaussian 16, Revision C.01,

 ----------------------------------------------------------------------
 #t hf aug-cc-pvdz symm=none int=(grid=ultrafine) guess=(read,tcheck) s
 table=(opt,rrhf)
 ----------------------------------------------------------------------
 -----
 title
 -----
 Symbolic Z-matrix:
 Charge =  0 Multiplicity = 1

 SCF Done:  E(RHF) =  -322.485891628     A.U. after   18 cycles
 Normal termination of Gaussian 16 at Wed Apr  9 19:12:01 2025.
 Gaussian 16:  ES64L-G16RevC.01  3-Jul-2019

 ----------------------------------------------------------------------
 #t hf aug-cc-pvdz iop(5/13=1,5/36=2,99/5=2) pseudo=read geom=check gue
 ss=(read,tcheck) scf=(maxcycle=1)
 ----------------------------------------------------------------------
 -----
 title
 -----
 Structure from the checkpoint file:  "Grambow2020_wb97xd3_008890_reverse_mol2.chk"
 Charge =  0 Multiplicity = 1

                         Standard orientation:
 ---------------------------------------------------------------------
 Center     Atomic      Atomic             Coordinates (Angstroms)
 Number     Number       Type             X           Y           Z
 ---------------------------------------------------------------------
      1          8           0        2.160758    0.115689    0.047488
      2          6           0        0.990408   -0.012135    0.043837
      3          6           0        0.169487   -1.244406   -0.553134
      4          7           0       -1.218370   -0.810756   -0.177731
      5          6           0       -0.851323   -0.273228    1.085949
      6          6           0       -0.185757    0.871773    0.641413
      7          6           0       -1.086004    0.615660   -0.639452
      8          1           0        0.500742   -2.129736   -0.002612
      9          1           0        0.245064   -1.440982   -1.623525
     10          1           0       -0.121520    4.047818   -0.633709
     11          1           0       -0.900242   -0.826541    2.022619
     12          1           0        0.001714    3.460010   -0.188323
     13          1           0       -2.030980    1.143976   -0.541381
     14          1           0       -0.673114    0.749257   -1.640542
 ---------------------------------------------------------------------

 SCF Done:  E(RHF) =  -322.816081027     A.U. after    2 cycles

 The electronic state is 1-A.
 Alpha  occ. eigenvalues --  -20.56853 -15.55359 -11.38571 -11.37290 -11.31935
 Alpha  occ. eigenvalues --  -11.29193 -11.22351  -1.51572  -1.35987  -1.04857
 Alpha  occ. eigenvalues --   -1.00485  -0.96291  -0.81095  -0.75305  -0.72746
 Alpha  occ. eigenvalues --   -0.69284  -0.67564  -0.62542  -0.58921  -0.57986
 Alpha  occ. eigenvalues --   -0.56894  -0.54735  -0.53749  -0.49932  -0.40154
 Alpha  occ. eigenvalues --   -0.33832
 Alpha virt. eigenvalues --    0.00845   0.02703   0.03822   0.04467   0.05038
 Alpha virt. eigenvalues --    0.05605   0.07188   0.08008   0.09349   0.09745
 Alpha virt. eigenvalues --    0.10662   0.12524   0.13293   0.13615   0.14071

 Mulliken charges:
               1
     1  O   -1.348914
     2  C    1.572955
     3  C   -0.302638
     4  N    0.473240
     5  C   -0.062997
     6  C   -0.222599
     7  C   -0.171775
     8  H    0.133911
     9  H    0.050726
    10  H   -0.013917
    11  H   -0.128870
    12  H    0.044623
    13  H   -0.018884
    14  H   -0.004861
 Sum of Mulliken charges =  -0.00000

 Dipole moment (field-independent basis, Debye):
    X=             -2.2893    Y=             -2.9192    Z=             -0.4559  Tot=              3.7377

 Test job not archived.
 1\1\GINC-SE118\SP\RHF\Aug-CC-pVDZ\C5H7N1O1\OHZDE\09-Apr-2025\0\\#t hf
 aug-cc-pvdz iop(5/13=1,5/36=2,99/5=2) pseudo=read geom=check guess=(re
 ad,tcheck) scf=(maxcycle=1)\\title\\0,1\O,0,1.01469208,2.16758436,-0.1
 8558698\C,0,0.73080476,1.02512571,-0.169295\C,0,0.92381229,-0.02055882
 ,-1.36012366\N,0,0.43576986,-1.26145528,-0.66938717\C,0,1.0134192,-0.9
 4683778,0.59072597\C,0,0.14706618,0.08231473,0.96741546\C,0,-0.8027450
 4,-0.65143535,-0.06994963\H,0,1.99625283,-0.0480502,-1.57396511\H,0,0.
 37917594,0.15353615,-2.28918343\H,0,-2.84556228,1.25975057,2.14008229\

 Normal termination of Gaussian 16 at Wed Apr  9 19:12:06 2025.
