 Gaussian 16, Revision C.01,

 ----------------------------------------------------------------------
 #t hf aug-cc-pvdz symm=none int=(grid=ultrafine) guess=(read,tcheck) s
 table=(opt,rrhf)
 ----------------------------------------------------------------------
 -----
 title
 -----
 Symbolic Z-matrix:
 Charge =  0 Multiplicity = 1

 SCF Done:  E(RHF) =  -358.442672619     A.U. after   18 cycles
 Normal termination of Gaussian 16 at Wed Apr  9 03:40:15 2025.
 Gaussian 16:  ES64L-G16RevC.01  3-Jul-2019

 ----------------------------------------------------------------------
 #t hf aug-cc-pvdz iop(5/13=1,5/36=2,99/5=2) pseudo=read geom=check gue
 ss=(read,tcheck) scf=(maxcycle=1)
 ----------------------------------------------------------------------
 -----
 title
 -----
 Structure from the checkpoint file:  "Grambow2020_wb97xd3_007450_reverse_mol2.chk"
 Charge =  0 Multiplicity = 1

                         Standard orientation:
 ---------------------------------------------------------------------
 Center     Atomic      Atomic             Coordinates (Angstroms)
 Number     Number       Type             X           Y           Z
 ---------------------------------------------------------------------
      1          8           0        2.282346   -0.521494   -0.530999
      2          6           0        1.329590   -0.774792    0.475983
      3          6           0        0.019549   -0.089234    0.195955
      4          7           0        0.162158    1.355144    0.133600
      5          8           0       -0.828153    1.986385   -0.085079
      6          6           0       -2.299425   -1.206046   -0.172185
      7          6           0       -1.135538   -0.672688    0.010228
      8          1           0        2.464129    0.421810   -0.537354
      9          1           0        1.181776   -1.852849    0.515642
     10          1           0        1.698495   -0.445926    1.455791
     11          1           0       -2.632293   -1.487681   -1.164593
     12          1           0       -2.965814   -1.383924    0.664046
 ---------------------------------------------------------------------

 SCF Done:  E(RHF) =  -358.797094873     A.U. after    2 cycles

 The electronic state is 1-A.
 Alpha  occ. eigenvalues --  -20.61815 -20.55952 -15.64948 -11.30864 -11.29996
 Alpha  occ. eigenvalues --  -11.28787 -11.28037  -1.60645  -1.46529  -1.15483
 Alpha  occ. eigenvalues --   -1.06390  -0.96936  -0.91025  -0.77606  -0.73095
 Alpha  occ. eigenvalues --   -0.70845  -0.69046  -0.65462  -0.63775  -0.62515
 Alpha  occ. eigenvalues --   -0.61312  -0.53125  -0.47438  -0.43779  -0.41087
 Alpha  occ. eigenvalues --   -0.40219
 Alpha virt. eigenvalues --    0.03232   0.03304   0.04133   0.04519   0.05041
 Alpha virt. eigenvalues --    0.06065   0.08371   0.08743   0.11181   0.11864
 Alpha virt. eigenvalues --    0.12627   0.13457   0.15360   0.15831   0.16063

 Mulliken charges:
               1
     1  O   -1.090425
     2  C    0.500889
     3  C   -0.870313
     4  N    1.409588
     5  O   -1.142866
     6  C    0.028418
     7  C    0.664065
     8  H    0.328868
     9  H    0.034442
    10  H    0.182116
    11  H   -0.019742
    12  H   -0.025039
 Sum of Mulliken charges =   0.00000

 Dipole moment (field-independent basis, Debye):
    X=             -1.7309    Y=             -1.8218    Z=              0.9318  Tot=              2.6802

 Test job not archived.
 1\1\GINC-SE207\SP\RHF\Aug-CC-pVDZ\C4H5N1O2\OHZDE\09-Apr-2025\0\\#t hf
 aug-cc-pvdz iop(5/13=1,5/36=2,99/5=2) pseudo=read geom=check guess=(re
 ad,tcheck) scf=(maxcycle=1)\\title\\0,1\O,0,-2.24254109,0.8381791,0.53
 003977\C,0,-1.49407258,-0.25092146,0.04057932\C,0,-0.08705637,0.147826
 94,-0.31426912\N,0,-0.05312326,1.15830746,-1.35745271\O,0,1.02442723,1
 .53820213,-1.70611522\C,0,2.11887362,-0.75217761,0.72702861\C,0,1.0090
 0553,-0.31636009,0.22639607\H,0,-2.31273161,1.48987456,-0.17229558\H,0
 ,-1.47772961,-1.00802363,0.82298452\H,0,-1.97193564,-0.6878651,-0.8454

 Normal termination of Gaussian 16 at Wed Apr  9 03:40:20 2025.
