 Gaussian 16, Revision C.01,

 ----------------------------------------------------------------------
 #t hf aug-cc-pvdz symm=none int=(grid=ultrafine) guess=(read,tcheck) s
 table=(opt,rrhf)
 ----------------------------------------------------------------------
 -----
 title
 -----
 Symbolic Z-matrix:
 Charge =  0 Multiplicity = 1

 SCF Done:  E(RHF) =  -345.868295206     A.U. after   16 cycles

 1\1\GINC-SE035\Stability\RHF\Aug-CC-pVDZ\C5H12O2\OHZDE\09-Apr-2025\0\\
 #t hf aug-cc-pvdz symm=none int=(grid=ultrafine) guess=(read,tcheck) s
 table=(opt,rrhf)\\title\\0,1\C,0,2.10881976,-0.07969694,1.35001001\C,0
 ,0.64781606,0.32100544,1.20464462\C,0,0.24501289,0.72565,-0.19141982\O
 ,0,0.43771356,-0.61737276,-1.1753384\C,0,-1.11816041,0.9882298,-0.4585
 3643\C,0,-1.32621297,-1.09498727,-1.44853869\O,0,-2.02309829,0.8708985
 9,0.59809573\H,0,2.33940749,-0.9852215,0.78237052\H,0,2.77649091,0.709
 78489,0.996843\H,0,2.35604499,-0.28216738,2.39349077\H,0,-0.00966045,-

 Normal termination of Gaussian 16 at Wed Apr  9 18:49:07 2025.
 Gaussian 16:  ES64L-G16RevC.01  3-Jul-2019

 ----------------------------------------------------------------------
 #t hf aug-cc-pvdz iop(5/13=1,5/36=2,99/5=2) pseudo=read geom=check gue
 ss=(read,tcheck) scf=(maxcycle=1)
 ----------------------------------------------------------------------
 -----
 title
 -----
 Structure from the checkpoint file:  "Grambow2020_wb97xd3_008073_forward_mol1.chk"
 Charge =  0 Multiplicity = 1

                         Standard orientation:
 ---------------------------------------------------------------------
 Center     Atomic      Atomic             Coordinates (Angstroms)
 Number     Number       Type             X           Y           Z
 ---------------------------------------------------------------------
      1          6           0        2.635668    0.064381   -0.219986
      2          6           0        1.296442   -0.655911   -0.282265
      3          6           0        0.263244   -0.142797    0.689434
      4          8           0       -0.067069    1.446753    0.273306
      5          6           0       -1.052152   -0.656078    0.620030
      6          6           0       -1.742088    1.259262   -0.483891
      7          8           0       -1.321407   -1.629094   -0.344279
      8          1           0        2.547697    1.111079   -0.523374
      9          1           0        3.051454    0.047770    0.790282
     10          1           0        3.362095   -0.403958   -0.886266
     11          1           0        0.879376   -0.611525   -1.290358
     12          1           0        1.438308   -1.719457   -0.068357
     13          1           0        0.641345    0.036807    1.693552
     14          1           0        0.617518    2.071480   -0.052744
     15          1           0       -1.628295   -0.752681    1.537236
     16          1           0       -1.608043    2.274693   -0.857113
     17          1           0       -1.755488    0.539468   -1.294330
     18          1           0       -2.599047    1.210983    0.175668
     19          1           0       -2.245791   -1.559066   -0.596358
 ---------------------------------------------------------------------

 SCF Done:  E(RHF) =  -346.233980027     A.U. after    2 cycles

 The electronic state is 1-A.
 Alpha  occ. eigenvalues --  -20.55746 -20.53524 -11.31211 -11.27889 -11.22651
 Alpha  occ. eigenvalues --  -11.22595 -11.22411  -1.43749  -1.41189  -1.06832
 Alpha  occ. eigenvalues --   -0.97618  -0.94246  -0.84779  -0.76778  -0.68079
 Alpha  occ. eigenvalues --   -0.67469  -0.64028  -0.61207  -0.60535  -0.60007
 Alpha  occ. eigenvalues --   -0.57833  -0.53808  -0.52333  -0.51482  -0.49892
 Alpha  occ. eigenvalues --   -0.46827  -0.46453  -0.44772  -0.24266
 Alpha virt. eigenvalues --    0.03193   0.03603   0.04030   0.04380   0.05820
 Alpha virt. eigenvalues --    0.06004   0.06120   0.07011   0.08109   0.08892
 Alpha virt. eigenvalues --    0.09411   0.09780   0.11923   0.12726   0.13749

 Mulliken charges:
               1
     1  C   -0.348064
     2  C   -0.363113
     3  C    0.673826
     4  O   -1.002578
     5  C    1.052776
     6  C   -0.036725
     7  O   -1.479000
     8  H    0.102332
     9  H    0.175961
    10  H    0.137809
    11  H    0.195501
    12  H    0.174493
    13  H   -0.155047
    14  H    0.370065
    15  H   -0.152116
    16  H   -0.058558
    17  H    0.209507
    18  H    0.160094
    19  H    0.342837
 Sum of Mulliken charges =   0.00000

 Dipole moment (field-independent basis, Debye):
    X=             -0.1220    Y=              1.8604    Z=             -0.7625  Tot=              2.0143

 Test job not archived.
 1\1\GINC-SE035\SP\RHF\Aug-CC-pVDZ\C5H12O2\OHZDE\09-Apr-2025\0\\#t hf a
 ug-cc-pvdz iop(5/13=1,5/36=2,99/5=2) pseudo=read geom=check guess=(rea
 d,tcheck) scf=(maxcycle=1)\\title\\0,1\C,0,2.10881976,-0.07969694,1.35
 001001\C,0,0.64781606,0.32100544,1.20464462\C,0,0.24501289,0.72565,-0.
 19141982\O,0,0.43771356,-0.61737276,-1.1753384\C,0,-1.11816041,0.98822
 98,-0.45853643\C,0,-1.32621297,-1.09498727,-1.44853869\O,0,-2.02309829
 ,0.87089859,0.59809573\H,0,2.33940749,-0.9852215,0.78237052\H,0,2.7764
 9091,0.70978489,0.996843\H,0,2.35604499,-0.28216738,2.39349077\H,0,-0.

 Normal termination of Gaussian 16 at Wed Apr  9 18:49:15 2025.
