 Gaussian 16, Revision C.01,

 ----------------------------------------------------------------------
 #t hf aug-cc-pvdz symm=none int=(grid=ultrafine) guess=(read,tcheck) s
 table=(opt,rrhf)
 ----------------------------------------------------------------------
 -----
 title
 -----
 Symbolic Z-matrix:
 Charge =  0 Multiplicity = 1

 SCF Done:  E(RHF) =  -379.563036405     A.U. after   13 cycles
 Normal termination of Gaussian 16 at Wed Apr  9 19:04:45 2025.
 Gaussian 16:  ES64L-G16RevC.01  3-Jul-2019

 ----------------------------------------------------------------------
 #t hf aug-cc-pvdz iop(5/13=1,5/36=2,99/5=2) pseudo=read geom=check gue
 ss=(read,tcheck) scf=(maxcycle=1)
 ----------------------------------------------------------------------
 -----
 title
 -----
 Structure from the checkpoint file:  "Grambow2020_wb97xd3_008536_reverse_mol2.chk"
 Charge =  0 Multiplicity = 1

                         Standard orientation:
 ---------------------------------------------------------------------
 Center     Atomic      Atomic             Coordinates (Angstroms)
 Number     Number       Type             X           Y           Z
 ---------------------------------------------------------------------
      1          8           0        0.056700   -1.090913   -0.539159
      2          6           0       -0.716578   -0.262179    0.279324
      3          6           0       -2.191256   -0.653653    0.350349
      4          8           0       -2.597620    0.689432    0.044117
      5          6           0       -1.255222    1.053650   -0.306009
      6          6           0        3.098737   -0.030164    0.008594
      7          8           0        4.138017    0.350949    0.185973
      8          1           0        0.983432   -0.862239   -0.428668
      9          1           0       -2.585701   -0.995237    1.309377
     10          1           0       -2.467065   -1.357002   -0.441889
     11          1           0       -1.114490    1.114696   -1.390715
     12          1           0       -0.947656    1.990311    0.165822
     13          1           0       -0.259377   -0.132202    1.265079
 ---------------------------------------------------------------------

 SCF Done:  E(RHF) =  -379.938630799     A.U. after    2 cycles

 The electronic state is 1-A.
 Alpha  occ. eigenvalues --  -20.67951 -20.55443 -20.53705 -11.39664 -11.29386
 Alpha  occ. eigenvalues --  -11.28301 -11.28199  -1.63329  -1.47658  -1.45194
 Alpha  occ. eigenvalues --   -1.01003  -0.94146  -0.83262  -0.78205  -0.73656
 Alpha  occ. eigenvalues --   -0.69154  -0.66178  -0.66171  -0.64664  -0.61487
 Alpha  occ. eigenvalues --   -0.58613  -0.56903  -0.55023  -0.52223  -0.46929
 Alpha  occ. eigenvalues --   -0.43196  -0.40794
 Alpha virt. eigenvalues --    0.03701   0.04255   0.04639   0.05196   0.06732
 Alpha virt. eigenvalues --    0.06925   0.07717   0.08532   0.09467   0.11605
 Alpha virt. eigenvalues --    0.12368   0.13573   0.13909   0.13926   0.15249

 Mulliken charges:
               1
     1  O   -1.390113
     2  C    0.751473
     3  C    0.540846
     4  O   -1.282585
     5  C    0.665099
     6  C    0.533405
     7  O   -0.560306
     8  H    0.442824
     9  H    0.062015
    10  H    0.066433
    11  H    0.051177
    12  H    0.042694
    13  H    0.077040
 Sum of Mulliken charges =  -0.00000

 Dipole moment (field-independent basis, Debye):
    X=              2.8566    Y=              0.1732    Z=              0.9416  Tot=              3.0128

 Test job not archived.
 1\1\GINC-SE114\SP\RHF\Aug-CC-pVDZ\C4H6O3\OHZDE\09-Apr-2025\0\\#t hf au
 g-cc-pvdz iop(5/13=1,5/36=2,99/5=2) pseudo=read geom=check guess=(read
 ,tcheck) scf=(maxcycle=1)\\title\\0,1\O,0,0.26138399,-1.0278281,-0.782
 04745\C,0,-0.29891556,-0.23760117,0.22605973\C,0,-1.80623978,-0.416843
 38,0.39581419\O,0,-2.01635383,1.00258,0.33357112\C,0,-0.66659557,1.219
 19892,-0.10059813\C,0,3.46871522,-0.52221851,-0.41246005\O,0,4.5666555
 ,-0.32964297,-0.29306151\H,0,1.21868961,-0.95699231,-0.73867488\H,0,-2
 .16956294,-0.84679657,1.33130292\H,0,-2.25562768,-0.93638393,-0.456558

 Normal termination of Gaussian 16 at Wed Apr  9 19:04:49 2025.
