 Gaussian 16, Revision C.01,

 ----------------------------------------------------------------------
 #t hf aug-cc-pvdz symm=none int=(grid=ultrafine) guess=(read,tcheck) s
 table=(opt,rrhf)
 ----------------------------------------------------------------------
 -----
 title
 -----
 Symbolic Z-matrix:
 Charge =  0 Multiplicity = 1

 SCF Done:  E(RHF) =  -323.765685485     A.U. after   15 cycles
 Normal termination of Gaussian 16 at Wed Apr  9 17:54:07 2025.
 Gaussian 16:  ES64L-G16RevC.01  3-Jul-2019

 ----------------------------------------------------------------------
 #t hf aug-cc-pvdz iop(5/13=1,5/36=2,99/5=2) pseudo=read geom=check gue
 ss=(read,tcheck) scf=(maxcycle=1)
 ----------------------------------------------------------------------
 -----
 title
 -----
 Structure from the checkpoint file:  "Grambow2020_wb97xd3_006868_reverse_mol2.chk"
 Charge =  0 Multiplicity = 1

                         Standard orientation:
 ---------------------------------------------------------------------
 Center     Atomic      Atomic             Coordinates (Angstroms)
 Number     Number       Type             X           Y           Z
 ---------------------------------------------------------------------
      1          6           0       -2.875659   -0.559574   -0.004873
      2          7           0       -1.695308    0.263898    0.026889
      3          6           0        2.177645   -1.422653    0.012856
      4          6           0       -0.563413   -0.319082   -0.013379
      5          6           0        0.658766    0.424245   -0.007311
      6          8           0        1.816609   -0.180850   -0.008766
      7          6           0        0.706957    1.910900    0.000654
      8          1           0       -3.492623   -0.280052   -0.862827
      9          1           0       -3.475665   -0.370154    0.889044
     10          1           0       -2.660760   -1.636370   -0.061502
     11          1           0        3.242553   -1.578016   -0.008337
     12          1           0        1.450134   -2.218551    0.054748
     13          1           0       -0.495941   -1.414005   -0.065372
     14          1           0        1.739178    2.250749   -0.076309
     15          1           0        0.132659    2.324791   -0.831178
     16          1           0        0.268972    2.318101    0.915949
 ---------------------------------------------------------------------

 SCF Done:  E(RHF) =  -324.102201320     A.U. after    2 cycles

 The electronic state is 1-A.
 Alpha  occ. eigenvalues --  -20.68412 -15.49220 -11.29846 -11.29420 -11.28310
 Alpha  occ. eigenvalues --  -11.25366 -11.23110  -1.60315  -1.23239  -1.07912
 Alpha  occ. eigenvalues --   -0.97820  -0.94684  -0.87340  -0.76561  -0.72632
 Alpha  occ. eigenvalues --   -0.72035  -0.66455  -0.65426  -0.59970  -0.59205
 Alpha  occ. eigenvalues --   -0.57197  -0.55885  -0.55340  -0.51253  -0.45360
 Alpha  occ. eigenvalues --   -0.44004  -0.25018
 Alpha virt. eigenvalues --    0.02776   0.03497   0.03943   0.04296   0.05420
 Alpha virt. eigenvalues --    0.05853   0.06078   0.06768   0.07905   0.08360
 Alpha virt. eigenvalues --    0.11303   0.12101   0.12787   0.13142   0.13548

 Mulliken charges:
               1
     1  C   -0.358227
     2  N    0.709386
     3  C    0.395096
     4  C   -0.979835
     5  C    1.306971
     6  O   -1.298051
     7  C   -0.367595
     8  H    0.105035
     9  H    0.106948
    10  H    0.119075
    11  H   -0.136020
    12  H    0.051426
    13  H   -0.281953
    14  H    0.057937
    15  H    0.280791
    16  H    0.289015
 Sum of Mulliken charges =  -0.00000

 Dipole moment (field-independent basis, Debye):
    X=              1.2266    Y=             -1.8795    Z=             -0.0799  Tot=              2.2458

 Test job not archived.
 1\1\GINC-SE114\SP\RHF\Aug-CC-pVDZ\C5H9N1O1\OHZDE\09-Apr-2025\0\\#t hf
 aug-cc-pvdz iop(5/13=1,5/36=2,99/5=2) pseudo=read geom=check guess=(re
 ad,tcheck) scf=(maxcycle=1)\\title\\0,1\C,0,1.28695754,0.60762104,-2.3
 8143039\N,0,0.34860692,0.80863001,-1.30838024\C,0,-0.17499918,-2.07002
 36,1.73852172\C,0,0.27275332,-0.09097114,-0.40969314\C,0,-0.61769716,0
 .0391549,0.70226955\O,0,-0.71948761,-0.90509654,1.59936032\C,0,-1.4782
 5975,1.23264988,0.92028501\H,0,1.99462613,1.44029993,-2.40812186\H,0,0
 .75501451,0.61619482,-3.33638518\H,0,1.85191218,-0.33235018,-2.3029490

 Normal termination of Gaussian 16 at Wed Apr  9 17:54:12 2025.
