 Gaussian 16, Revision C.01,

 ----------------------------------------------------------------------
 #t hf aug-cc-pvdz symm=none int=(grid=ultrafine) guess=(read,tcheck) s
 table=(opt,rrhf)
 ----------------------------------------------------------------------
 -----
 title
 -----
 Symbolic Z-matrix:
 Charge =  0 Multiplicity = 1

 SCF Done:  E(RHF) =  -322.597376044     A.U. after   18 cycles
 Normal termination of Gaussian 16 at Wed Apr  9 18:21:24 2025.
 Gaussian 16:  ES64L-G16RevC.01  3-Jul-2019

 ----------------------------------------------------------------------
 #t hf aug-cc-pvdz iop(5/13=1,5/36=2,99/5=2) pseudo=read geom=check gue
 ss=(read,tcheck) scf=(maxcycle=1)
 ----------------------------------------------------------------------
 -----
 title
 -----
 Structure from the checkpoint file:  "Grambow2020_wb97xd3_007350_forward_mol1.chk"
 Charge =  0 Multiplicity = 1

                         Standard orientation:
 ---------------------------------------------------------------------
 Center     Atomic      Atomic             Coordinates (Angstroms)
 Number     Number       Type             X           Y           Z
 ---------------------------------------------------------------------
      1          8           0        2.301636    0.260502   -0.122755
      2          6           0        1.116434    0.173113    0.098694
      3          6           0        0.410486   -1.194339    0.420795
      4          7           0       -0.495837   -0.991507   -0.621718
      5          6           0       -1.729396   -0.405766   -0.120353
      6          6           0       -1.327968    1.008835    0.280753
      7          6           0        0.104460    1.140464   -0.134679
      8          1           0        1.136500   -1.977771    0.221002
      9          1           0        0.001628   -1.245471    1.434230
     10          1           0       -2.120849   -1.008300    0.708300
     11          1           0       -2.471026   -0.396223   -0.917902
     12          1           0       -1.489362    1.306640    1.324825
     13          1           0       -1.910128    1.707778   -0.320383
     14          1           0        0.466903    2.136039   -0.387263
 ---------------------------------------------------------------------

 SCF Done:  E(RHF) =  -322.924631701     A.U. after    2 cycles

 The electronic state is 1-A.
 Alpha  occ. eigenvalues --  -20.50442 -15.57038 -11.33708 -11.30262 -11.28896
 Alpha  occ. eigenvalues --  -11.27948 -11.27534  -1.45029  -1.27160  -1.08194
 Alpha  occ. eigenvalues --   -1.03183  -0.90502  -0.84510  -0.74969  -0.71514
 Alpha  occ. eigenvalues --   -0.69218  -0.65149  -0.62442  -0.61205  -0.59260
 Alpha  occ. eigenvalues --   -0.54558  -0.53137  -0.51602  -0.48643  -0.40303
 Alpha  occ. eigenvalues --   -0.32814
 Alpha virt. eigenvalues --   -0.01565   0.02874   0.03436   0.03804   0.04695
 Alpha virt. eigenvalues --    0.05810   0.06055   0.06531   0.09007   0.10578
 Alpha virt. eigenvalues --    0.11955   0.13230   0.13540   0.13960   0.14512

 Mulliken charges:
               1
     1  O   -1.431430
     2  C    1.577806
     3  C   -0.524581
     4  N    0.435650
     5  C   -0.352571
     6  C   -0.454807
     7  C    0.210013
     8  H    0.015125
     9  H    0.120541
    10  H    0.164144
    11  H    0.015560
    12  H    0.147352
    13  H    0.241836
    14  H   -0.164637
 Sum of Mulliken charges =  -0.00000

 Dipole moment (field-independent basis, Debye):
    X=             -4.4967    Y=              1.5931    Z=              2.2938  Tot=              5.2934

 Test job not archived.
 1\1\GINC-SE229\SP\RHF\Aug-CC-pVDZ\C5H7N1O1\OHZDE\09-Apr-2025\0\\#t hf
 aug-cc-pvdz iop(5/13=1,5/36=2,99/5=2) pseudo=read geom=check guess=(re
 ad,tcheck) scf=(maxcycle=1)\\title\\0,1\O,0,1.98757078,0.4819751,-1.84
 102833\C,0,1.13747551,0.36929422,-0.98895993\C,0,1.43626234,-0.2222418
 ,0.43682009\N,0,0.42665998,-1.17260789,0.27279679\C,0,-0.81117228,-0.7
 1461684,0.8844708\C,0,-1.25882511,0.43608448,-0.00918436\C,0,-0.271209
 01,0.46331266,-1.13418711\H,0,2.43858933,-0.6402988,0.40010035\H,0,1.3
 1072569,0.50433603,1.2450004\H,0,-0.6292877,-0.42333223,1.92611296\H,0

 Normal termination of Gaussian 16 at Wed Apr  9 18:21:28 2025.
