 Gaussian 16, Revision C.01,

 ----------------------------------------------------------------------
 #t hf aug-cc-pvdz symm=none int=(grid=ultrafine) guess=(read,tcheck) s
 table=(opt,rrhf)
 ----------------------------------------------------------------------
 -----
 title
 -----
 Symbolic Z-matrix:
 Charge =  0 Multiplicity = 1

 SCF Done:  E(RHF) =  -343.713372071     A.U. after   14 cycles
 Normal termination of Gaussian 16 at Wed Apr  9 18:10:14 2025.
 Gaussian 16:  ES64L-G16RevC.01  3-Jul-2019

 ----------------------------------------------------------------------
 #t hf aug-cc-pvdz iop(5/13=1,5/36=2,99/5=2) pseudo=read geom=check gue
 ss=(read,tcheck) scf=(maxcycle=1)
 ----------------------------------------------------------------------
 -----
 title
 -----
 Structure from the checkpoint file:  "Grambow2020_wb97xd3_007150_reverse_mol2.chk"
 Charge =  0 Multiplicity = 1

                         Standard orientation:
 ---------------------------------------------------------------------
 Center     Atomic      Atomic             Coordinates (Angstroms)
 Number     Number       Type             X           Y           Z
 ---------------------------------------------------------------------
      1          8           0       -0.929540   -0.413514    1.333683
      2          6           0       -1.171898   -0.381692    0.012642
      3          6           0       -1.562388   -1.431750   -0.703362
      4          6           0       -0.964038    0.938497   -0.618850
      5          8           0       -0.623294    1.892111    0.037362
      6          6           0        2.360656   -0.914178    0.027906
      7          6           0        2.623498    0.369894   -0.149392
      8          1           0       -0.680662    0.488060    1.588856
      9          1           0       -1.727299   -1.315980   -1.765389
     10          1           0       -1.718597   -2.403467   -0.255243
     11          1           0       -1.136431    1.002866   -1.705580
     12          1           0        2.916958   -1.684290   -0.494515
     13          1           0        1.579909   -1.247126    0.702693
     14          1           0        2.069003    1.143147    0.370230
     15          1           0        3.404813    0.703393   -0.823079
 ---------------------------------------------------------------------

 SCF Done:  E(RHF) =  -344.064821343     A.U. after    2 cycles

 The electronic state is 1-A.
 Alpha  occ. eigenvalues --  -20.58688 -20.57071 -11.36321 -11.32230 -11.25957
 Alpha  occ. eigenvalues --  -11.23609 -11.23462  -1.52532  -1.48935  -1.08135
 Alpha  occ. eigenvalues --   -1.03621  -0.91108  -0.80325  -0.79080  -0.76048
 Alpha  occ. eigenvalues --   -0.69495  -0.65149  -0.63934  -0.61328  -0.60174
 Alpha  occ. eigenvalues --   -0.59661  -0.57046  -0.54143  -0.50505  -0.45298
 Alpha  occ. eigenvalues --   -0.38611  -0.37187
 Alpha virt. eigenvalues --    0.03261   0.03884   0.04471   0.05056   0.05671
 Alpha virt. eigenvalues --    0.06276   0.06470   0.07730   0.08059   0.10179
 Alpha virt. eigenvalues --    0.10837   0.12118   0.12642   0.14368   0.14595

 Mulliken charges:
               1
     1  O   -1.650478
     2  C    1.851416
     3  C    0.098680
     4  C    0.679465
     5  O   -1.109013
     6  C    0.121967
     7  C    0.116422
     8  H    0.368674
     9  H   -0.091194
    10  H   -0.133536
    11  H    0.038997
    12  H   -0.072534
    13  H   -0.066996
    14  H   -0.081746
    15  H   -0.070124
 Sum of Mulliken charges =  -0.00000

 Dipole moment (field-independent basis, Debye):
    X=             -0.6432    Y=             -1.0860    Z=             -1.7965  Tot=              2.1955

 Test job not archived.
 1\1\GINC-SE220\SP\RHF\Aug-CC-pVDZ\C5H8O2\OHZDE\09-Apr-2025\0\\#t hf au
 g-cc-pvdz iop(5/13=1,5/36=2,99/5=2) pseudo=read geom=check guess=(read
 ,tcheck) scf=(maxcycle=1)\\title\\0,1\O,0,0.75056189,-1.19640821,-1.26
 157089\C,0,1.24117139,-0.8081078,-0.07269552\C,0,1.34894,-1.60121603,0
 .98896849\C,0,1.66280567,0.60741641,-0.01435867\O,0,1.57637884,1.31981
 612,-0.98447054\C,0,-2.16807888,0.20936288,0.2505322\C,0,-1.89865392,1
 .458461,-0.09082413\H,0,0.80694032,-0.42552263,-1.84675954\H,0,1.74942
 212,-1.20090546,1.90976538\H,0,1.04478785,-2.63860027,0.96120315\H,0,2

 Normal termination of Gaussian 16 at Wed Apr  9 18:10:18 2025.
