 Gaussian 16, Revision C.01,

 ----------------------------------------------------------------------
 #t hf aug-cc-pvdz symm=none int=(grid=ultrafine) guess=(read,tcheck) s
 table=(opt,rrhf)
 ----------------------------------------------------------------------
 -----
 title
 -----
 Symbolic Z-matrix:
 Charge =  0 Multiplicity = 1

 SCF Done:  E(RHF) =  -318.785356148     A.U. after   15 cycles
 Normal termination of Gaussian 16 at Wed Apr  9 17:59:04 2025.
 Gaussian 16:  ES64L-G16RevC.01  3-Jul-2019

 ----------------------------------------------------------------------
 #t hf aug-cc-pvdz iop(5/13=1,5/36=2,99/5=2) pseudo=read geom=check gue
 ss=(read,tcheck) scf=(maxcycle=1)
 ----------------------------------------------------------------------
 -----
 title
 -----
 Structure from the checkpoint file:  "Grambow2020_wb97xd3_006917_reverse_mol2.chk"
 Charge =  0 Multiplicity = 1

                         Standard orientation:
 ---------------------------------------------------------------------
 Center     Atomic      Atomic             Coordinates (Angstroms)
 Number     Number       Type             X           Y           Z
 ---------------------------------------------------------------------
      1          7           0        2.499950   -0.696324   -0.084894
      2          6           0        1.348403    0.078012    0.007592
      3          6           0        0.106203   -0.687405    0.004038
      4          6           0       -1.071908   -0.049482   -0.058914
      5          7           0       -2.459622   -0.551662    0.058919
      6          6           0       -2.018413    0.900013   -0.178345
      7          7           0        1.327223    1.356271    0.046871
      8          1           0        3.354651   -0.248013    0.197474
      9          1           0        2.427596   -1.653185    0.214565
     10          1           0        0.124416   -1.768937    0.003728
     11          1           0       -2.707805   -0.914337    0.972367
     12          1           0       -2.898366   -1.029740   -0.714702
     13          1           0       -2.325460    1.665373    0.516319
     14          1           0        2.266407    1.744028    0.017753
 ---------------------------------------------------------------------

 SCF Done:  E(RHF) =  -319.119072034     A.U. after    2 cycles

 The electronic state is 1-A.
 Alpha  occ. eigenvalues --  -15.60191 -15.50539 -15.43725 -11.31011 -11.30520
 Alpha  occ. eigenvalues --  -11.24312 -11.21698  -1.32440  -1.24434  -1.12968
 Alpha  occ. eigenvalues --   -1.04142  -0.98190  -0.83616  -0.79851  -0.75271
 Alpha  occ. eigenvalues --   -0.73063  -0.71170  -0.65615  -0.60836  -0.56725
 Alpha  occ. eigenvalues --   -0.55934  -0.53635  -0.45093  -0.44444  -0.39464
 Alpha  occ. eigenvalues --   -0.28906
 Alpha virt. eigenvalues --    0.01981   0.03374   0.04556   0.04856   0.06044
 Alpha virt. eigenvalues --    0.06345   0.08502   0.09772   0.11032   0.11356
 Alpha virt. eigenvalues --    0.12242   0.12934   0.13445   0.13659   0.14783

 Mulliken charges:
               1
     1  N    0.747634
     2  C   -2.480960
     3  C    1.075520
     4  C   -0.594511
     5  N    0.592471
     6  C   -0.408424
     7  N    0.948289
     8  H    0.038219
     9  H    0.045041
    10  H   -0.330834
    11  H    0.191068
    12  H    0.255994
    13  H   -0.108579
    14  H    0.029072
 Sum of Mulliken charges =  -0.00000

 Dipole moment (field-independent basis, Debye):
    X=             -1.5387    Y=             -4.6667    Z=              2.1692  Tot=              5.3713

 Test job not archived.
 1\1\GINC-SE174\SP\RHF\Aug-CC-pVDZ\C4H7N3\OHZDE\09-Apr-2025\0\\#t hf au
 g-cc-pvdz iop(5/13=1,5/36=2,99/5=2) pseudo=read geom=check guess=(read
 ,tcheck) scf=(maxcycle=1)\\title\\0,1\N,0,-2.49672238,-0.59553849,0.10
 113725\C,0,-1.3542627,0.19077615,-0.00231943\C,0,-0.10173773,-0.550180
 96,0.10304703\C,0,1.0632211,0.11152617,0.165246\N,0,2.46191953,-0.3728
 6065,0.13641978\C,0,1.98985434,1.08382983,0.25273061\N,0,-1.35087024,1
 .46325023,-0.13168565\H,0,-3.34635332,-0.18360272,-0.24479028\H,0,-2.3
 9821925,-1.56970187,-0.12645068\H,0,-0.10360828,-1.62914721,0.17967535

 Normal termination of Gaussian 16 at Wed Apr  9 17:59:08 2025.
