 Gaussian 16, Revision C.01,

 ----------------------------------------------------------------------
 #t hf aug-cc-pvdz symm=none int=(grid=ultrafine) guess=(read,tcheck) s
 table=(opt,rrhf)
 ----------------------------------------------------------------------
 -----
 title
 -----
 Symbolic Z-matrix:
 Charge =  0 Multiplicity = 1

 SCF Done:  E(RHF) =  -359.498335432     A.U. after   17 cycles
 Normal termination of Gaussian 16 at Wed Apr  9 17:25:32 2025.
 Gaussian 16:  ES64L-G16RevC.01  3-Jul-2019

 ----------------------------------------------------------------------
 #t hf aug-cc-pvdz iop(5/13=1,5/36=2,99/5=2) pseudo=read geom=check gue
 ss=(read,tcheck) scf=(maxcycle=1)
 ----------------------------------------------------------------------
 -----
 title
 -----
 Structure from the checkpoint file:  "Grambow2020_wb97xd3_006596_forward_mol1.chk"
 Charge =  0 Multiplicity = 1

                         Standard orientation:
 ---------------------------------------------------------------------
 Center     Atomic      Atomic             Coordinates (Angstroms)
 Number     Number       Type             X           Y           Z
 ---------------------------------------------------------------------
      1          6           0       -2.294641   -0.344847   -0.423644
      2          7           0       -0.858756    1.440834    0.027026
      3          6           0        0.188482    0.932455    0.348233
      4          6           0        1.508615    0.677121   -0.347009
      5          8           0        1.310146   -0.697907   -0.691558
      6          6           0        0.283589   -1.166099    0.138927
      7          8           0        0.178363   -0.354797    1.186176
      8          1           0       -2.768388    0.166030    0.396539
      9          1           0       -2.335821    0.161691   -1.377012
     10          1           0       -2.479483   -1.414774   -0.450218
     11          1           0        2.365114    0.781514    0.318404
     12          1           0        1.625406    1.262307   -1.255259
     13          1           0        0.356099   -2.233570    0.343098
     14          1           0       -0.775973   -0.979190   -0.420721
 ---------------------------------------------------------------------

 SCF Done:  E(RHF) =  -359.858002188     A.U. after    2 cycles

 The electronic state is 1-A.
 Alpha  occ. eigenvalues --  -20.57614 -20.55912 -15.46292 -11.37227 -11.35911
 Alpha  occ. eigenvalues --  -11.30334 -11.30010  -1.55356  -1.43813  -1.18301
 Alpha  occ. eigenvalues --   -1.01245  -0.98234  -0.86928  -0.78727  -0.72733
 Alpha  occ. eigenvalues --   -0.69939  -0.65659  -0.64765  -0.64445  -0.60594
 Alpha  occ. eigenvalues --   -0.57473  -0.53672  -0.51958  -0.47303  -0.44806
 Alpha  occ. eigenvalues --   -0.41855  -0.35187
 Alpha virt. eigenvalues --   -0.01433   0.02991   0.04393   0.04752   0.05205
 Alpha virt. eigenvalues --    0.06187   0.06234   0.08149   0.08743   0.10827
 Alpha virt. eigenvalues --    0.12179   0.13076   0.14029   0.14527   0.14980

 Mulliken charges:
               1
     1  C   -0.409449
     2  N    0.949964
     3  C   -1.406596
     4  C    0.672581
     5  O   -1.309008
     6  C    1.297765
     7  O   -1.269806
     8  H    0.221657
     9  H    0.284187
    10  H    0.111909
    11  H    0.116658
    12  H    0.106221
    13  H    0.035089
    14  H    0.598829
 Sum of Mulliken charges =  -0.00000

 Dipole moment (field-independent basis, Debye):
    X=             -1.4844    Y=             -3.6410    Z=             -1.3232  Tot=              4.1487

 Test job not archived.
 1\1\GINC-SE051\SP\RHF\Aug-CC-pVDZ\C4H7N1O2\OHZDE\09-Apr-2025\0\\#t hf
 aug-cc-pvdz iop(5/13=1,5/36=2,99/5=2) pseudo=read geom=check guess=(re
 ad,tcheck) scf=(maxcycle=1)\\title\\0,1\C,0,1.71939887,-1.1305137,-0.4
 4792193\N,0,1.2035514,1.14663402,-0.49288201\C,0,0.00292261,1.19755978
 ,-0.61215544\C,0,-1.15374802,1.44877228,0.33140859\O,0,-1.55042648,0.0
 9172295,0.55472399\C,0,-1.00269185,-0.65504468,-0.49649207\O,0,-0.7130
 6384,0.16788382,-1.49894762\H,0,2.23173625,-0.76749783,-1.32191378\H,0
 ,2.1432677,-0.83320577,0.50030254\H,0,1.39759248,-2.16558701,-0.516336

 Normal termination of Gaussian 16 at Wed Apr  9 17:25:36 2025.
