 Gaussian 16, Revision C.01,

 ----------------------------------------------------------------------
 #t hf aug-cc-pvdz symm=none int=(grid=ultrafine) guess=(read,tcheck) s
 table=(opt,rrhf)
 ----------------------------------------------------------------------
 -----
 title
 -----
 Symbolic Z-matrix:
 Charge =  0 Multiplicity = 1

 SCF Done:  E(RHF) =  -306.607693919     A.U. after   16 cycles
 Normal termination of Gaussian 16 at Wed Apr  9 18:19:19 2025.
 Gaussian 16:  ES64L-G16RevC.01  3-Jul-2019

 ----------------------------------------------------------------------
 #t hf aug-cc-pvdz iop(5/13=1,5/36=2,99/5=2) pseudo=read geom=check gue
 ss=(read,tcheck) scf=(maxcycle=1)
 ----------------------------------------------------------------------
 -----
 title
 -----
 Structure from the checkpoint file:  "Grambow2020_wb97xd3_007305_reverse_mol2.chk"
 Charge =  0 Multiplicity = 1

                         Standard orientation:
 ---------------------------------------------------------------------
 Center     Atomic      Atomic             Coordinates (Angstroms)
 Number     Number       Type             X           Y           Z
 ---------------------------------------------------------------------
      1          6           0        4.672896    0.657995    0.026502
      2          6           0       -1.315126   -0.352811    0.926152
      3          6           0       -2.215835    0.316695   -0.009552
      4          8           0       -3.087375    1.117760   -0.071554
      5          6           0       -1.405255   -0.576907   -0.931232
      6          6           0       -0.329025   -0.525191   -0.071136
      7          6           0        1.109280   -0.830190   -0.104507
      8          1           0        5.735791    0.884174   -0.037906
      9          1           0        4.528941   -0.212855    0.664897
     10          1           0        4.148684    1.513510    0.450616
     11          1           0       -1.548945   -1.026794    1.748614
     12          1           0        4.287689    0.449498   -0.970660
     13          1           0        1.359275   -1.591120    0.637581
     14          1           0        1.413433   -1.164653   -1.094179
     15          1           0        1.672522    0.068608    0.156111
 ---------------------------------------------------------------------

 SCF Done:  E(RHF) =  -306.923621260     A.U. after    2 cycles

 The electronic state is 1-A.
 Alpha  occ. eigenvalues --  -20.54824 -11.37054 -11.32610 -11.31540 -11.27933
 Alpha  occ. eigenvalues --  -11.27492 -11.23490  -1.49257  -1.25423  -1.04902
 Alpha  occ. eigenvalues --   -0.96184  -0.88444  -0.83923  -0.70046  -0.68742
 Alpha  occ. eigenvalues --   -0.66653  -0.62647  -0.60965  -0.58607  -0.56655
 Alpha  occ. eigenvalues --   -0.56632  -0.56438  -0.56011  -0.45022  -0.42317
 Alpha  occ. eigenvalues --   -0.36196
 Alpha virt. eigenvalues --    0.02328   0.02992   0.03656   0.04290   0.04828
 Alpha virt. eigenvalues --    0.05801   0.07085   0.07596   0.08334   0.08824
 Alpha virt. eigenvalues --    0.09268   0.10427   0.11138   0.12453   0.13267

 Mulliken charges:
               1
     1  C   -0.266590
     2  C    0.105488
     3  C    1.304055
     4  O   -1.307608
     5  C   -0.598069
     6  C    0.533027
     7  C   -0.777173
     8  H    0.000857
     9  H    0.088979
    10  H    0.095475
    11  H   -0.035356
    12  H    0.079577
    13  H    0.251576
    14  H    0.243591
    15  H    0.282171
 Sum of Mulliken charges =  -0.00000

 Dipole moment (field-independent basis, Debye):
    X=              4.7524    Y=             -1.7888    Z=              2.5391  Tot=              5.6773

 Test job not archived.
 1\1\GINC-SE108\SP\RHF\Aug-CC-pVDZ\C6H8O1\OHZDE\09-Apr-2025\0\\#t hf au
 g-cc-pvdz iop(5/13=1,5/36=2,99/5=2) pseudo=read geom=check guess=(read
 ,tcheck) scf=(maxcycle=1)\\title\\0,1\C,0,-2.10273144,-1.75368322,-2.0
 6589717\C,0,1.15188695,1.98777535,1.55300546\C,0,1.20031739,1.61545193
 ,2.965126\O,0,0.90279578,1.98809785,4.05036681\C,0,1.85152967,0.417695
 55,2.29702486\C,0,1.12219251,0.6345376,1.14734789\C,0,0.76809596,-0.10
 285622,-0.07483237\H,0,-2.74480028,-2.33513119,-2.72522854\H,0,-1.4476
 1782,-1.12362818,-2.66632018\H,0,-2.72067028,-1.12983508,-1.42127085\H

 Normal termination of Gaussian 16 at Wed Apr  9 18:19:23 2025.
