 Gaussian 16, Revision C.01,

 ----------------------------------------------------------------------
 #t hf aug-cc-pvdz symm=none int=(grid=ultrafine) guess=(read,tcheck) s
 table=(opt,rrhf)
 ----------------------------------------------------------------------
 -----
 title
 -----
 Symbolic Z-matrix:
 Charge =  0 Multiplicity = 1

 SCF Done:  E(RHF) =  -339.247681067     A.U. after   17 cycles
 Normal termination of Gaussian 16 at Wed Apr  9 15:50:35 2025.
 Gaussian 16:  ES64L-G16RevC.01  3-Jul-2019

 ----------------------------------------------------------------------
 #t hf aug-cc-pvdz iop(5/13=1,5/36=2,99/5=2) pseudo=read geom=check gue
 ss=(read,tcheck) scf=(maxcycle=1)
 ----------------------------------------------------------------------
 -----
 title
 -----
 Structure from the checkpoint file:  "Grambow2020_b97d3_006815_reverse_mol1.chk"
 Charge =  0 Multiplicity = 1

                         Standard orientation:
 ---------------------------------------------------------------------
 Center     Atomic      Atomic             Coordinates (Angstroms)
 Number     Number       Type             X           Y           Z
 ---------------------------------------------------------------------
      1          8           0        0.944301    1.012835    0.158926
      2          6           0       -0.157753    1.496177   -0.280149
      3          6           0       -1.272819   -0.367536    0.154584
      4          8           0       -2.400007   -0.528506   -0.062689
      5          6           0        1.083759   -0.511864    0.394427
      6          8           0        1.584779   -1.194511   -0.445148
      7          1           0       -0.017733    2.609691   -0.308338
      8          1           0        1.066023   -0.628894    1.486455
 ---------------------------------------------------------------------

 SCF Done:  E(RHF) =  -339.565961995     A.U. after    2 cycles

 The electronic state is 1-A.
 Alpha  occ. eigenvalues --  -20.65219 -20.62907 -20.59400 -11.44928 -11.37329
 Alpha  occ. eigenvalues --  -11.34428  -1.57571  -1.56370  -1.51694  -0.96935
 Alpha  occ. eigenvalues --   -0.83848  -0.79025  -0.73288  -0.71332  -0.68138
 Alpha  occ. eigenvalues --   -0.61907  -0.60406  -0.59965  -0.57836  -0.53772
 Alpha  occ. eigenvalues --   -0.49585  -0.36449
 Alpha virt. eigenvalues --    0.02998   0.04020   0.05288   0.07220   0.08879
 Alpha virt. eigenvalues --    0.09871   0.10429   0.10703   0.11618   0.12959
 Alpha virt. eigenvalues --    0.13846   0.14547   0.14991   0.16080   0.16835

 Mulliken charges:
               1
     1  O   -1.032619
     2  C    0.340072
     3  C    0.708204
     4  O   -0.773349
     5  C    1.346620
     6  O   -0.944636
     7  H    0.117049
     8  H    0.238658
 Sum of Mulliken charges =  -0.00000

 Dipole moment (field-independent basis, Debye):
    X=              0.5797    Y=              1.5565    Z=              2.2438  Tot=              2.7917

 Test job not archived.
 1\1\GINC-SE087\SP\RHF\Aug-CC-pVDZ\C3H2O3\OHZDE\09-Apr-2025\0\\#t hf au
 g-cc-pvdz iop(5/13=1,5/36=2,99/5=2) pseudo=read geom=check guess=(read
 ,tcheck) scf=(maxcycle=1)\\title\\0,1\O,0,-0.70414992,-0.56146951,0.73
 923698\C,0,-0.94169975,0.69669306,0.70017905\C,0,0.49208982,1.02502011
 ,-0.95579329\O,0,0.72148877,2.05473584,-1.4361409\C,0,0.53786387,-1.13
 949297,0.01611333\O,0,1.53879959,-1.33948092,0.63259251\H,0,-1.9125910
 4,0.84522439,1.24388987\H,0,0.13353166,-1.65374699,-0.86626754\\Versio
 n=ES64L-G16RevC.01\State=1-A\HF=-339.565962\RMSD=7.115e-03\Dipole=-0.9

 Normal termination of Gaussian 16 at Wed Apr  9 15:50:38 2025.
