 Gaussian 16, Revision C.01,

 ----------------------------------------------------------------------
 #t hf aug-cc-pvdz symm=none int=(grid=ultrafine) guess=(read,tcheck) s
 table=(opt,rrhf)
 ----------------------------------------------------------------------
 -----
 title
 -----
 Symbolic Z-matrix:
 Charge =  0 Multiplicity = 1

 SCF Done:  E(RHF) =  -338.635660213     A.U. after   15 cycles
 Normal termination of Gaussian 16 at Wed Apr  9 17:49:54 2025.
 Gaussian 16:  ES64L-G16RevC.01  3-Jul-2019

 ----------------------------------------------------------------------
 #t hf aug-cc-pvdz iop(5/13=1,5/36=2,99/5=2) pseudo=read geom=check gue
 ss=(read,tcheck) scf=(maxcycle=1)
 ----------------------------------------------------------------------
 -----
 title
 -----
 Structure from the checkpoint file:  "Grambow2020_wb97xd3_006837_forward_mol1.chk"
 Charge =  0 Multiplicity = 1

                         Standard orientation:
 ---------------------------------------------------------------------
 Center     Atomic      Atomic             Coordinates (Angstroms)
 Number     Number       Type             X           Y           Z
 ---------------------------------------------------------------------
      1          7           0        2.437633   -0.359324   -0.137112
      2          6           0        1.108783   -0.035162    0.002480
      3          6           0        0.554207    1.200475   -0.097948
      4          7           0       -0.872067    1.031512    0.097352
      5          6           0       -1.100879   -0.414762    0.111481
      6          8           0       -2.344582   -0.531539   -0.188913
      7          6           0        0.083903   -1.063341    0.162227
      8          1           0        3.094269    0.398445   -0.067443
      9          1           0        2.734922   -1.194023    0.336455
     10          1           0        1.002604    2.177641   -0.143369
     11          1           0       -1.164602    1.408937    0.997683
     12          1           0       -1.985301    0.757771   -0.469752
     13          1           0        0.239720   -2.125040    0.066611
 ---------------------------------------------------------------------

 SCF Done:  E(RHF) =  -338.985082039     A.U. after    2 cycles

 The electronic state is 1-A.
 Alpha  occ. eigenvalues --  -20.52391 -15.57075 -15.52303 -11.34832 -11.30277
 Alpha  occ. eigenvalues --  -11.24463 -11.22096  -1.47163  -1.28371  -1.22752
 Alpha  occ. eigenvalues --   -1.06311  -0.97657  -0.83714  -0.81836  -0.75725
 Alpha  occ. eigenvalues --   -0.71593  -0.69969  -0.67705  -0.61138  -0.58939
 Alpha  occ. eigenvalues --   -0.56258  -0.55290  -0.51463  -0.45963  -0.38480
 Alpha  occ. eigenvalues --   -0.29430
 Alpha virt. eigenvalues --    0.02662   0.03611   0.04471   0.05552   0.06335
 Alpha virt. eigenvalues --    0.06850   0.10188   0.10731   0.10957   0.11840
 Alpha virt. eigenvalues --    0.12093   0.13530   0.13997   0.14311   0.15522

 Mulliken charges:
               1
     1  N    0.726186
     2  C   -0.969393
     3  C   -0.300397
     4  N    0.418568
     5  C    0.357723
     6  O   -1.475138
     7  C    0.746670
     8  H    0.053260
     9  H    0.054842
    10  H   -0.207994
    11  H    0.357636
    12  H    0.410681
    13  H   -0.172644
 Sum of Mulliken charges =  -0.00000

 Dipole moment (field-independent basis, Debye):
    X=              3.1202    Y=              1.9651    Z=              1.6811  Tot=              4.0526

 Test job not archived.
 1\1\GINC-SE162\SP\RHF\Aug-CC-pVDZ\C4H6N2O1\OHZDE\09-Apr-2025\0\\#t hf
 aug-cc-pvdz iop(5/13=1,5/36=2,99/5=2) pseudo=read geom=check guess=(re
 ad,tcheck) scf=(maxcycle=1)\\title\\0,1\N,0,-2.07614563,0.64497467,-0.
 36385714\C,0,-0.79722787,0.19669502,-0.13185701\C,0,-0.26866808,-0.996
 35593,-0.50827649\N,0,1.11116409,-0.99664155,-0.06441623\C,0,1.3752180
 8,0.36414168,0.40760758\O,0,2.65397368,0.46918746,0.34111876\C,0,0.216
 62293,1.05729493,0.47190132\H,0,-2.75642385,-0.05016447,-0.61731672\H,
 0,-2.42277998,1.32923559,0.28498923\H,0,-0.7310377,-1.88369304,-0.9042

 Normal termination of Gaussian 16 at Wed Apr  9 17:49:59 2025.
