 Gaussian 16, Revision C.01,

 ----------------------------------------------------------------------
 #t hf aug-cc-pvdz symm=none int=(grid=ultrafine) guess=(read,tcheck) s
 table=(opt,rrhf)
 ----------------------------------------------------------------------
 -----
 title
 -----
 Symbolic Z-matrix:
 Charge =  0 Multiplicity = 1

 SCF Done:  E(RHF) =  -360.881462674     A.U. after   13 cycles
 Normal termination of Gaussian 16 at Wed Apr  9 17:40:54 2025.
 Gaussian 16:  ES64L-G16RevC.01  3-Jul-2019

 ----------------------------------------------------------------------
 #t hf aug-cc-pvdz iop(5/13=1,5/36=2,99/5=2) pseudo=read geom=check gue
 ss=(read,tcheck) scf=(maxcycle=1)
 ----------------------------------------------------------------------
 -----
 title
 -----
 Structure from the checkpoint file:  "Grambow2020_wb97xd3_006769_reverse_mol2.chk"
 Charge =  0 Multiplicity = 1

                         Standard orientation:
 ---------------------------------------------------------------------
 Center     Atomic      Atomic             Coordinates (Angstroms)
 Number     Number       Type             X           Y           Z
 ---------------------------------------------------------------------
      1          6           0       -2.469062    0.076809    0.185355
      2          7           0       -1.288783   -0.422674   -0.495648
      3          6           0       -0.150930   -0.580496    0.327531
      4          8           0        0.878463   -1.353589   -0.304009
      5          6           0        1.884139   -0.381610    0.007172
      6          6           0        0.838027    0.601798    0.532069
      7          8           0        0.512578    1.666256   -0.327284
      8          1           0       -2.341695    1.072295    0.632126
      9          1           0       -3.297577    0.125484   -0.521479
     10          1           0       -2.753362   -0.619077    0.978019
     11          1           0       -0.466734   -1.036013    1.274047
     12          1           0        2.590969   -0.746663    0.759152
     13          1           0        2.426427   -0.052894   -0.883760
     14          1           0        0.966372    0.944462    1.562600
     15          1           0        1.213640    2.319059   -0.298127
     16          1           0       -1.057937    0.151720   -1.295458
 ---------------------------------------------------------------------

 SCF Done:  E(RHF) =  -361.257512414     A.U. after    2 cycles

 The electronic state is 1-A.
 Alpha  occ. eigenvalues --  -20.56552 -20.53584 -15.48069 -11.31180 -11.29381
 Alpha  occ. eigenvalues --  -11.28551 -11.25228  -1.48551  -1.45664  -1.20636
 Alpha  occ. eigenvalues --   -1.00906  -0.95642  -0.88593  -0.79761  -0.73003
 Alpha  occ. eigenvalues --   -0.71402  -0.67366  -0.64628  -0.63059  -0.59619
 Alpha  occ. eigenvalues --   -0.57904  -0.55217  -0.54165  -0.52619  -0.49030
 Alpha  occ. eigenvalues --   -0.43641  -0.42408  -0.39632
 Alpha virt. eigenvalues --    0.03024   0.03955   0.04352   0.04654   0.05667
 Alpha virt. eigenvalues --    0.06294   0.06832   0.06937   0.09387   0.11050
 Alpha virt. eigenvalues --    0.11471   0.13112   0.13796   0.14165   0.15141

 Mulliken charges:
               1
     1  C   -0.273920
     2  N    0.519695
     3  C   -0.019015
     4  O   -1.461981
     5  C    0.496308
     6  C    1.055747
     7  O   -1.490355
     8  H    0.151587
     9  H    0.049414
    10  H    0.150473
    11  H   -0.005609
    12  H    0.034019
    13  H    0.061400
    14  H    0.094409
    15  H    0.300223
    16  H    0.337607
 Sum of Mulliken charges =   0.00000

 Dipole moment (field-independent basis, Debye):
    X=              1.2849    Y=              2.8513    Z=              1.8357  Tot=              3.6264

 Test job not archived.
 1\1\GINC-SE113\SP\RHF\Aug-CC-pVDZ\C4H9N1O2\OHZDE\09-Apr-2025\0\\#t hf
 aug-cc-pvdz iop(5/13=1,5/36=2,99/5=2) pseudo=read geom=check guess=(re
 ad,tcheck) scf=(maxcycle=1)\\title\\0,1\C,0,1.95723073,-0.62497824,-1.
 18910482\N,0,0.89474761,0.36140731,-1.12216688\C,0,0.34133408,0.551109
 3,0.16429653\O,0,-0.47066907,1.73040167,0.24230164\C,0,-1.5547671,1.01
 773443,0.85041001\C,0,-0.85266327,-0.32384515,0.64023143\O,0,-1.337410
 91,-1.10912366,-0.42082148\H,0,1.64833904,-1.63771422,-0.89623992\H,0,
 2.3424356,-0.66893564,-2.20798015\H,0,2.77997614,-0.31791616,-0.539333

 Normal termination of Gaussian 16 at Wed Apr  9 17:40:59 2025.
