 Gaussian 16, Revision C.01,

 ----------------------------------------------------------------------
 #t hf aug-cc-pvdz symm=none int=(grid=ultrafine) guess=(read,tcheck) s
 table=(opt,rrhf)
 ----------------------------------------------------------------------
 -----
 title
 -----
 Symbolic Z-matrix:
 Charge =  0 Multiplicity = 1

 SCF Done:  E(RHF) =  -360.874946475     A.U. after   13 cycles
 Normal termination of Gaussian 16 at Wed Apr  9 03:58:42 2025.
 Gaussian 16:  ES64L-G16RevC.01  3-Jul-2019

 ----------------------------------------------------------------------
 #t hf aug-cc-pvdz iop(5/13=1,5/36=2,99/5=2) pseudo=read geom=check gue
 ss=(read,tcheck) scf=(maxcycle=1)
 ----------------------------------------------------------------------
 -----
 title
 -----
 Structure from the checkpoint file:  "Grambow2020_wb97xd3_008681_reverse_mol2.chk"
 Charge =  0 Multiplicity = 1

                         Standard orientation:
 ---------------------------------------------------------------------
 Center     Atomic      Atomic             Coordinates (Angstroms)
 Number     Number       Type             X           Y           Z
 ---------------------------------------------------------------------
      1          6           0       -2.813004    0.046911    0.592829
      2          7           0       -1.782013    0.055647   -0.467959
      3          6           0       -0.630452   -0.815856   -0.265644
      4          6           0        0.508778   -0.043047   -0.114137
      5          8           0        0.478651    1.207823   -0.147991
      6          8           0        1.667011   -0.714915    0.073926
      7          6           0        2.823092    0.090923    0.227637
      8          1           0       -3.228226   -0.955269    0.676478
      9          1           0       -3.603196    0.760974    0.355134
     10          1           0       -2.326589    0.314419    1.527430
     11          1           0       -1.274446    0.974860   -0.475263
     12          1           0       -2.221912   -0.069801   -1.377584
     13          1           0       -0.751450   -1.882717   -0.287896
     14          1           0        3.654490   -0.602810    0.338962
     15          1           0        2.748048    0.726959    1.111373
     16          1           0        2.981594    0.727012   -0.644508
 ---------------------------------------------------------------------

 SCF Done:  E(RHF) =  -361.251723086     A.U. after    2 cycles

 The electronic state is 1-A.
 Alpha  occ. eigenvalues --  -20.54589 -20.47007 -15.61370 -11.33415 -11.30203
 Alpha  occ. eigenvalues --  -11.26415 -11.20365  -1.49616  -1.39228  -1.30227
 Alpha  occ. eigenvalues --   -1.01716  -0.96709  -0.90234  -0.80747  -0.76986
 Alpha  occ. eigenvalues --   -0.72125  -0.67354  -0.64858  -0.63569  -0.61859
 Alpha  occ. eigenvalues --   -0.59377  -0.57273  -0.54940  -0.51945  -0.48805
 Alpha  occ. eigenvalues --   -0.42322  -0.40859  -0.28957
 Alpha virt. eigenvalues --    0.02175   0.04023   0.04154   0.04968   0.05632
 Alpha virt. eigenvalues --    0.06024   0.06769   0.07627   0.08421   0.10394
 Alpha virt. eigenvalues --    0.11270   0.12424   0.13609   0.15194   0.15385

 Mulliken charges:
               1
     1  C   -0.293711
     2  N    0.340286
     3  C   -1.064079
     4  C    2.541736
     5  O   -1.487719
     6  O   -1.366667
     7  C    0.216794
     8  H    0.133052
     9  H    0.107394
    10  H    0.196939
    11  H    0.323608
    12  H    0.372784
    13  H   -0.313302
    14  H   -0.009733
    15  H    0.149694
    16  H    0.152923
 Sum of Mulliken charges =  -0.00000

 Dipole moment (field-independent basis, Debye):
    X=             -4.8476    Y=             -0.4524    Z=             -0.3799  Tot=              4.8834

 Test job not archived.
 1\1\GINC-SE252\SP\RHF\Aug-CC-pVDZ\C4H9N1O2\OHZDE\09-Apr-2025\0\\#t hf
 aug-cc-pvdz iop(5/13=1,5/36=2,99/5=2) pseudo=read geom=check guess=(re
 ad,tcheck) scf=(maxcycle=1)\\title\\0,1\C,0,-2.62476933,0.31682707,0.0
 3123894\N,0,-1.52150764,-0.55764427,0.48555416\C,0,-0.34479787,0.10761
 843,1.03265552\C,0,0.73972569,-0.12240326,0.20263595\O,0,0.64858413,-0
 .80011027,-0.84576094\O,0,1.91396606,0.42754518,0.5860347\C,0,3.013435
 67,0.18290502,-0.27468721\H,0,-2.99347601,0.89244189,0.87769789\H,0,-3
 .43096313,-0.28426707,-0.392466\H,0,-2.22148049,0.99452184,-0.71691122

 Normal termination of Gaussian 16 at Wed Apr  9 03:58:47 2025.
