 Gaussian 16, Revision C.01,

 ----------------------------------------------------------------------
 #t hf aug-cc-pvdz symm=none int=(grid=ultrafine) guess=(read,tcheck) s
 table=(opt,rrhf)
 ----------------------------------------------------------------------
 -----
 title
 -----
 Symbolic Z-matrix:
 Charge =  0 Multiplicity = 1

 SCF Done:  E(RHF) =  -322.482613834     A.U. after   16 cycles
 Normal termination of Gaussian 16 at Wed Apr  9 18:33:46 2025.
 Gaussian 16:  ES64L-G16RevC.01  3-Jul-2019

 ----------------------------------------------------------------------
 #t hf aug-cc-pvdz iop(5/13=1,5/36=2,99/5=2) pseudo=read geom=check gue
 ss=(read,tcheck) scf=(maxcycle=1)
 ----------------------------------------------------------------------
 -----
 title
 -----
 Structure from the checkpoint file:  "Grambow2020_wb97xd3_007719_forward_mol1.chk"
 Charge =  0 Multiplicity = 1

                         Standard orientation:
 ---------------------------------------------------------------------
 Center     Atomic      Atomic             Coordinates (Angstroms)
 Number     Number       Type             X           Y           Z
 ---------------------------------------------------------------------
      1          6           0       -2.337074    0.384226   -0.180197
      2          7           0       -1.543397   -0.641872   -0.074926
      3          6           0       -0.252589   -0.387097   -0.006628
      4          8           0        0.712728   -1.310153   -0.116026
      5          6           0        1.620878   -0.258832    0.344891
      6          6           0        1.627068    0.939379   -0.531769
      7          6           0        0.491426    0.732407    0.460540
      8          1           0       -2.064600    1.284573   -0.723951
      9          1           0       -3.388151    0.243722    0.055826
     10          1           0       -1.684393    1.534212    1.214360
     11          1           0        2.372815   -0.568562    1.054620
     12          1           0        1.451990    0.832169   -1.598249
     13          1           0        2.363298    1.690538   -0.267926
     14          1           0       -0.847267    1.497189    1.196992
 ---------------------------------------------------------------------

 SCF Done:  E(RHF) =  -322.814996645     A.U. after    2 cycles

 The electronic state is 1-A.
 Alpha  occ. eigenvalues --  -20.59796 -15.52676 -11.37594 -11.35710 -11.30534
 Alpha  occ. eigenvalues --  -11.27300 -11.21164  -1.54912  -1.28972  -1.15546
 Alpha  occ. eigenvalues --   -0.99898  -0.90276  -0.84290  -0.77406  -0.73209
 Alpha  occ. eigenvalues --   -0.69211  -0.67625  -0.65268  -0.59216  -0.57916
 Alpha  occ. eigenvalues --   -0.56616  -0.54062  -0.47569  -0.44572  -0.40255
 Alpha  occ. eigenvalues --   -0.31664
 Alpha virt. eigenvalues --    0.02943   0.03685   0.04109   0.04248   0.05287
 Alpha virt. eigenvalues --    0.05858   0.06977   0.07617   0.10002   0.10667
 Alpha virt. eigenvalues --    0.11140   0.11963   0.12723   0.13346   0.14000

 Mulliken charges:
               1
     1  C   -0.041829
     2  N    1.007433
     3  C   -0.360640
     4  O   -1.500440
     5  C    1.125672
     6  C    0.083345
     7  C   -0.361009
     8  H    0.083027
     9  H    0.025509
    10  H   -0.031716
    11  H   -0.125223
    12  H   -0.118843
    13  H   -0.062417
    14  H    0.277129
 Sum of Mulliken charges =  -0.00000

 Dipole moment (field-independent basis, Debye):
    X=             -0.5338    Y=              1.8408    Z=             -1.5234  Tot=              2.4483

 Test job not archived.
 1\1\GINC-SE116\SP\RHF\Aug-CC-pVDZ\C5H7N1O1\OHZDE\09-Apr-2025\0\\#t hf
 aug-cc-pvdz iop(5/13=1,5/36=2,99/5=2) pseudo=read geom=check guess=(re
 ad,tcheck) scf=(maxcycle=1)\\title\\0,1\C,0,2.11996049,0.59595053,0.54
 522313\N,0,1.57282574,-0.58243524,0.46819677\C,0,0.29690238,-0.6223604
 2,0.14233371\O,0,-0.47748741,-1.71262228,0.22886147\C,0,-1.45891615,-0
 .94416848,-0.5384287\C,0,-1.86677169,0.31927146,0.1261431\C,0,-0.53843
 5,0.2468933,-0.61377581\H,0,1.57883319,1.47389883,0.88716174\H,0,3.204
 1233,0.65895068,0.51635208\H,0,1.55086743,1.40507154,-1.10241313\H,0,-

 Normal termination of Gaussian 16 at Wed Apr  9 18:33:51 2025.
