 Gaussian 16, Revision C.01,

 ----------------------------------------------------------------------
 #t hf aug-cc-pvdz symm=none int=(grid=ultrafine) guess=(read,tcheck) s
 table=(opt,rrhf)
 ----------------------------------------------------------------------
 -----
 title
 -----
 Symbolic Z-matrix:
 Charge =  0 Multiplicity = 1

 SCF Done:  E(RHF) =  -318.824632523     A.U. after   17 cycles
 Normal termination of Gaussian 16 at Wed Apr  9 18:00:42 2025.
 Gaussian 16:  ES64L-G16RevC.01  3-Jul-2019

 ----------------------------------------------------------------------
 #t hf aug-cc-pvdz iop(5/13=1,5/36=2,99/5=2) pseudo=read geom=check gue
 ss=(read,tcheck) scf=(maxcycle=1)
 ----------------------------------------------------------------------
 -----
 title
 -----
 Structure from the checkpoint file:  "Grambow2020_wb97xd3_006929_reverse_mol2.chk"
 Charge =  0 Multiplicity = 1

                         Standard orientation:
 ---------------------------------------------------------------------
 Center     Atomic      Atomic             Coordinates (Angstroms)
 Number     Number       Type             X           Y           Z
 ---------------------------------------------------------------------
      1          7           0        2.331037   -0.511741    0.365832
      2          6           0        1.123698   -0.199685   -0.363653
      3          6           0       -0.094413   -1.062983   -0.231072
      4          6           0       -1.122342   -0.163400   -0.022824
      5          7           0       -2.507385   -0.446567    0.057176
      6          6           0       -0.624765    1.154905    0.060052
      7          7           0        0.682126    1.177551   -0.055790
      8          1           0        2.079988   -0.846218    1.288784
      9          1           0        2.796354   -1.283498   -0.092425
     10          1           0        1.350643   -0.198541   -1.439042
     11          1           0       -2.904546   -0.211168    0.956186
     12          1           0       -2.642298   -1.435330   -0.102544
     13          1           0       -1.184333    2.074855    0.198417
     14          1           0        1.270679    1.992180   -0.034921
 ---------------------------------------------------------------------

 SCF Done:  E(RHF) =  -319.155963910     A.U. after    2 cycles

 The electronic state is 1-A.
 Alpha  occ. eigenvalues --  -15.55241 -15.49607 -15.48144 -11.33041 -11.29918
 Alpha  occ. eigenvalues --  -11.23931 -11.19908  -1.31514  -1.18994  -1.17992
 Alpha  occ. eigenvalues --   -1.02925  -0.97292  -0.82649  -0.79471  -0.76260
 Alpha  occ. eigenvalues --   -0.71473  -0.68975  -0.65478  -0.63967  -0.59103
 Alpha  occ. eigenvalues --   -0.58049  -0.52244  -0.49397  -0.43933  -0.33400
 Alpha  occ. eigenvalues --   -0.32784
 Alpha virt. eigenvalues --    0.02555   0.03754   0.04421   0.05259   0.05610
 Alpha virt. eigenvalues --    0.05812   0.06718   0.07291   0.10231   0.11232
 Alpha virt. eigenvalues --    0.11571   0.12249   0.13273   0.13881   0.14910

 Mulliken charges:
               1
     1  N    0.531491
     2  C   -1.565531
     3  C   -0.461950
     4  C   -0.343846
     5  N    0.671335
     6  C   -0.364227
     7  N    0.822227
     8  H    0.210534
     9  H    0.227373
    10  H    0.151234
    11  H    0.153463
    12  H    0.091368
    13  H   -0.128512
    14  H    0.005040
 Sum of Mulliken charges =  -0.00000

 Dipole moment (field-independent basis, Debye):
    X=              0.6124    Y=              3.4224    Z=              1.2117  Tot=              3.6818

 Test job not archived.
 1\1\GINC-SE030\SP\RHF\Aug-CC-pVDZ\C4H7N3\OHZDE\09-Apr-2025\0\\#t hf au
 g-cc-pvdz iop(5/13=1,5/36=2,99/5=2) pseudo=read geom=check guess=(read
 ,tcheck) scf=(maxcycle=1)\\title\\0,1\N,0,-2.30223606,-0.50774107,-0.3
 5800605\C,0,-1.09977278,-0.22318214,0.39052893\C,0,0.12842933,-1.06374
 601,0.21269186\C,0,1.14625466,-0.14224409,0.05738391\N,0,2.53460067,-0
 .40465464,-0.0351557\C,0,0.63364246,1.17286196,0.04717039\N,0,-0.67361
 048,1.17406567,0.16111662\H,0,-2.04583411,-0.78720938,-1.2976313\H,0,-
 2.7593713,-1.3091748,0.05534663\H,0,-1.32847745,-0.28475012,1.46378114

 Normal termination of Gaussian 16 at Wed Apr  9 18:00:47 2025.
