 Gaussian 16, Revision C.01,

 ----------------------------------------------------------------------
 #t hf aug-cc-pvdz symm=none int=(grid=ultrafine) guess=(read,tcheck) s
 table=(opt,rrhf)
 ----------------------------------------------------------------------
 -----
 title
 -----
 Symbolic Z-matrix:
 Charge =  0 Multiplicity = 1

 SCF Done:  E(RHF) =  -323.797188395     A.U. after   15 cycles
 Normal termination of Gaussian 16 at Wed Apr  9 19:14:07 2025.
 Gaussian 16:  ES64L-G16RevC.01  3-Jul-2019

 ----------------------------------------------------------------------
 #t hf aug-cc-pvdz iop(5/13=1,5/36=2,99/5=2) pseudo=read geom=check gue
 ss=(read,tcheck) scf=(maxcycle=1)
 ----------------------------------------------------------------------
 -----
 title
 -----
 Structure from the checkpoint file:  "Grambow2020_wb97xd3_008941_reverse_mol2.chk"
 Charge =  0 Multiplicity = 1

                         Standard orientation:
 ---------------------------------------------------------------------
 Center     Atomic      Atomic             Coordinates (Angstroms)
 Number     Number       Type             X           Y           Z
 ---------------------------------------------------------------------
      1          6           0       -2.457289   -0.201697   -0.052706
      2          6           0       -0.977966   -0.207315   -0.108968
      3          6           0        0.009851   -1.342237   -0.212368
      4          7           0        1.048325   -0.298736   -0.161939
      5          6           0        2.309088   -0.306821   -0.134349
      6          6           0       -0.030919    0.796419   -0.077831
      7          8           0        0.201979    1.980640   -0.009997
      8          1           0       -2.903226   -0.641204   -0.951235
      9          1           0       -2.820693    0.822152    0.035601
     10          1           0       -2.835492   -0.768337    0.804762
     11          1           0        0.117335   -0.333124    2.566685
     12          1           0        0.094982   -2.036744    0.634050
     13          1           0        0.051971   -1.912127   -1.149246
     14          1           0        0.546998   -0.728205    3.033384
     15          1           0        2.863353   -1.238044   -0.174700
     16          1           0        2.814081    0.651575   -0.068421
 ---------------------------------------------------------------------

 SCF Done:  E(RHF) =  -324.136395508     A.U. after    2 cycles

 The electronic state is 1-A.
 Alpha  occ. eigenvalues --  -20.47809 -15.60479 -11.34947 -11.33065 -11.29849
 Alpha  occ. eigenvalues --  -11.22566 -11.21547  -1.43045  -1.33292  -1.13142
 Alpha  occ. eigenvalues --   -0.98871  -0.92716  -0.85725  -0.74798  -0.73750
 Alpha  occ. eigenvalues --   -0.68626  -0.66161  -0.61571  -0.59032  -0.57197
 Alpha  occ. eigenvalues --   -0.56418  -0.55689  -0.54464  -0.50904  -0.49406
 Alpha  occ. eigenvalues --   -0.40981  -0.28053
 Alpha virt. eigenvalues --    0.02306   0.03207   0.03906   0.04316   0.04842
 Alpha virt. eigenvalues --    0.05451   0.06820   0.07056   0.07448   0.09855
 Alpha virt. eigenvalues --    0.10466   0.10849   0.12122   0.12715   0.14211

 Mulliken charges:
               1
     1  C   -0.689056
     2  C    0.553669
     3  C   -0.273615
     4  N    0.930835
     5  C   -0.276511
     6  C    0.593232
     7  O   -1.453447
     8  H    0.215957
     9  H    0.149747
    10  H    0.208612
    11  H    0.033048
    12  H   -0.030844
    13  H   -0.002574
    14  H    0.001576
    15  H   -0.015572
    16  H    0.054944
 Sum of Mulliken charges =  -0.00000

 Dipole moment (field-independent basis, Debye):
    X=              3.1909    Y=             -5.1779    Z=             -0.3520  Tot=              6.0924

 Test job not archived.
 1\1\GINC-SE084\SP\RHF\Aug-CC-pVDZ\C5H9N1O1\OHZDE\09-Apr-2025\0\\#t hf
 aug-cc-pvdz iop(5/13=1,5/36=2,99/5=2) pseudo=read geom=check guess=(re
 ad,tcheck) scf=(maxcycle=1)\\title\\0,1\C,0,2.36032863,-0.11113979,0.1
 7281639\C,0,0.88190669,-0.18768678,0.17440815\C,0,-0.10115216,-0.47354
 11,-0.93302366\N,0,-1.14322788,-0.28127554,0.09019527\C,0,-2.4042174,-
 0.27233023,0.07696056\C,0,-0.06837905,-0.01921581,1.16128417\O,0,-0.30
 559299,0.22229917,2.32172509\H,0,2.81944187,-1.05928666,-0.12653742\H,
 0,2.71955415,0.13465763,1.17215021\H,0,2.72874292,0.65669512,-0.515711

 Normal termination of Gaussian 16 at Wed Apr  9 19:14:13 2025.
