 Gaussian 16, Revision C.01,

 ----------------------------------------------------------------------
 #t hf aug-cc-pvdz symm=none int=(grid=ultrafine) guess=(read,tcheck) s
 table=(opt,rrhf)
 ----------------------------------------------------------------------
 -----
 title
 -----
 Symbolic Z-matrix:
 Charge =  0 Multiplicity = 1

 SCF Done:  E(RHF) =  -338.573299991     A.U. after   15 cycles
 Normal termination of Gaussian 16 at Wed Apr  9 18:41:30 2025.
 Gaussian 16:  ES64L-G16RevC.01  3-Jul-2019

 ----------------------------------------------------------------------
 #t hf aug-cc-pvdz iop(5/13=1,5/36=2,99/5=2) pseudo=read geom=check gue
 ss=(read,tcheck) scf=(maxcycle=1)
 ----------------------------------------------------------------------
 -----
 title
 -----
 Structure from the checkpoint file:  "Grambow2020_wb97xd3_007969_forward_mol1.chk"
 Charge =  0 Multiplicity = 1

                         Standard orientation:
 ---------------------------------------------------------------------
 Center     Atomic      Atomic             Coordinates (Angstroms)
 Number     Number       Type             X           Y           Z
 ---------------------------------------------------------------------
      1          7           0       -1.257199   -1.588786    0.007616
      2          6           0       -0.837139   -0.414887    0.033346
      3          8           0       -1.472729    0.793061   -0.007955
      4          6           0       -0.206772    1.525893   -0.001115
      5          6           0        0.531097    0.198954    0.092304
      6          6           0        1.670596   -0.231589    0.908706
      7          7           0        1.535327   -0.248061   -0.851148
      8          1           0       -2.270113   -1.643623   -0.053780
      9          1           0       -0.070804    2.080458   -0.928385
     10          1           0       -0.130998    2.168747    0.874000
     11          1           0        1.522813   -1.279168    1.191484
     12          1           0        2.475078   -0.071464   -0.191264
     13          1           0        1.362265   -1.211731   -1.123143
 ---------------------------------------------------------------------

 SCF Done:  E(RHF) =  -338.918577197     A.U. after    2 cycles

 The electronic state is 1-A.
 Alpha  occ. eigenvalues --  -20.59324 -15.57308 -15.49548 -11.35869 -11.31590
 Alpha  occ. eigenvalues --  -11.30895 -11.27567  -1.53562  -1.30081  -1.22385
 Alpha  occ. eigenvalues --   -1.02996  -0.93413  -0.91017  -0.78207  -0.75281
 Alpha  occ. eigenvalues --   -0.74677  -0.69221  -0.68108  -0.57852  -0.56935
 Alpha  occ. eigenvalues --   -0.55872  -0.54749  -0.48773  -0.47952  -0.43903
 Alpha  occ. eigenvalues --   -0.38393
 Alpha virt. eigenvalues --    0.03546   0.04288   0.04656   0.05170   0.05862
 Alpha virt. eigenvalues --    0.06625   0.08838   0.09442   0.09969   0.11357
 Alpha virt. eigenvalues --    0.12637   0.13108   0.13796   0.14182   0.15067

 Mulliken charges:
               1
     1  N    0.804400
     2  C   -0.148365
     3  O   -1.403776
     4  C    0.567023
     5  C   -1.344788
     6  C   -0.133938
     7  N    0.416220
     8  H    0.146782
     9  H    0.124404
    10  H    0.095758
    11  H    0.126652
    12  H    0.470805
    13  H    0.278821
 Sum of Mulliken charges =  -0.00000

 Dipole moment (field-independent basis, Debye):
    X=              0.2136    Y=              0.9043    Z=             -0.5486  Tot=              1.0791

 Test job not archived.
 1\1\GINC-SE045\SP\RHF\Aug-CC-pVDZ\C4H6N2O1\OHZDE\09-Apr-2025\0\\#t hf
 aug-cc-pvdz iop(5/13=1,5/36=2,99/5=2) pseudo=read geom=check guess=(re
 ad,tcheck) scf=(maxcycle=1)\\title\\0,1\N,0,1.46365404,-1.21595649,-1.
 20378565\C,0,1.03722248,-0.23976521,-0.55543444\O,0,1.660468,0.8385445
 8,0.00459305\C,0,0.40939254,1.34169292,0.57150524\C,0,-0.32307718,0.17
 744838,-0.07808551\C,0,-1.59005923,0.10616516,-0.81294086\N,0,-1.13320
 064,-0.78432559,0.64100674\H,0,2.47095645,-1.19146231,-1.33612574\H,0,
 0.44218207,1.33405561,1.65995612\H,0,0.16907924,2.327367,0.17713543\H,

 Normal termination of Gaussian 16 at Wed Apr  9 18:41:34 2025.
