 Gaussian 16, Revision C.01,

 ----------------------------------------------------------------------
 #t hf aug-cc-pvdz symm=none int=(grid=ultrafine) guess=(read,tcheck) s
 table=(opt,rrhf)
 ----------------------------------------------------------------------
 -----
 title
 -----
 Symbolic Z-matrix:
 Charge =  0 Multiplicity = 1

 SCF Done:  E(RHF) =  -321.520944454     A.U. after   14 cycles
 Normal termination of Gaussian 16 at Wed Apr  9 03:51:25 2025.
 Gaussian 16:  ES64L-G16RevC.01  3-Jul-2019

 ----------------------------------------------------------------------
 #t hf aug-cc-pvdz iop(5/13=1,5/36=2,99/5=2) pseudo=read geom=check gue
 ss=(read,tcheck) scf=(maxcycle=1)
 ----------------------------------------------------------------------
 -----
 title
 -----
 Structure from the checkpoint file:  "Grambow2020_wb97xd3_008182_forward_mol2.chk"
 Charge =  0 Multiplicity = 1

                         Standard orientation:
 ---------------------------------------------------------------------
 Center     Atomic      Atomic             Coordinates (Angstroms)
 Number     Number       Type             X           Y           Z
 ---------------------------------------------------------------------
      1          8           0        1.890830   -1.261690    0.087095
      2          6           0        0.549373   -1.215495   -0.301131
      3          6           0       -0.208820   -0.081433    0.433299
      4          6           0        0.379077    1.222831    0.119211
      5          6           0        0.910527    2.257277   -0.158746
      6          6           0       -1.634881   -0.127791    0.092253
      7          7           0       -2.744209   -0.208385   -0.184569
      8          1           0        2.330156   -0.463082   -0.217986
      9          1           0        0.431232   -1.077622   -1.381372
     10          1           0        0.100929   -2.169366   -0.023410
     11          1           0       -0.115605   -0.260064    1.508804
     12          1           0        1.364451    3.190022   -0.400127
 ---------------------------------------------------------------------

 SCF Done:  E(RHF) =  -321.844615877     A.U. after    2 cycles

 The electronic state is 1-A.
 Alpha  occ. eigenvalues --  -20.57628 -15.52653 -11.33161 -11.32676 -11.29436
 Alpha  occ. eigenvalues --  -11.27803 -11.27075  -1.48553  -1.25239  -1.13619
 Alpha  occ. eigenvalues --   -1.04141  -0.92552  -0.78797  -0.74790  -0.73684
 Alpha  occ. eigenvalues --   -0.69972  -0.63988  -0.62805  -0.61174  -0.54313
 Alpha  occ. eigenvalues --   -0.51732  -0.51578  -0.47903  -0.44031  -0.43039
 Alpha virt. eigenvalues --    0.02616   0.03749   0.04298   0.04936   0.05699
 Alpha virt. eigenvalues --    0.08611   0.09492   0.09557   0.10314   0.11314
 Alpha virt. eigenvalues --    0.12696   0.13186   0.13763   0.14127   0.14752

 Mulliken charges:
               1
     1  O   -1.159993
     2  C    1.041898
     3  C   -0.630392
     4  C    0.492662
     5  C    0.371204
     6  C   -1.614533
     7  N    1.006499
     8  H    0.325092
     9  H    0.195123
    10  H    0.078693
    11  H    0.300861
    12  H   -0.407113
 Sum of Mulliken charges =  -0.00000

 Dipole moment (field-independent basis, Debye):
    X=              3.8061    Y=              1.2482    Z=              0.1596  Tot=              4.0087

 Test job not archived.
 1\1\GINC-SE125\SP\RHF\Aug-CC-pVDZ\C5H5N1O1\OHZDE\09-Apr-2025\0\\#t hf
 aug-cc-pvdz iop(5/13=1,5/36=2,99/5=2) pseudo=read geom=check guess=(re
 ad,tcheck) scf=(maxcycle=1)\\title\\0,1\O,0,-2.01290549,-0.0015317,-0.
 37145439\C,0,-0.99965873,-0.71568315,0.27327817\C,0,0.3838578,-0.42197
 024,-0.35914199\C,0,0.71463619,1.00026778,-0.2442398\C,0,0.92345792,2.
 17281289,-0.13789359\C,0,1.40956192,-1.26735121,0.26164393\N,0,2.17807
 312,-1.95754741,0.75838652\H,0,-1.88483539,0.93670347,-0.20662515\H,0,
 -0.95151492,-0.49735032,1.34561212\H,0,-1.22162198,-1.77522301,0.14596

 Normal termination of Gaussian 16 at Wed Apr  9 03:51:30 2025.
