 Gaussian 16, Revision C.01,

 ----------------------------------------------------------------------
 #t hf aug-cc-pvdz symm=none int=(grid=ultrafine) guess=(read,tcheck) s
 table=(opt,rrhf)
 ----------------------------------------------------------------------
 -----
 title
 -----
 Symbolic Z-matrix:
 Charge =  0 Multiplicity = 1

 SCF Done:  E(RHF) =  -317.531593067     A.U. after   17 cycles
 Normal termination of Gaussian 16 at Wed Apr  9 19:14:45 2025.
 Gaussian 16:  ES64L-G16RevC.01  3-Jul-2019

 ----------------------------------------------------------------------
 #t hf aug-cc-pvdz iop(5/13=1,5/36=2,99/5=2) pseudo=read geom=check gue
 ss=(read,tcheck) scf=(maxcycle=1)
 ----------------------------------------------------------------------
 -----
 title
 -----
 Structure from the checkpoint file:  "Grambow2020_wb97xd3_008982_reverse_mol1.chk"
 Charge =  0 Multiplicity = 1

                         Standard orientation:
 ---------------------------------------------------------------------
 Center     Atomic      Atomic             Coordinates (Angstroms)
 Number     Number       Type             X           Y           Z
 ---------------------------------------------------------------------
      1          7           0        2.200198   -0.126667    0.009951
      2          6           0        0.823097   -0.012558   -0.029257
      3          6           0       -0.058575   -1.070249    0.318344
      4          7           0       -1.269401   -1.070172   -0.596891
      5          6           0       -1.479129   -0.079962    0.201768
      6          7           0       -1.188236    1.227389    0.065523
      7          6           0        0.130721    1.225487   -0.088352
      8          1           0        2.575319   -0.977924   -0.371130
      9          1           0        2.712416    0.683521   -0.296336
     10          1           0        0.239220   -2.022056    0.750464
     11          1           0       -0.873692   -0.450882    1.289117
     12          1           0        0.652132    2.177183   -0.137216
 ---------------------------------------------------------------------

 SCF Done:  E(RHF) =  -317.857989857     A.U. after    2 cycles

 The electronic state is 1-A.
 Alpha  occ. eigenvalues --  -15.53843 -15.52691 -15.50022 -11.35359 -11.33536
 Alpha  occ. eigenvalues --  -11.31167 -11.30605  -1.35845  -1.24479  -1.22180
 Alpha  occ. eigenvalues --   -1.03960  -0.93189  -0.85372  -0.80025  -0.76026
 Alpha  occ. eigenvalues --   -0.73040  -0.68349  -0.63584  -0.61163  -0.58772
 Alpha  occ. eigenvalues --   -0.55629  -0.51974  -0.45218  -0.41634  -0.32717
 Alpha virt. eigenvalues --    0.02214   0.02739   0.03929   0.04416   0.05707
 Alpha virt. eigenvalues --    0.06752   0.08562   0.10019   0.10447   0.11238
 Alpha virt. eigenvalues --    0.11764   0.12212   0.13085   0.13913   0.14607

 Mulliken charges:
               1
     1  N    0.728083
     2  C   -0.407259
     3  C   -0.262255
     4  N    0.582122
     5  C   -1.621326
     6  N    0.739337
     7  C   -0.273189
     8  H    0.102679
     9  H    0.055724
    10  H   -0.090341
    11  H    0.557577
    12  H   -0.111151
 Sum of Mulliken charges =  -0.00000

 Dipole moment (field-independent basis, Debye):
    X=              4.9160    Y=             -0.1660    Z=              1.3826  Tot=              5.1094

 Test job not archived.
 1\1\GINC-SE112\SP\RHF\Aug-CC-pVDZ\C4H5N3\OHZDE\09-Apr-2025\0\\#t hf au
 g-cc-pvdz iop(5/13=1,5/36=2,99/5=2) pseudo=read geom=check guess=(read
 ,tcheck) scf=(maxcycle=1)\\title\\0,1\N,0,-1.79873683,0.13493174,0.082
 80679\C,0,-0.43833671,-0.04222671,-0.0871682\C,0,0.51524737,0.9904489,
 0.11566826\N,0,1.62592353,0.89274346,-0.91419011\C,0,1.87630304,-0.066
 64545,-0.09002978\N,0,1.52155852,-1.36472613,-0.1286304\C,0,0.19490886
 ,-1.31133055,-0.15047798\H,0,-2.17662293,0.98294384,-0.30275197\H,0,-2
 .37107506,-0.66527793,-0.12856014\H,0,0.30077972,1.97410297,0.52526991

 Normal termination of Gaussian 16 at Wed Apr  9 19:14:49 2025.
