 Gaussian 16, Revision C.01,

 ----------------------------------------------------------------------
 #t hf aug-cc-pvdz symm=none int=(grid=ultrafine) guess=(read,tcheck) s
 table=(opt,rrhf)
 ----------------------------------------------------------------------
 -----
 title
 -----
 Symbolic Z-matrix:
 Charge =  0 Multiplicity = 1

 SCF Done:  E(RHF) =  -337.480165100     A.U. after   16 cycles
 Normal termination of Gaussian 16 at Wed Apr  9 04:04:29 2025.
 Gaussian 16:  ES64L-G16RevC.01  3-Jul-2019

 ----------------------------------------------------------------------
 #t hf aug-cc-pvdz iop(5/13=1,5/36=2,99/5=2) pseudo=read geom=check gue
 ss=(read,tcheck) scf=(maxcycle=1)
 ----------------------------------------------------------------------
 -----
 title
 -----
 Structure from the checkpoint file:  "Grambow2020_wb97xd3_009177_reverse_mol2.chk"
 Charge =  0 Multiplicity = 1

                         Standard orientation:
 ---------------------------------------------------------------------
 Center     Atomic      Atomic             Coordinates (Angstroms)
 Number     Number       Type             X           Y           Z
 ---------------------------------------------------------------------
      1          8           0       -2.252563    0.599406    0.000580
      2          6           0       -1.130820    0.222094    0.000037
      3          6           0       -0.614949   -1.154627    0.001185
      4          6           0        0.702627   -1.445540    0.000529
      5          7           0        1.719643   -0.457864   -0.001342
      6          6           0        1.020830    0.564922   -0.002072
      7          7           0        0.012176    1.219763   -0.001805
      8          1           0       -1.356909   -1.938684    0.003457
      9          1           0        1.077370   -2.460000    0.001341
     10          1           0        2.898991    2.845104    0.008614
     11          1           0        3.412197    2.303952    0.005898
 ---------------------------------------------------------------------

 SCF Done:  E(RHF) =  -337.823110200     A.U. after    2 cycles

 The electronic state is 1-A.
 Alpha  occ. eigenvalues --  -20.55839 -15.56057 -15.55939 -11.42263 -11.41928
 Alpha  occ. eigenvalues --  -11.35658 -11.27848  -1.51674  -1.38453  -1.28424
 Alpha  occ. eigenvalues --   -1.10144  -0.93442  -0.88198  -0.77712  -0.75296
 Alpha  occ. eigenvalues --   -0.69749  -0.67956  -0.64357  -0.61441  -0.60151
 Alpha  occ. eigenvalues --   -0.58209  -0.56045  -0.50054  -0.46832  -0.39360
 Alpha virt. eigenvalues --    0.02662   0.03174   0.04667   0.05818   0.06157
 Alpha virt. eigenvalues --    0.06280   0.08022   0.09278   0.10333   0.10848
 Alpha virt. eigenvalues --    0.11877   0.12554   0.12630   0.12862   0.13888

 Mulliken charges:
               1
     1  O   -1.265513
     2  C    0.953930
     3  C    0.612946
     4  C   -0.003516
     5  N    0.663302
     6  C   -1.544155
     7  N    0.880928
     8  H   -0.174648
     9  H   -0.145685
    10  H    0.016893
    11  H    0.005518
 Sum of Mulliken charges =  -0.00000

 Dipole moment (field-independent basis, Debye):
    X=              1.9336    Y=             -2.8184    Z=              0.0024  Tot=              3.4179

 Test job not archived.
 1\1\GINC-SE459\SP\RHF\Aug-CC-pVDZ\C4H4N2O1\OHZDE\09-Apr-2025\0\\#t hf
 aug-cc-pvdz iop(5/13=1,5/36=2,99/5=2) pseudo=read geom=check guess=(re
 ad,tcheck) scf=(maxcycle=1)\\title\\0,1\O,0,2.51290768,-1.27492747,-0.
 04817999\C,0,1.52640755,-0.62133724,-0.03059319\C,0,1.38247107,0.84177
 62,-0.03866589\C,0,0.18455446,1.46234713,-0.01580462\N,0,-1.0521608,0.
 77009785,0.01816545\C,0,-0.64038994,-0.39818106,0.01763598\N,0,0.16542
 313,-1.29078122,0.00620657\H,0,2.3010801,1.4081677,-0.06346811\H,0,0.0
 8369391,2.53907952,-0.02190066\H,0,-3.04136418,-2.11724428,0.10116417\

 Normal termination of Gaussian 16 at Wed Apr  9 04:04:33 2025.
