 Gaussian 16, Revision C.01,

 ----------------------------------------------------------------------
 #t hf aug-cc-pvdz symm=none int=(grid=ultrafine) guess=(read,tcheck) s
 table=(opt,rrhf)
 ----------------------------------------------------------------------
 -----
 title
 -----
 Symbolic Z-matrix:
 Charge =  0 Multiplicity = 1

 SCF Done:  E(RHF) =  -302.920491221     A.U. after   14 cycles
 Normal termination of Gaussian 16 at Wed Apr  9 18:15:17 2025.
 Gaussian 16:  ES64L-G16RevC.01  3-Jul-2019

 ----------------------------------------------------------------------
 #t hf aug-cc-pvdz iop(5/13=1,5/36=2,99/5=2) pseudo=read geom=check gue
 ss=(read,tcheck) scf=(maxcycle=1)
 ----------------------------------------------------------------------
 -----
 title
 -----
 Structure from the checkpoint file:  "Grambow2020_wb97xd3_007238_reverse_mol2.chk"
 Charge =  0 Multiplicity = 1

                         Standard orientation:
 ---------------------------------------------------------------------
 Center     Atomic      Atomic             Coordinates (Angstroms)
 Number     Number       Type             X           Y           Z
 ---------------------------------------------------------------------
      1          6           0       -0.065636    1.975214   -0.355115
      2          7           0       -1.597104    0.123820    0.251541
      3          6           0       -1.384250   -1.070709   -0.133121
      4          7           0       -0.034854   -1.484211   -0.269487
      5          6           0        0.641945   -0.446512    0.061420
      6          6           0        2.126747   -0.385919    0.062684
      7          6           0       -0.271648    0.690115    0.438453
      8          1           0        0.925107    2.392502   -0.166411
      9          1           0       -0.167248    1.787000   -1.425135
     10          1           0       -0.812617    2.712810   -0.065076
     11          1           0       -2.178456   -1.772858   -0.359218
     12          1           0        2.545365   -1.354403   -0.201599
     13          1           0        2.474180    0.362526   -0.654296
     14          1           0        2.499925   -0.085269    1.044260
     15          1           0       -0.145502    0.907293    1.507182
 ---------------------------------------------------------------------

 SCF Done:  E(RHF) =  -303.238460752     A.U. after    2 cycles

 The electronic state is 1-A.
 Alpha  occ. eigenvalues --  -15.50042 -15.48921 -11.30138 -11.30101 -11.27471
 Alpha  occ. eigenvalues --  -11.25322 -11.24343  -1.32362  -1.17239  -1.06832
 Alpha  occ. eigenvalues --   -1.00067  -0.91364  -0.81916  -0.77144  -0.71187
 Alpha  occ. eigenvalues --   -0.66023  -0.61144  -0.60059  -0.58090  -0.57523
 Alpha  occ. eigenvalues --   -0.57024  -0.53955  -0.49735  -0.47319  -0.46763
 Alpha  occ. eigenvalues --   -0.41553
 Alpha virt. eigenvalues --    0.03159   0.03857   0.04132   0.04483   0.05574
 Alpha virt. eigenvalues --    0.06104   0.06740   0.07983   0.08432   0.10010
 Alpha virt. eigenvalues --    0.10658   0.12013   0.13204   0.13870   0.14919

 Mulliken charges:
               1
     1  C    0.072233
     2  N    0.827308
     3  C   -0.478170
     4  N    1.054495
     5  C   -0.959366
     6  C   -0.456768
     7  C   -1.419339
     8  H    0.205280
     9  H    0.262629
    10  H    0.150456
    11  H   -0.056971
    12  H    0.123397
    13  H    0.258593
    14  H    0.268235
    15  H    0.147989
 Sum of Mulliken charges =  -0.00000

 Dipole moment (field-independent basis, Debye):
    X=              2.7326    Y=              1.4220    Z=              0.3341  Tot=              3.0985

 Test job not archived.
 1\1\GINC-SE103\SP\RHF\Aug-CC-pVDZ\C5H8N2\OHZDE\09-Apr-2025\0\\#t hf au
 g-cc-pvdz iop(5/13=1,5/36=2,99/5=2) pseudo=read geom=check guess=(read
 ,tcheck) scf=(maxcycle=1)\\title\\0,1\C,0,-1.39415018,0.15259212,-1.08
 458044\N,0,-1.27844643,0.28104886,1.38750261\C,0,-0.46056154,-0.430494
 46,2.05454175\N,0,0.78686855,-0.73293073,1.45213104\C,0,0.72749465,-0.
 15375835,0.30958528\C,0,1.8134427,-0.1973606,-0.70388743\C,0,-0.586267
 01,0.56342952,0.14106528\H,0,-0.86262153,0.40898583,-2.00275837\H,0,-1
 .5824026,-0.92221794,-1.07859893\H,0,-2.353617,0.66793141,-1.08491812\

 Normal termination of Gaussian 16 at Wed Apr  9 18:15:22 2025.
