 Gaussian 16, Revision C.01,

 ----------------------------------------------------------------------
 #t hf aug-cc-pvdz symm=none int=(grid=ultrafine) guess=(read,tcheck) s
 table=(opt,rrhf)
 ----------------------------------------------------------------------
 -----
 title
 -----
 Symbolic Z-matrix:
 Charge =  0 Multiplicity = 1

 SCF Done:  E(RHF) =  -343.598580428     A.U. after   16 cycles
 Normal termination of Gaussian 16 at Wed Apr  9 18:10:46 2025.
 Gaussian 16:  ES64L-G16RevC.01  3-Jul-2019

 ----------------------------------------------------------------------
 #t hf aug-cc-pvdz iop(5/13=1,5/36=2,99/5=2) pseudo=read geom=check gue
 ss=(read,tcheck) scf=(maxcycle=1)
 ----------------------------------------------------------------------
 -----
 title
 -----
 Structure from the checkpoint file:  "Grambow2020_wb97xd3_007158_forward_mol1.chk"
 Charge =  0 Multiplicity = 1

                         Standard orientation:
 ---------------------------------------------------------------------
 Center     Atomic      Atomic             Coordinates (Angstroms)
 Number     Number       Type             X           Y           Z
 ---------------------------------------------------------------------
      1          8           0        0.739855    1.238389   -0.692382
      2          6           0        0.376362    0.191319   -0.027687
      3          6           0       -0.736204    0.323354    0.946536
      4          6           0       -2.077082   -0.060501    0.349065
      5          8           0       -2.233013   -0.450786   -0.770782
      6          6           0        2.454876   -0.276378    0.290162
      7          6           0        1.164192   -0.982808   -0.285886
      8          1           0        1.739135    1.017041   -0.859232
      9          1           0       -0.563450   -0.332701    1.805257
     10          1           0       -0.806122    1.348993    1.319067
     11          1           0       -2.930990    0.043821    1.047399
     12          1           0        3.074252   -0.999454    0.827815
     13          1           0        2.248013    0.555282    0.970985
     14          1           0        1.260150   -1.259657   -1.337330
     15          1           0        0.831417   -1.844076    0.298210
 ---------------------------------------------------------------------

 SCF Done:  E(RHF) =  -343.948848513     A.U. after    2 cycles

 The electronic state is 1-A.
 Alpha  occ. eigenvalues --  -20.61591 -20.58248 -11.39941 -11.38189 -11.30038
 Alpha  occ. eigenvalues --  -11.25453 -11.19446  -1.55664  -1.51900  -1.12500
 Alpha  occ. eigenvalues --   -1.05551  -0.89936  -0.83524  -0.79989  -0.73925
 Alpha  occ. eigenvalues --   -0.72571  -0.70489  -0.66307  -0.63852  -0.60409
 Alpha  occ. eigenvalues --   -0.58327  -0.55690  -0.54125  -0.51687  -0.46913
 Alpha  occ. eigenvalues --   -0.45375  -0.27504
 Alpha virt. eigenvalues --    0.02025   0.03662   0.04023   0.04696   0.05993
 Alpha virt. eigenvalues --    0.06281   0.06952   0.07955   0.08124   0.08945
 Alpha virt. eigenvalues --    0.09775   0.12326   0.12820   0.13568   0.13647

 Mulliken charges:
               1
     1  O   -1.570638
     2  C    1.641905
     3  C   -0.847892
     4  C    1.144926
     5  O   -1.098691
     6  C   -0.408569
     7  C   -0.125022
     8  H    0.549151
     9  H    0.272683
    10  H    0.268587
    11  H    0.122647
    12  H   -0.105064
    13  H    0.008567
    14  H    0.116456
    15  H    0.030955
 Sum of Mulliken charges =  -0.00000

 Dipole moment (field-independent basis, Debye):
    X=             -3.2388    Y=              0.1843    Z=              3.1207  Tot=              4.5014

 Test job not archived.
 1\1\GINC-SE219\SP\RHF\Aug-CC-pVDZ\C5H8O2\OHZDE\09-Apr-2025\0\\#t hf au
 g-cc-pvdz iop(5/13=1,5/36=2,99/5=2) pseudo=read geom=check guess=(read
 ,tcheck) scf=(maxcycle=1)\\title\\0,1\O,0,0.00716022,-0.82615951,-1.41
 673722\C,0,0.02109251,-0.14230995,-0.32017077\C,0,1.06362383,-0.449397
 86,0.69134983\C,0,2.27769025,0.45160554,0.5628773\O,0,2.38709256,1.330
 48017,-0.24105328\C,0,-2.12075661,-0.34611535,-0.21559716\C,0,-1.04641
 917,0.81243878,-0.19854811\H,0,-1.00180756,-0.78238594,-1.65224099\H,0
 ,0.66129976,-0.31054915,1.69957095\H,0,1.39472043,-1.48786777,0.604408

 Normal termination of Gaussian 16 at Wed Apr  9 18:10:51 2025.
