 Gaussian 16, Revision C.01,

 ----------------------------------------------------------------------
 #t hf aug-cc-pvdz symm=none int=(grid=ultrafine) guess=(read,tcheck) s
 table=(opt,rrhf)
 ----------------------------------------------------------------------
 -----
 title
 -----
 Symbolic Z-matrix:
 Charge =  0 Multiplicity = 1

 SCF Done:  E(RHF) =  -272.001103266     A.U. after   13 cycles
 Normal termination of Gaussian 16 at Wed Apr  9 03:40:52 2025.
 Gaussian 16:  ES64L-G16RevC.01  3-Jul-2019

 ----------------------------------------------------------------------
 #t hf aug-cc-pvdz iop(5/13=1,5/36=2,99/5=2) pseudo=read geom=check gue
 ss=(read,tcheck) scf=(maxcycle=1)
 ----------------------------------------------------------------------
 -----
 title
 -----
 Structure from the checkpoint file:  "Grambow2020_wb97xd3_007443_reverse_mol2.chk"
 Charge =  0 Multiplicity = 1

                         Standard orientation:
 ---------------------------------------------------------------------
 Center     Atomic      Atomic             Coordinates (Angstroms)
 Number     Number       Type             X           Y           Z
 ---------------------------------------------------------------------
      1          6           0       -3.317977   -0.601354   -0.418123
      2          6           0       -3.324574    0.249090    0.594035
      3          6           0        0.151041    0.774110   -0.554877
      4          6           0        0.397180   -0.596276    0.034326
      5          6           0        1.772651   -0.020606    0.504995
      6          6           0        3.016336   -0.704951   -0.031550
      7          6           0        1.325722    1.263710   -0.165196
      8          1           0        2.964717   -0.809226   -1.118363
      9          1           0       -4.229919   -0.882605   -0.932278
     10          1           0       -2.398176   -1.051132   -0.775622
     11          1           0       -4.242923    0.699040    0.953639
     12          1           0       -2.410630    0.531663    1.105089
     13          1           0       -0.692934    1.192608   -1.089695
     14          1           0        0.482624   -1.412460   -0.687883
     15          1           0       -0.277496   -0.907253    0.836051
     16          1           0        1.831152    0.063071    1.594814
     17          1           0        3.915609   -0.133206    0.208602
     18          1           0        3.130226   -1.702114    0.400592
     19          1           0        1.805478    2.229273   -0.276604
 ---------------------------------------------------------------------

 SCF Done:  E(RHF) =  -272.299818678     A.U. after    2 cycles

 The electronic state is 1-A.
 Alpha  occ. eigenvalues --  -11.23953 -11.23809 -11.23642 -11.23210 -11.23045
 Alpha  occ. eigenvalues --  -11.22972 -11.22156  -1.15836  -1.03953  -0.98584
 Alpha  occ. eigenvalues --   -0.89327  -0.83046  -0.79394  -0.70737  -0.68612
 Alpha  occ. eigenvalues --   -0.65106  -0.62364  -0.60264  -0.58804  -0.55382
 Alpha  occ. eigenvalues --   -0.52458  -0.51125  -0.49787  -0.45450  -0.45206
 Alpha  occ. eigenvalues --   -0.38657  -0.35891
 Alpha virt. eigenvalues --    0.03428   0.03771   0.03961   0.04014   0.05137
 Alpha virt. eigenvalues --    0.05378   0.06240   0.06667   0.07808   0.07905
 Alpha virt. eigenvalues --    0.08906   0.10205   0.10948   0.12637   0.13060

 Mulliken charges:
               1
     1  C    0.157841
     2  C    0.117967
     3  C    0.318653
     4  C   -0.043338
     5  C   -0.545543
     6  C   -0.411913
     7  C    0.218892
     8  H    0.212351
     9  H   -0.078404
    10  H   -0.020335
    11  H   -0.071803
    12  H   -0.052493
    13  H   -0.169475
    14  H    0.064764
    15  H    0.019745
    16  H    0.071082
    17  H    0.144340
    18  H    0.177295
    19  H   -0.109624
 Sum of Mulliken charges =   0.00000

 Dipole moment (field-independent basis, Debye):
    X=              0.0685    Y=             -0.0389    Z=              0.1035  Tot=              0.1301

 Test job not archived.
 1\1\GINC-SE102\SP\RHF\Aug-CC-pVDZ\C7H12\OHZDE\09-Apr-2025\0\\#t hf aug
 -cc-pvdz iop(5/13=1,5/36=2,99/5=2) pseudo=read geom=check guess=(read,
 tcheck) scf=(maxcycle=1)\\title\\0,1\C,0,3.08905142,0.16071215,-1.2709
 3581\C,0,3.06452839,1.25102639,-0.5236911\C,0,0.12962583,-0.47890851,0
 .91478491\C,0,-0.5383159,-0.12079935,-0.39338745\C,0,-1.81932713,0.140
 1518,0.46437623\C,0,-3.03677829,-0.70754187,0.14470611\C,0,-0.96216337
 ,-0.2682517,1.64625904\H,0,-2.77422029,-1.76800463,0.11032738\H,0,4.00
 479828,-0.19672409,-1.72781944\H,0,2.19265642,-0.42107015,-1.45572226\

 Normal termination of Gaussian 16 at Wed Apr  9 03:40:59 2025.
