 Gaussian 16, Revision C.01,

 ----------------------------------------------------------------------
 #t hf aug-cc-pvdz symm=none int=(grid=ultrafine) guess=(read,tcheck) s
 table=(opt,rrhf)
 ----------------------------------------------------------------------
 -----
 title
 -----
 Symbolic Z-matrix:
 Charge =  0 Multiplicity = 1

 SCF Done:  E(RHF) =  -305.406338092     A.U. after   15 cycles
 Normal termination of Gaussian 16 at Wed Apr  9 18:55:40 2025.
 Gaussian 16:  ES64L-G16RevC.01  3-Jul-2019

 ----------------------------------------------------------------------
 #t hf aug-cc-pvdz iop(5/13=1,5/36=2,99/5=2) pseudo=read geom=check gue
 ss=(read,tcheck) scf=(maxcycle=1)
 ----------------------------------------------------------------------
 -----
 title
 -----
 Structure from the checkpoint file:  "Grambow2020_wb97xd3_008350_reverse_mol2.chk"
 Charge =  0 Multiplicity = 1

                         Standard orientation:
 ---------------------------------------------------------------------
 Center     Atomic      Atomic             Coordinates (Angstroms)
 Number     Number       Type             X           Y           Z
 ---------------------------------------------------------------------
      1          8           0        0.491228    1.482474   -0.739041
      2          6           0        0.707276    0.546923    0.280112
      3          6           0       -0.574831    0.274830    1.085416
      4          6           0       -1.633184   -0.266266    0.238333
      5          6           0       -2.468651   -0.697671   -0.503951
      6          6           0        2.477931   -1.155714   -0.023351
      7          6           0        1.274765   -0.758249   -0.264979
      8          1           0       -0.217328    1.161894   -1.306927
      9          1           0        1.439939    0.998717    0.948715
     10          1           0       -0.907064    1.218339    1.523969
     11          1           0       -0.357219   -0.419341    1.899647
     12          1           0       -3.229527   -1.085659   -1.139840
     13          1           0        0.641541   -1.396859   -0.882719
 ---------------------------------------------------------------------

 SCF Done:  E(RHF) =  -305.715660946     A.U. after    2 cycles

 The electronic state is 1-A.
 Alpha  occ. eigenvalues --  -20.56842 -11.33580 -11.30137 -11.28289 -11.26531
 Alpha  occ. eigenvalues --  -11.25624 -11.24405  -1.48011  -1.12136  -1.07135
 Alpha  occ. eigenvalues --   -1.00908  -0.89134  -0.76995  -0.74613  -0.69404
 Alpha  occ. eigenvalues --   -0.66893  -0.65970  -0.60944  -0.59242  -0.52490
 Alpha  occ. eigenvalues --   -0.48973  -0.45598  -0.42420  -0.42099  -0.41028
 Alpha virt. eigenvalues --    0.02747   0.03364   0.04543   0.04603   0.04961
 Alpha virt. eigenvalues --    0.06037   0.06871   0.08918   0.09581   0.10919
 Alpha virt. eigenvalues --    0.11557   0.11604   0.12132   0.13261   0.14034

 Mulliken charges:
               1
     1  O   -1.339910
     2  C    0.978907
     3  C   -0.850113
     4  C    0.451676
     5  C    0.225868
     6  C   -0.626914
     7  C    0.768175
     8  H    0.324497
     9  H    0.071399
    10  H    0.236453
    11  H    0.232045
    12  H   -0.440805
    13  H   -0.031277
 Sum of Mulliken charges =  -0.00000

 Dipole moment (field-independent basis, Debye):
    X=             -3.1552    Y=             -0.1668    Z=              0.1835  Tot=              3.1649

 Test job not archived.
 1\1\GINC-SE131\SP\RHF\Aug-CC-pVDZ\C6H6O1\OHZDE\09-Apr-2025\0\\#t hf au
 g-cc-pvdz iop(5/13=1,5/36=2,99/5=2) pseudo=read geom=check guess=(read
 ,tcheck) scf=(maxcycle=1)\\title\\0,1\O,0,-0.08665478,-0.66781545,1.70
 82686\C,0,0.51181478,-0.82045165,0.45162981\C,0,-0.51529447,-0.7010329
 2,-0.68728829\C,0,-1.16239434,0.60728946,-0.68826353\C,0,-1.66871626,1
 .6917594,-0.63665481\C,0,2.88643075,-0.17786004,0.17858127\C,0,1.64733
 397,0.17467689,0.2443722\H,0,-0.53957455,0.1816333,1.73310542\H,0,0.92
 047339,-1.83076318,0.43711176\H,0,-1.26899316,-1.47911486,-0.54785008\

 Normal termination of Gaussian 16 at Wed Apr  9 18:55:44 2025.
