 Gaussian 16, Revision C.01,

 ----------------------------------------------------------------------
 #t hf aug-cc-pvdz symm=none int=(grid=ultrafine) guess=(read,tcheck) s
 table=(opt,rrhf)
 ----------------------------------------------------------------------
 -----
 title
 -----
 Symbolic Z-matrix:
 Charge =  0 Multiplicity = 1

 SCF Done:  E(RHF) =  -306.520113035     A.U. after   15 cycles
 Normal termination of Gaussian 16 at Wed Apr  9 19:00:51 2025.
 Gaussian 16:  ES64L-G16RevC.01  3-Jul-2019

 ----------------------------------------------------------------------
 #t hf aug-cc-pvdz iop(5/13=1,5/36=2,99/5=2) pseudo=read geom=check gue
 ss=(read,tcheck) scf=(maxcycle=1)
 ----------------------------------------------------------------------
 -----
 title
 -----
 Structure from the checkpoint file:  "Grambow2020_wb97xd3_008455_reverse_mol2.chk"
 Charge =  0 Multiplicity = 1

                         Standard orientation:
 ---------------------------------------------------------------------
 Center     Atomic      Atomic             Coordinates (Angstroms)
 Number     Number       Type             X           Y           Z
 ---------------------------------------------------------------------
      1          6           0       -1.895388   -0.098524   -0.898000
      2          6           0       -1.752135   -0.266452    0.581169
      3          6           0        0.699807   -0.931468    0.109877
      4          8           0        1.864780   -0.473579   -0.219227
      5          6           0        2.312725    0.744005   -0.125773
      6          6           0       -1.151125    0.904265   -0.087168
      7          6           0       -0.287178   -0.039452    0.718650
      8          1           0       -1.353338   -0.756429   -1.571853
      9          1           0       -2.876014    0.201600   -1.252293
     10          1           0       -2.509893   -0.299445    1.345391
     11          1           0        0.579324   -1.989267   -0.059814
     12          1           0        3.323094    0.876387   -0.470860
     13          1           0        1.669415    1.534389    0.226196
     14          1           0       -1.342702    1.952369    0.070956
     15          1           0        0.031632    0.394783    1.673563
 ---------------------------------------------------------------------

 SCF Done:  E(RHF) =  -306.838631883     A.U. after    2 cycles

 The electronic state is 1-A.
 Alpha  occ. eigenvalues --  -20.67197 -11.28466 -11.27197 -11.26636 -11.25420
 Alpha  occ. eigenvalues --  -11.25290 -11.25180  -1.59043  -1.23756  -1.03198
 Alpha  occ. eigenvalues --   -0.95629  -0.85303  -0.80274  -0.75682  -0.73940
 Alpha  occ. eigenvalues --   -0.71560  -0.68241  -0.64215  -0.60488  -0.58582
 Alpha  occ. eigenvalues --   -0.53961  -0.51858  -0.47517  -0.45670  -0.37919
 Alpha  occ. eigenvalues --   -0.24362
 Alpha virt. eigenvalues --    0.03266   0.03777   0.03878   0.04195   0.05574
 Alpha virt. eigenvalues --    0.05963   0.06552   0.07615   0.08800   0.10436
 Alpha virt. eigenvalues --    0.11279   0.12760   0.13368   0.14088   0.14360

 Mulliken charges:
               1
     1  C    0.113105
     2  C    0.461862
     3  C    0.815848
     4  O   -1.092482
     5  C    0.332407
     6  C    0.405414
     7  C   -0.009910
     8  H   -0.102804
     9  H   -0.103559
    10  H   -0.234989
    11  H   -0.148197
    12  H   -0.138773
    13  H    0.132508
    14  H   -0.243419
    15  H   -0.187010
 Sum of Mulliken charges =  -0.00000

 Dipole moment (field-independent basis, Debye):
    X=             -1.5083    Y=              0.4128    Z=              0.4304  Tot=              1.6219

 Test job not archived.
 1\1\GINC-SE454\SP\RHF\Aug-CC-pVDZ\C6H8O1\OHZDE\09-Apr-2025\0\\#t hf au
 g-cc-pvdz iop(5/13=1,5/36=2,99/5=2) pseudo=read geom=check guess=(read
 ,tcheck) scf=(maxcycle=1)\\title\\0,1\C,0,1.47461619,1.27360114,0.1318
 1005\C,0,1.44496566,0.20333475,-0.91236984\C,0,-0.00272813,-1.15297575
 ,0.74322238\O,0,-1.18431354,-1.25508658,1.26145329\C,0,-2.30984216,-0.
 78312325,0.81163499\C,0,0.24597981,1.03021923,-0.67328595\C,0,0.172386
 21,-0.47424753,-0.54094999\H,0,1.49231632,1.00223858,1.18384817\H,0,2.
 04172099,2.16542007,-0.11370565\H,0,2.03375323,0.10087185,-1.80799906\

 Normal termination of Gaussian 16 at Wed Apr  9 19:00:55 2025.
