 Gaussian 16, Revision C.01,

 ----------------------------------------------------------------------
 #t hf aug-cc-pvdz symm=none int=(grid=ultrafine) guess=(read,tcheck) s
 table=(opt,rrhf)
 ----------------------------------------------------------------------
 -----
 title
 -----
 Symbolic Z-matrix:
 Charge =  0 Multiplicity = 1

 SCF Done:  E(RHF) =  -322.495470136     A.U. after   15 cycles
 Normal termination of Gaussian 16 at Wed Apr  9 03:27:22 2025.
 Gaussian 16:  ES64L-G16RevC.01  3-Jul-2019

 ----------------------------------------------------------------------
 #t hf aug-cc-pvdz iop(5/13=1,5/36=2,99/5=2) pseudo=read geom=check gue
 ss=(read,tcheck) scf=(maxcycle=1)
 ----------------------------------------------------------------------
 -----
 title
 -----
 Structure from the checkpoint file:  "Grambow2020_wb97xd3_006647_forward_mol1.chk"
 Charge =  0 Multiplicity = 1

                         Standard orientation:
 ---------------------------------------------------------------------
 Center     Atomic      Atomic             Coordinates (Angstroms)
 Number     Number       Type             X           Y           Z
 ---------------------------------------------------------------------
      1          6           0        1.780544    0.731038    0.000347
      2          7           0        1.596297   -1.009877   -0.000267
      3          6           0        0.543450   -0.180346   -0.000131
      4          6           0       -0.716100   -0.034401    0.907077
      5          6           0       -1.209049    1.103259   -0.001823
      6          6           0       -0.716736   -0.037665   -0.907075
      7          8           0       -1.376599   -0.985542    0.002059
      8          1           0        1.870265    1.280139    0.932212
      9          1           0        1.870220    1.282884   -0.929982
     10          1           0        2.660649   -0.009252   -0.002573
     11          1           0       -0.847442   -0.179900    1.977540
     12          1           0       -0.669036    2.051096   -0.003919
     13          1           0       -2.289747    1.225622   -0.001610
     14          1           0       -0.848854   -0.188421   -1.976644
 ---------------------------------------------------------------------

 SCF Done:  E(RHF) =  -322.823640450     A.U. after    2 cycles

 The electronic state is 1-A.
 Alpha  occ. eigenvalues --  -20.54405 -15.52696 -11.30757 -11.30749 -11.30009
 Alpha  occ. eigenvalues --  -11.29122 -11.25154  -1.48509  -1.25619  -1.08175
 Alpha  occ. eigenvalues --   -0.93984  -0.90177  -0.88528  -0.73752  -0.71821
 Alpha  occ. eigenvalues --   -0.66911  -0.65813  -0.61429  -0.57672  -0.55704
 Alpha  occ. eigenvalues --   -0.53331  -0.51546  -0.48386  -0.47119  -0.41668
 Alpha  occ. eigenvalues --   -0.39060
 Alpha virt. eigenvalues --    0.02975   0.03706   0.03931   0.04238   0.05624
 Alpha virt. eigenvalues --    0.05824   0.07405   0.09765   0.10777   0.10958
 Alpha virt. eigenvalues --    0.11552   0.13661   0.13859   0.14027   0.14911

 Mulliken charges:
               1
     1  C   -0.455742
     2  N    0.933291
     3  C   -1.991070
     4  C    1.058564
     5  C    0.033858
     6  C    1.057426
     7  O   -1.443918
     8  H    0.166991
     9  H    0.166623
    10  H    0.546582
    11  H   -0.052384
    12  H    0.030237
    13  H    0.001958
    14  H   -0.052417
 Sum of Mulliken charges =  -0.00000

 Dipole moment (field-independent basis, Debye):
    X=              0.7066    Y=              4.3553    Z=             -0.0048  Tot=              4.4122

 Test job not archived.
 1\1\GINC-SE398\SP\RHF\Aug-CC-pVDZ\C5H7N1O1\OHZDE\09-Apr-2025\0\\#t hf
 aug-cc-pvdz iop(5/13=1,5/36=2,99/5=2) pseudo=read geom=check guess=(re
 ad,tcheck) scf=(maxcycle=1)\\title\\0,1\C,0,-1.52372715,-0.76595228,-0
 .1034874\N,0,-1.76981957,0.93463642,0.23142789\C,0,-0.54683432,0.40346
 169,0.09443213\C,0,0.73488424,0.40084837,0.98211714\C,0,1.46510736,-0.
 38792939,-0.11696069\C,0,0.68448121,0.74815147,-0.7977699\O,0,1.118089
 63,1.63851616,0.28834726\H,0,-1.4509553,-1.48675543,0.70464707\H,0,-1.
 50179516,-1.13619906,-1.12354857\H,0,-2.55756536,-0.276837,0.01720926\

 Normal termination of Gaussian 16 at Wed Apr  9 03:27:26 2025.
