 Gaussian 16, Revision C.01,

 ----------------------------------------------------------------------
 #t hf aug-cc-pvdz symm=none int=(grid=ultrafine) guess=(read,tcheck) s
 table=(opt,rrhf)
 ----------------------------------------------------------------------
 -----
 title
 -----
 Symbolic Z-matrix:
 Charge =  0 Multiplicity = 1

 SCF Done:  E(RHF) =  -310.226190771     A.U. after   13 cycles

 1\1\GINC-SE232\Stability\RHF\Aug-CC-pVDZ\C6H14O1\OHZDE\09-Apr-2025\0\\
 #t hf aug-cc-pvdz symm=none int=(grid=ultrafine) guess=(read,tcheck) s
 table=(opt,rrhf)\\title\\0,1\C,0,-2.42882035,0.70608929,0.52652615\C,0
 ,-1.34819463,-0.35220354,0.35448232\C,0,-0.87564251,-0.4732073,-1.0952
 8303\C,0,0.19701929,-1.50086792,-1.28139591\C,0,1.37183215,-1.28702187
 ,-1.85962886\O,0,2.11986137,0.14961758,1.06209031\C,0,2.04549887,1.450
 88153,0.52828497\H,0,-2.75366858,0.77642563,1.56575496\H,0,-3.30674544
 ,0.47887736,-0.08362107\H,0,-2.06460018,1.69177011,0.22567924\H,0,-0.4

 Normal termination of Gaussian 16 at Wed Apr  9 18:35:01 2025.
 Gaussian 16:  ES64L-G16RevC.01  3-Jul-2019

 ----------------------------------------------------------------------
 #t hf aug-cc-pvdz iop(5/13=1,5/36=2,99/5=2) pseudo=read geom=check gue
 ss=(read,tcheck) scf=(maxcycle=1)
 ----------------------------------------------------------------------
 -----
 title
 -----
 Structure from the checkpoint file:  "Grambow2020_wb97xd3_007727_reverse_mol2.chk"
 Charge =  0 Multiplicity = 1

                         Standard orientation:
 ---------------------------------------------------------------------
 Center     Atomic      Atomic             Coordinates (Angstroms)
 Number     Number       Type             X           Y           Z
 ---------------------------------------------------------------------
      1          6           0        2.550697   -1.188108   -0.163677
      2          6           0        1.527503   -0.284618    0.510202
      3          6           0        1.064040    0.853183   -0.401049
      4          6           0        0.047206    1.745008    0.240844
      5          6           0       -1.136406    2.052942   -0.273459
      6          8           0       -1.963160   -1.009442    0.774495
      7          6           0       -1.956612   -1.540601   -0.529956
      8          1           0        2.869913   -1.991722    0.501737
      9          1           0        3.440231   -0.626791   -0.460849
     10          1           0        2.135544   -1.648445   -1.063938
     11          1           0        0.661137   -0.873171    0.825859
     12          1           0        1.955515    0.140021    1.424087
     13          1           0        1.935079    1.457666   -0.681497
     14          1           0        0.656951    0.447211   -1.332761
     15          1           0        0.323871    2.165649    1.206220
     16          1           0       -1.694990   -0.086179    0.726465
     17          1           0       -1.824261    2.715889    0.237447
     18          1           0       -1.451545    1.665696   -1.237959
     19          1           0       -2.262612   -2.584097   -0.458690
     20          1           0       -0.958807   -1.510069   -0.986276
     21          1           0       -2.659318   -1.022961   -1.193226
 ---------------------------------------------------------------------

 SCF Done:  E(RHF) =  -310.566506482     A.U. after    2 cycles

 The electronic state is 1-A.
 Alpha  occ. eigenvalues --  -20.53482 -11.27551 -11.25200 -11.23866 -11.23804
 Alpha  occ. eigenvalues --  -11.22959 -11.22487  -1.43802  -1.10218  -1.03357
 Alpha  occ. eigenvalues --   -0.93310  -0.92177  -0.81957  -0.77275  -0.68731
 Alpha  occ. eigenvalues --   -0.66594  -0.63431  -0.61728  -0.61008  -0.58964
 Alpha  occ. eigenvalues --   -0.58000  -0.55195  -0.52665  -0.49852  -0.49211
 Alpha  occ. eigenvalues --   -0.48777  -0.48072  -0.43300  -0.38097
 Alpha virt. eigenvalues --    0.03334   0.03524   0.03736   0.04138   0.05538
 Alpha virt. eigenvalues --    0.05871   0.06250   0.06621   0.07748   0.08396
 Alpha virt. eigenvalues --    0.08810   0.09244   0.10135   0.10701   0.11993

 Mulliken charges:
               1
     1  C   -0.322489
     2  C   -0.296451
     3  C   -0.761670
     4  C    0.883748
     5  C   -0.068426
     6  O   -1.161625
     7  C    0.422537
     8  H    0.114737
     9  H    0.152208
    10  H    0.163717
    11  H    0.081926
    12  H    0.126798
    13  H    0.195880
    14  H    0.109127
    15  H   -0.180702
    16  H    0.604687
    17  H   -0.129119
    18  H   -0.134357
    19  H   -0.012733
    20  H    0.126361
    21  H    0.085847
 Sum of Mulliken charges =  -0.00000

 Dipole moment (field-independent basis, Debye):
    X=              1.0449    Y=              0.9140    Z=             -1.2358  Tot=              1.8586

 Test job not archived.
 1\1\GINC-SE232\SP\RHF\Aug-CC-pVDZ\C6H14O1\OHZDE\09-Apr-2025\0\\#t hf a
 ug-cc-pvdz iop(5/13=1,5/36=2,99/5=2) pseudo=read geom=check guess=(rea
 d,tcheck) scf=(maxcycle=1)\\title\\0,1\C,0,-2.42882035,0.70608929,0.52
 652615\C,0,-1.34819463,-0.35220354,0.35448232\C,0,-0.87564251,-0.47320
 73,-1.09528303\C,0,0.19701929,-1.50086792,-1.28139591\C,0,1.37183215,-
 1.28702187,-1.85962886\O,0,2.11986137,0.14961758,1.06209031\C,0,2.0454
 9887,1.45088153,0.52828497\H,0,-2.75366858,0.77642563,1.56575496\H,0,-
 3.30674544,0.47887736,-0.08362107\H,0,-2.06460018,1.69177011,0.2256792

 Normal termination of Gaussian 16 at Wed Apr  9 18:35:09 2025.
