 Gaussian 16, Revision C.01,

 ----------------------------------------------------------------------
 #t hf aug-cc-pvdz symm=none int=(grid=ultrafine) guess=(read,tcheck) s
 table=(opt,rrhf)
 ----------------------------------------------------------------------
 -----
 title
 -----
 Symbolic Z-matrix:
 Charge =  0 Multiplicity = 1

 SCF Done:  E(RHF) =  -344.692327875     A.U. after   15 cycles

 1\1\GINC-SE403\Stability\RHF\Aug-CC-pVDZ\C5H10O2\OHZDE\09-Apr-2025\0\\
 #t hf aug-cc-pvdz symm=none int=(grid=ultrafine) guess=(read,tcheck) s
 table=(opt,rrhf)\\title\\0,1\C,0,1.99996656,1.04737386,-0.31428335\O,0
 ,0.64735145,1.08434837,-0.56765026\C,0,0.12210459,-0.05692192,-0.88030
 302\C,0,0.77472399,-1.14190324,0.86406367\O,0,-0.60334455,-0.82719774,
 1.10134473\C,0,-1.13203751,-0.45589896,-0.16777307\C,0,-2.19647248,0.6
 0577024,-0.00214693\H,0,1.61786275,-0.18826065,0.51381728\H,0,2.583645
 81,0.55124952,-1.09572249\H,0,2.35923715,2.03186533,-0.03271322\H,0,0.

 Normal termination of Gaussian 16 at Wed Apr  9 03:27:31 2025.
 Gaussian 16:  ES64L-G16RevC.01  3-Jul-2019

 ----------------------------------------------------------------------
 #t hf aug-cc-pvdz iop(5/13=1,5/36=2,99/5=2) pseudo=read geom=check gue
 ss=(read,tcheck) scf=(maxcycle=1)
 ----------------------------------------------------------------------
 -----
 title
 -----
 Structure from the checkpoint file:  "Grambow2020_wb97xd3_006654_forward_mol1.chk"
 Charge =  0 Multiplicity = 1

                         Standard orientation:
 ---------------------------------------------------------------------
 Center     Atomic      Atomic             Coordinates (Angstroms)
 Number     Number       Type             X           Y           Z
 ---------------------------------------------------------------------
      1          6           0        2.224826   -0.486296   -0.303493
      2          8           0        0.957286   -0.990237   -0.117713
      3          6           0        0.257561   -0.380701    0.785052
      4          6           0        0.424454    1.604368   -0.038087
      5          8           0       -0.878934    1.141495   -0.414043
      6          6           0       -1.138405    0.017728    0.421338
      7          6           0       -1.974606   -1.003120   -0.317737
      8          1           0        1.485783    0.859850   -0.287616
      9          1           0        2.797047   -0.374060    0.622485
     10          1           0        2.735887   -1.028856   -1.092179
     11          1           0        0.693186   -0.236514    1.770425
     12          1           0        0.700626    2.346697   -0.793124
     13          1           0        0.414504    2.123172    0.927870
     14          1           0       -1.656150    0.343879    1.334381
     15          1           0       -2.245669   -1.829866    0.341239
     16          1           0       -2.888852   -0.531057   -0.678248
     17          1           0       -1.426162   -1.395169   -1.173625
 ---------------------------------------------------------------------

 SCF Done:  E(RHF) =  -345.051045848     A.U. after    2 cycles

 The electronic state is 1-A.
 Alpha  occ. eigenvalues --  -20.62147 -20.54223 -11.34687 -11.30562 -11.27213
 Alpha  occ. eigenvalues --  -11.26513 -11.23296  -1.56631  -1.45934  -1.06449
 Alpha  occ. eigenvalues --   -0.98007  -0.91849  -0.89141  -0.79722  -0.73286
 Alpha  occ. eigenvalues --   -0.69950  -0.68591  -0.63463  -0.63144  -0.59646
 Alpha  occ. eigenvalues --   -0.56123  -0.54264  -0.53877  -0.51932  -0.50177
 Alpha  occ. eigenvalues --   -0.44272  -0.41564  -0.28416
 Alpha virt. eigenvalues --    0.02848   0.03787   0.04009   0.04326   0.05964
 Alpha virt. eigenvalues --    0.06066   0.06560   0.06858   0.07411   0.08874
 Alpha virt. eigenvalues --    0.09121   0.11711   0.13038   0.13653   0.13956

 Mulliken charges:
               1
     1  C   -0.131221
     2  O   -1.374843
     3  C    1.075478
     4  C    0.012376
     5  O   -1.382671
     6  C    0.742847
     7  C   -0.360658
     8  H    0.842628
     9  H    0.063927
    10  H   -0.128807
    11  H    0.010933
    12  H   -0.108301
    13  H    0.092583
    14  H    0.043922
    15  H    0.203737
    16  H    0.173529
    17  H    0.224543
 Sum of Mulliken charges =  -0.00000

 Dipole moment (field-independent basis, Debye):
    X=             -0.0957    Y=             -0.9275    Z=              2.2767  Tot=              2.4602

 Test job not archived.
 1\1\GINC-SE403\SP\RHF\Aug-CC-pVDZ\C5H10O2\OHZDE\09-Apr-2025\0\\#t hf a
 ug-cc-pvdz iop(5/13=1,5/36=2,99/5=2) pseudo=read geom=check guess=(rea
 d,tcheck) scf=(maxcycle=1)\\title\\0,1\C,0,1.99996656,1.04737386,-0.31
 428335\O,0,0.64735145,1.08434837,-0.56765026\C,0,0.12210459,-0.0569219
 2,-0.88030302\C,0,0.77472399,-1.14190324,0.86406367\O,0,-0.60334455,-0
 .82719774,1.10134473\C,0,-1.13203751,-0.45589896,-0.16777307\C,0,-2.19
 647248,0.60577024,-0.00214693\H,0,1.61786275,-0.18826065,0.51381728\H,
 0,2.58364581,0.55124952,-1.09572249\H,0,2.35923715,2.03186533,-0.03271

 Normal termination of Gaussian 16 at Wed Apr  9 03:27:37 2025.
