 Gaussian 16, Revision C.01,

 ----------------------------------------------------------------------
 #t hf aug-cc-pvdz symm=none int=(grid=ultrafine) guess=(read,tcheck) s
 table=(opt,rrhf)
 ----------------------------------------------------------------------
 -----
 title
 -----
 Symbolic Z-matrix:
 Charge =  0 Multiplicity = 1

 SCF Done:  E(RHF) =  -305.889378811     A.U. after   13 cycles
 Normal termination of Gaussian 16 at Wed Apr  9 03:05:52 2025.
 Gaussian 16:  ES64L-G16RevC.01  3-Jul-2019

 ----------------------------------------------------------------------
 #t hf aug-cc-pvdz iop(5/13=1,5/36=2,99/5=2) pseudo=read geom=check gue
 ss=(read,tcheck) scf=(maxcycle=1)
 ----------------------------------------------------------------------
 -----
 title
 -----
 Structure from the checkpoint file:  "Grambow2020_b97d3_006508_forward_mol2.chk"
 Charge =  0 Multiplicity = 1

                         Standard orientation:
 ---------------------------------------------------------------------
 Center     Atomic      Atomic             Coordinates (Angstroms)
 Number     Number       Type             X           Y           Z
 ---------------------------------------------------------------------
      1          6           0        1.124231   -1.271184   -0.336377
      2          6           0        0.342111   -0.000105    0.057854
      3          6           0        1.121359    1.273405   -0.335128
      4          8           0        0.088416   -0.001623    1.452112
      5          6           0       -0.981103   -0.000856   -0.694478
      6          8           0       -2.058967   -0.000544   -0.120261
      7          1           0        2.082491   -1.276965    0.198869
      8          1           0        0.560372   -2.167989   -0.048757
      9          1           0        1.326119   -1.304719   -1.416350
     10          1           0        0.554433    2.169673   -0.051454
     11          1           0        1.328196    1.305807   -1.414242
     12          1           0        2.076940    1.282159    0.204833
     13          1           0       -0.892787    0.002710    1.527820
     14          1           0       -0.910932   -0.000909   -1.806752
 ---------------------------------------------------------------------

 SCF Done:  E(RHF) =  -306.205297071     A.U. after    2 cycles

 The electronic state is 1-A.
 Alpha  occ. eigenvalues --  -20.57003 -20.54954 -11.35937 -11.31514 -11.24760
 Alpha  occ. eigenvalues --  -11.24734  -1.49730  -1.44630  -1.08299  -0.95791
 Alpha  occ. eigenvalues --   -0.90073  -0.78311  -0.73267  -0.67953  -0.63364
 Alpha  occ. eigenvalues --   -0.62373  -0.57564  -0.57157  -0.54408  -0.53720
 Alpha  occ. eigenvalues --   -0.53444  -0.51923  -0.44457  -0.43375
 Alpha virt. eigenvalues --    0.03201   0.03993   0.04051   0.04998   0.06586
 Alpha virt. eigenvalues --    0.06903   0.07143   0.07249   0.10451   0.10663
 Alpha virt. eigenvalues --    0.12781   0.14190   0.14760   0.15038   0.15663

 Mulliken charges:
               1
     1  C   -0.018298
     2  C   -0.216542
     3  C   -0.018182
     4  O   -1.421905
     5  C    1.180363
     6  O   -1.155936
     7  H    0.217919
     8  H    0.169247
     9  H    0.236043
    10  H    0.168619
    11  H    0.237052
    12  H    0.217245
    13  H    0.261806
    14  H    0.142571
 Sum of Mulliken charges =  -0.00000

 Dipole moment (field-independent basis, Debye):
    X=              1.7289    Y=              0.0071    Z=             -2.3769  Tot=              2.9392

 Test job not archived.
 1\1\GINC-SE229\SP\RHF\Aug-CC-pVDZ\C4H8O2\OHZDE\09-Apr-2025\0\\#t hf au
 g-cc-pvdz iop(5/13=1,5/36=2,99/5=2) pseudo=read geom=check guess=(read
 ,tcheck) scf=(maxcycle=1)\\title\\0,1\C,0,-0.85081862,1.18689681,-0.10
 882848\C,0,0.09441735,-0.02560814,-0.24714881\C,0,1.22017986,0.0270266
 6,0.80801873\O,0,0.65246942,-0.05738534,-1.54941087\C,0,-0.71694169,-1
 .2925987,-0.01621833\O,0,-0.82564711,-2.16266082,-0.8663317\H,0,-0.272
 84137,2.10600651,-0.26996316\H,0,-1.64379237,1.13802191,-0.86627504\H,
 0,-1.30945935,1.23203547,0.88908695\H,0,1.88395219,-0.84074209,0.70052

 Normal termination of Gaussian 16 at Wed Apr  9 03:05:56 2025.
