 Gaussian 16, Revision C.01,

 ----------------------------------------------------------------------
 #t hf aug-cc-pvdz symm=none int=(grid=ultrafine) guess=(read,tcheck) s
 table=(opt,rrhf)
 ----------------------------------------------------------------------
 -----
 title
 -----
 Symbolic Z-matrix:
 Charge =  0 Multiplicity = 1

 SCF Done:  E(RHF) =  -322.536263115     A.U. after   16 cycles
 Normal termination of Gaussian 16 at Wed Apr  9 03:39:32 2025.
 Gaussian 16:  ES64L-G16RevC.01  3-Jul-2019

 ----------------------------------------------------------------------
 #t hf aug-cc-pvdz iop(5/13=1,5/36=2,99/5=2) pseudo=read geom=check gue
 ss=(read,tcheck) scf=(maxcycle=1)
 ----------------------------------------------------------------------
 -----
 title
 -----
 Structure from the checkpoint file:  "Grambow2020_wb97xd3_007387_reverse_mol1.chk"
 Charge =  0 Multiplicity = 1

                         Standard orientation:
 ---------------------------------------------------------------------
 Center     Atomic      Atomic             Coordinates (Angstroms)
 Number     Number       Type             X           Y           Z
 ---------------------------------------------------------------------
      1          6           0       -1.056374   -0.758091    0.943177
      2          6           0       -1.274843   -0.214929   -0.505351
      3          6           0       -0.614979    1.305790   -0.518357
      4          8           0        0.167927    1.530374    0.503057
      5          6           0        1.972579    0.031575    0.120965
      6          7           0        1.645980   -0.954496   -0.375932
      7          6           0       -0.517773   -1.340310   -0.215971
      8          1           0       -0.481248    0.112196    1.361536
      9          1           0       -1.702613   -1.324212    1.604031
     10          1           0       -2.119089   -0.303673   -1.180239
     11          1           0       -1.517972    1.937984   -0.566388
     12          1           0       -0.122193    1.299260   -1.512154
     13          1           0        2.399150    0.900898    0.568635
     14          1           0       -0.372974   -2.328176   -0.615126
 ---------------------------------------------------------------------

 SCF Done:  E(RHF) =  -322.864573883     A.U. after    2 cycles

 The electronic state is 1-A.
 Alpha  occ. eigenvalues --  -20.43760 -15.52482 -11.35004 -11.31293 -11.27514
 Alpha  occ. eigenvalues --  -11.27183 -11.26830  -1.35358  -1.25497  -1.21205
 Alpha  occ. eigenvalues --   -0.91027  -0.85121  -0.81196  -0.78227  -0.71908
 Alpha  occ. eigenvalues --   -0.67412  -0.62178  -0.61580  -0.55908  -0.53332
 Alpha  occ. eigenvalues --   -0.52585  -0.51840  -0.48715  -0.45352  -0.35013
 Alpha  occ. eigenvalues --   -0.34122
 Alpha virt. eigenvalues --    0.02673   0.03106   0.03815   0.04501   0.05354
 Alpha virt. eigenvalues --    0.06261   0.06674   0.07772   0.09735   0.10162
 Alpha virt. eigenvalues --    0.10812   0.12487   0.13112   0.13307   0.14042

 Mulliken charges:
               1
     1  C    0.057268
     2  C    0.000306
     3  C    0.572357
     4  O   -1.293181
     5  C   -0.812665
     6  N    0.695163
     7  C    0.435727
     8  H    0.416185
     9  H   -0.115416
    10  H   -0.133705
    11  H    0.023179
    12  H    0.255046
    13  H    0.087892
    14  H   -0.188155
 Sum of Mulliken charges =   0.00000

 Dipole moment (field-independent basis, Debye):
    X=             -1.2226    Y=             -2.7953    Z=             -0.2486  Tot=              3.0611

 Test job not archived.
 1\1\GINC-SE060\SP\RHF\Aug-CC-pVDZ\C5H7N1O1\OHZDE\09-Apr-2025\0\\#t hf
 aug-cc-pvdz iop(5/13=1,5/36=2,99/5=2) pseudo=read geom=check guess=(re
 ad,tcheck) scf=(maxcycle=1)\\title\\0,1\C,0,-1.33558335,-0.44382068,0.
 41004834\C,0,-0.76200166,0.52024283,-0.67741341\C,0,0.44422561,1.37519
 088,0.07242361\O,0,0.82216246,0.83922189,1.20227604\C,0,1.80743554,-1.
 20931495,0.50808754\N,0,1.29065574,-1.67299334,-0.41052586\C,0,-0.7242
 1588,-0.86205412,-0.78326802\H,0,-0.63475465,-0.1829545,1.24908423\H,0
 ,-2.35190045,-0.7352017,0.64888616\H,0,-1.25666316,1.09737698,-1.45092

 Normal termination of Gaussian 16 at Wed Apr  9 03:39:37 2025.
