 Gaussian 16, Revision C.01,

 ----------------------------------------------------------------------
 #t hf aug-cc-pvdz symm=none int=(grid=ultrafine) guess=(read,tcheck) s
 table=(opt,rrhf)
 ----------------------------------------------------------------------
 -----
 title
 -----
 Symbolic Z-matrix:
 Charge =  0 Multiplicity = 1

 SCF Done:  E(RHF) =  -354.523160400     A.U. after   17 cycles
 Normal termination of Gaussian 16 at Wed Apr  9 18:19:29 2025.
 Gaussian 16:  ES64L-G16RevC.01  3-Jul-2019

 ----------------------------------------------------------------------
 #t hf aug-cc-pvdz iop(5/13=1,5/36=2,99/5=2) pseudo=read geom=check gue
 ss=(read,tcheck) scf=(maxcycle=1)
 ----------------------------------------------------------------------
 -----
 title
 -----
 Structure from the checkpoint file:  "Grambow2020_wb97xd3_007321_forward_mol1.chk"
 Charge =  0 Multiplicity = 1

                         Standard orientation:
 ---------------------------------------------------------------------
 Center     Atomic      Atomic             Coordinates (Angstroms)
 Number     Number       Type             X           Y           Z
 ---------------------------------------------------------------------
      1          8           0        1.275143   -0.059144    1.068458
      2          6           0        1.738009   -0.039832   -0.232063
      3          6           0        0.329614    0.049101   -0.781972
      4          7           0       -0.396484   -1.113604   -0.443073
      5          7           0       -1.418699   -0.668975    0.142453
      6          6           0       -1.250877    0.732966    0.382113
      7          7           0       -0.355157    1.152390   -0.578077
      8          1           0       -0.291309    0.566320    1.191877
      9          1           0        2.243233   -0.967127   -0.531035
     10          1           0        2.334858    0.836901   -0.504555
     11          1           0       -2.068685   -1.310165    0.575933
     12          1           0       -2.127338    1.305126    0.662531
 ---------------------------------------------------------------------

 SCF Done:  E(RHF) =  -354.882698685     A.U. after    2 cycles

 The electronic state is 1-A.
 Alpha  occ. eigenvalues --  -20.46705 -15.67954 -15.64275 -15.52742 -11.34070
 Alpha  occ. eigenvalues --  -11.32694 -11.27870  -1.50123  -1.35239  -1.26550
 Alpha  occ. eigenvalues --   -1.15439  -0.96916  -0.94704  -0.84656  -0.83360
 Alpha  occ. eigenvalues --   -0.76749  -0.69938  -0.62493  -0.61155  -0.59586
 Alpha  occ. eigenvalues --   -0.57020  -0.54889  -0.50134  -0.41885  -0.36812
 Alpha  occ. eigenvalues --   -0.36526
 Alpha virt. eigenvalues --   -0.01583   0.01712   0.03722   0.05633   0.06352
 Alpha virt. eigenvalues --    0.06444   0.07577   0.08460   0.09068   0.10729
 Alpha virt. eigenvalues --    0.11622   0.12887   0.13999   0.15134   0.15203

 Mulliken charges:
               1
     1  O   -1.294725
     2  C    0.997609
     3  C   -2.193773
     4  N    0.631910
     5  N    0.107954
     6  C   -0.351802
     7  N    0.803061
     8  H    0.831648
     9  H    0.123714
    10  H    0.158009
    11  H    0.167581
    12  H    0.018813
 Sum of Mulliken charges =   0.00000

 Dipole moment (field-independent basis, Debye):
    X=             -5.0023    Y=             -1.4682    Z=             -0.1529  Tot=              5.2156

 Test job not archived.
 1\1\GINC-SE220\SP\RHF\Aug-CC-pVDZ\C3H5N3O1\OHZDE\09-Apr-2025\0\\#t hf
 aug-cc-pvdz iop(5/13=1,5/36=2,99/5=2) pseudo=read geom=check guess=(re
 ad,tcheck) scf=(maxcycle=1)\\title\\0,1\O,0,-1.24921176,0.98428802,0.1
 7247861\C,0,-1.7446491,-0.26503257,-0.1432946\C,0,-0.35044541,-0.81442
 471,-0.3629512\N,0,0.26808304,-0.1470139,-1.44273766\N,0,1.34497256,0.
 28333156,-0.952258\C,0,1.32156233,0.09931487,0.46782341\N,0,0.44418244
 ,-0.94328088,0.67613246\H,0,0.3736464,0.9206653,0.64417061\H,0,-2.3461
 8417,-0.2785605,-1.06116337\H,0,-2.26061092,-0.78456842,0.67095851\H,0

 Normal termination of Gaussian 16 at Wed Apr  9 18:19:34 2025.
