 Gaussian 16, Revision C.01,

 ----------------------------------------------------------------------
 #t hf aug-cc-pvdz symm=none int=(grid=ultrafine) guess=(read,tcheck) s
 table=(opt,rrhf)
 ----------------------------------------------------------------------
 -----
 title
 -----
 Symbolic Z-matrix:
 Charge =  0 Multiplicity = 1

 SCF Done:  E(RHF) =  -304.637419675     A.U. after   13 cycles
 Normal termination of Gaussian 16 at Wed Apr  9 17:10:08 2025.
 Gaussian 16:  ES64L-G16RevC.01  3-Jul-2019

 ----------------------------------------------------------------------
 #t hf aug-cc-pvdz iop(5/13=1,5/36=2,99/5=2) pseudo=read geom=check gue
 ss=(read,tcheck) scf=(maxcycle=1)
 ----------------------------------------------------------------------
 -----
 title
 -----
 Structure from the checkpoint file:  "Grambow2020_wb97xd3_006271_reverse_mol2.chk"
 Charge =  0 Multiplicity = 1

                         Standard orientation:
 ---------------------------------------------------------------------
 Center     Atomic      Atomic             Coordinates (Angstroms)
 Number     Number       Type             X           Y           Z
 ---------------------------------------------------------------------
      1          8           0        1.357097   -1.098671    0.163198
      2          6           0        2.221003   -0.089896    0.084609
      3          8           0        1.933144    1.059842   -0.084501
      4          6           0       -1.394603    0.656348   -0.185992
      5          6           0       -2.571633    0.083358    0.548448
      6          6           0       -1.846025   -0.460053   -0.646104
      7          1           0        3.248419   -0.461757    0.196939
      8          1           0       -0.687629    1.466381   -0.247695
      9          1           0       -2.429073   -0.377135    1.524176
     10          1           0       -3.552067    0.536443    0.414527
     11          1           0        0.454970   -0.745385    0.056608
     12          1           0       -1.808997   -1.246460   -1.379905
 ---------------------------------------------------------------------

 SCF Done:  E(RHF) =  -304.947081348     A.U. after    2 cycles

 The electronic state is 1-A.
 Alpha  occ. eigenvalues --  -20.60507 -20.54857 -11.40130 -11.26588 -11.26327
 Alpha  occ. eigenvalues --  -11.25764  -1.55771  -1.46457  -1.18074  -0.89754
 Alpha  occ. eigenvalues --   -0.84013  -0.78233  -0.72691  -0.71353  -0.70579
 Alpha  occ. eigenvalues --   -0.63168  -0.61931  -0.59122  -0.51786  -0.48285
 Alpha  occ. eigenvalues --   -0.46182  -0.44130  -0.38169
 Alpha virt. eigenvalues --    0.03640   0.04111   0.04354   0.04901   0.05924
 Alpha virt. eigenvalues --    0.08373   0.09223   0.09884   0.10527   0.11032
 Alpha virt. eigenvalues --    0.11738   0.13124   0.15468   0.15802   0.16379

 Mulliken charges:
               1
     1  O   -1.115556
     2  C    1.430619
     3  O   -0.962327
     4  C    0.186483
     5  C    0.014582
     6  C    0.249697
     7  H    0.112810
     8  H   -0.173441
     9  H   -0.068575
    10  H   -0.018828
    11  H    0.571520
    12  H   -0.226986
 Sum of Mulliken charges =  -0.00000

 Dipole moment (field-independent basis, Debye):
    X=             -0.4034    Y=             -1.4055    Z=             -0.2154  Tot=              1.4780

 Test job not archived.
 1\1\GINC-SE041\SP\RHF\Aug-CC-pVDZ\C4H6O2\OHZDE\09-Apr-2025\0\\#t hf au
 g-cc-pvdz iop(5/13=1,5/36=2,99/5=2) pseudo=read geom=check guess=(read
 ,tcheck) scf=(maxcycle=1)\\title\\0,1\O,0,1.64474462,1.26521676,-0.065
 13115\C,0,2.64003534,0.38927041,0.04555583\O,0,2.51293701,-0.78919934,
 0.21411819\C,0,-0.83994688,-0.86111302,0.21577211\C,0,-2.06380335,-0.4
 6269095,-0.55659789\C,0,-1.45840384,0.18127822,0.65482799\H,0,3.607344
 21,0.90268013,-0.03933331\H,0,-0.02757101,-1.56260938,0.3036375\H,0,-1
 .9588283,0.01073322,-1.5309037\H,0,-2.97376961,-1.04978714,-0.44819801

 Normal termination of Gaussian 16 at Wed Apr  9 17:10:11 2025.
