 Gaussian 16, Revision C.01,

 ----------------------------------------------------------------------
 #t hf aug-cc-pvdz symm=none int=(grid=ultrafine) guess=(read,tcheck) s
 table=(opt,rrhf)
 ----------------------------------------------------------------------
 -----
 title
 -----
 Symbolic Z-matrix:
 Charge =  0 Multiplicity = 1

 SCF Done:  E(RHF) =  -286.716669761     A.U. after   16 cycles
 Normal termination of Gaussian 16 at Wed Apr  9 18:43:48 2025.
 Gaussian 16:  ES64L-G16RevC.01  3-Jul-2019

 ----------------------------------------------------------------------
 #t hf aug-cc-pvdz iop(5/13=1,5/36=2,99/5=2) pseudo=read geom=check gue
 ss=(read,tcheck) scf=(maxcycle=1)
 ----------------------------------------------------------------------
 -----
 title
 -----
 Structure from the checkpoint file:  "Grambow2020_wb97xd3_008004_reverse_mol1.chk"
 Charge =  0 Multiplicity = 1

                         Standard orientation:
 ---------------------------------------------------------------------
 Center     Atomic      Atomic             Coordinates (Angstroms)
 Number     Number       Type             X           Y           Z
 ---------------------------------------------------------------------
      1          6           0        3.409988    0.485039    0.182380
      2          6           0        2.070679   -0.046045   -0.046237
      3          6           0        0.969054   -0.479787   -0.235502
      4          6           0       -0.378721   -1.014902   -0.445904
      5          6           0       -1.408910   -0.548640    0.550945
      6          6           0       -2.000365    1.264663   -0.237594
      7          7           0       -2.537798    0.088686    0.190376
      8          1           0        3.538859    1.446922   -0.316637
      9          1           0        4.170252   -0.198492   -0.199100
     10          1           0        3.591408    0.631399    1.248498
     11          1           0       -0.312838   -2.111498   -0.398278
     12          1           0       -0.721825   -0.752224   -1.449211
     13          1           0       -1.324301   -0.955071    1.560452
     14          1           0       -2.229266    1.662787   -1.222492
     15          1           0       -1.418572    1.851192    0.455791
     16          1           0       -3.499472   -0.157781    0.379819
 ---------------------------------------------------------------------

 SCF Done:  E(RHF) =  -287.024035494     A.U. after    2 cycles

 The electronic state is 1-A.
 Alpha  occ. eigenvalues --  -15.53980 -11.28293 -11.25646 -11.25433 -11.24909
 Alpha  occ. eigenvalues --  -11.21965 -11.21543  -1.27473  -1.06792  -1.01878
 Alpha  occ. eigenvalues --   -0.94008  -0.90244  -0.85036  -0.72838  -0.67829
 Alpha  occ. eigenvalues --   -0.65185  -0.63509  -0.60583  -0.59170  -0.58715
 Alpha  occ. eigenvalues --   -0.58072  -0.55523  -0.42804  -0.36936  -0.36807
 Alpha  occ. eigenvalues --   -0.27809
 Alpha virt. eigenvalues --    0.03342   0.03653   0.04466   0.04547   0.05372
 Alpha virt. eigenvalues --    0.05942   0.06350   0.06686   0.07137   0.08555
 Alpha virt. eigenvalues --    0.09573   0.12175   0.12458   0.13547   0.14093

 Mulliken charges:
               1
     1  C   -0.872821
     2  C   -0.318121
     3  C    0.601450
     4  C   -0.803365
     5  C   -0.596158
     6  C   -0.136707
     7  N    0.804205
     8  H    0.267970
     9  H    0.261122
    10  H    0.265103
    11  H    0.313291
    12  H    0.292901
    13  H   -0.120434
    14  H   -0.052196
    15  H    0.000612
    16  H    0.093150
 Sum of Mulliken charges =   0.00000

 Dipole moment (field-independent basis, Debye):
    X=             -0.6569    Y=             -0.5233    Z=              0.4076  Tot=              0.9336

 Test job not archived.
 1\1\GINC-SE174\SP\RHF\Aug-CC-pVDZ\C6H9N1\OHZDE\09-Apr-2025\0\\#t hf au
 g-cc-pvdz iop(5/13=1,5/36=2,99/5=2) pseudo=read geom=check guess=(read
 ,tcheck) scf=(maxcycle=1)\\title\\0,1\C,0,2.6307479,0.78070751,2.03538
 134\C,0,1.69932735,0.12544222,1.12370862\C,0,0.93328823,-0.41033495,0.
 37293682\C,0,-0.01375206,-1.07295654,-0.5277081\C,0,-1.46672637,-0.868
 20453,-0.18225191\C,0,-1.88276741,0.94692486,-1.07213564\N,0,-2.352692
 18,-0.33100356,-1.04077446\H,0,2.82607291,1.80765676,1.72222134\H,0,3.
 58348207,0.24961941,2.06676487\H,0,2.22572729,0.80844617,3.04836327\H,

 Normal termination of Gaussian 16 at Wed Apr  9 18:43:54 2025.
