 Gaussian 16, Revision C.01,

 ----------------------------------------------------------------------
 #t hf aug-cc-pvdz symm=none int=(grid=ultrafine) guess=(read,tcheck) s
 table=(opt,rrhf)
 ----------------------------------------------------------------------
 -----
 title
 -----
 Symbolic Z-matrix:
 Charge =  0 Multiplicity = 1

 SCF Done:  E(RHF) =  -284.705123106     A.U. after   16 cycles
 Normal termination of Gaussian 16 at Wed Apr  9 03:06:53 2025.
 Gaussian 16:  ES64L-G16RevC.01  3-Jul-2019

 ----------------------------------------------------------------------
 #t hf aug-cc-pvdz iop(5/13=1,5/36=2,99/5=2) pseudo=read geom=check gue
 ss=(read,tcheck) scf=(maxcycle=1)
 ----------------------------------------------------------------------
 -----
 title
 -----
 Structure from the checkpoint file:  "Grambow2020_b97d3_006533_forward_mol1.chk"
 Charge =  0 Multiplicity = 1

                         Standard orientation:
 ---------------------------------------------------------------------
 Center     Atomic      Atomic             Coordinates (Angstroms)
 Number     Number       Type             X           Y           Z
 ---------------------------------------------------------------------
      1          6           0        1.100476    0.860530    0.222758
      2          6           0        1.275064   -0.668622    0.142030
      3          8           0       -0.001584   -1.198111   -0.418787
      4          6           0       -1.205465   -0.668000    0.398796
      5          7           0       -1.349830    0.599784    0.135936
      6          6           0       -0.262003    1.240148   -0.366145
      7          1           0        1.124721    1.157159    1.286576
      8          1           0        1.921652    1.379458   -0.289116
      9          1           0        2.037540   -1.001433   -0.574080
     10          1           0        1.400985   -1.169379    1.103948
     11          1           0       -1.995251   -1.407362    0.285081
     12          1           0       -0.397699    2.298632   -0.593118
     13          1           0       -0.078903   -0.455006   -1.205189
 ---------------------------------------------------------------------

 SCF Done:  E(RHF) =  -284.998308990     A.U. after    2 cycles

 The electronic state is 1-A.
 Alpha  occ. eigenvalues --  -20.66120 -15.52754 -11.33067 -11.29256 -11.25736
 Alpha  occ. eigenvalues --  -11.23890  -1.54693  -1.23835  -1.06697  -0.93333
 Alpha  occ. eigenvalues --   -0.89503  -0.78244  -0.72381  -0.70562  -0.67934
 Alpha  occ. eigenvalues --   -0.61666  -0.61158  -0.58388  -0.53880  -0.52878
 Alpha  occ. eigenvalues --   -0.48829  -0.45199  -0.27839
 Alpha virt. eigenvalues --    0.03185   0.04038   0.04377   0.04503   0.06118
 Alpha virt. eigenvalues --    0.06346   0.07544   0.09183   0.10247   0.11223
 Alpha virt. eigenvalues --    0.12872   0.13581   0.14042   0.14143   0.15162

 Mulliken charges:
               1
     1  C   -0.414315
     2  C    0.498001
     3  O   -1.256693
     4  C    0.022987
     5  N    0.762430
     6  C   -0.611206
     7  H    0.228431
     8  H    0.156602
     9  H    0.023990
    10  H    0.107267
    11  H   -0.064831
    12  H   -0.124891
    13  H    0.672228
 Sum of Mulliken charges =  -0.00000

 Dipole moment (field-independent basis, Debye):
    X=              3.5440    Y=             -1.6594    Z=             -0.6426  Tot=              3.9657

 Test job not archived.
 1\1\GINC-SE188\SP\RHF\Aug-CC-pVDZ\C4H7N1O1\OHZDE\09-Apr-2025\0\\#t hf
 aug-cc-pvdz iop(5/13=1,5/36=2,99/5=2) pseudo=read geom=check guess=(re
 ad,tcheck) scf=(maxcycle=1)\\title\\0,1\C,0,0.66498771,-0.76134258,0.5
 5038006\C,0,-0.67132591,-1.06695847,-0.15401231\O,0,-1.02156369,0.1635
 457,-0.92075726\C,0,-0.98122287,1.40217213,0.00820302\N,0,0.26419248,1
 .65782318,0.29245311\C,0,1.14239949,0.63357082,0.13377488\H,0,0.492036
 05,-0.76838122,1.64140003\H,0,1.41547791,-1.53038337,0.32461258\H,0,-0
 .61155774,-1.84959126,-0.9213843\H,0,-1.51530339,-1.24347777,0.5156457

 Normal termination of Gaussian 16 at Wed Apr  9 03:06:56 2025.
