 Gaussian 16, Revision C.01,

 ----------------------------------------------------------------------
 #t hf aug-cc-pvdz symm=none int=(grid=ultrafine) guess=(read,tcheck) s
 table=(opt,rrhf)
 ----------------------------------------------------------------------
 -----
 title
 -----
 Symbolic Z-matrix:
 Charge =  0 Multiplicity = 1

 SCF Done:  E(RHF) =  -353.349070417     A.U. after   20 cycles
 Normal termination of Gaussian 16 at Wed Apr  9 18:39:15 2025.
 Gaussian 16:  ES64L-G16RevC.01  3-Jul-2019

 ----------------------------------------------------------------------
 #t hf aug-cc-pvdz iop(5/13=1,5/36=2,99/5=2) pseudo=read geom=check gue
 ss=(read,tcheck) scf=(maxcycle=1)
 ----------------------------------------------------------------------
 -----
 title
 -----
 Structure from the checkpoint file:  "Grambow2020_wb97xd3_007949_reverse_mol1.chk"
 Charge =  0 Multiplicity = 1

                         Standard orientation:
 ---------------------------------------------------------------------
 Center     Atomic      Atomic             Coordinates (Angstroms)
 Number     Number       Type             X           Y           Z
 ---------------------------------------------------------------------
      1          8           0        2.141260   -0.233000   -0.160249
      2          6           0        0.864870    0.078516   -0.047372
      3          6           0        0.269691    1.274300   -0.179926
      4          7           0       -0.898414    0.852847    0.523063
      5          7           0       -1.694354    0.178635   -0.345377
      6          6           0       -1.192873   -0.994894   -0.186979
      7          7           0        0.021870   -0.961290    0.452934
      8          1           0        2.224285   -1.147968    0.142497
      9          1           0        0.633098    2.284677   -0.239451
     10          1           0       -1.641308   -1.911582   -0.549716
 ---------------------------------------------------------------------

 SCF Done:  E(RHF) =  -353.694547736     A.U. after    2 cycles

 The electronic state is 1-A.
 Alpha  occ. eigenvalues --  -20.61496 -15.69463 -15.55444 -15.51140 -11.38365
 Alpha  occ. eigenvalues --  -11.34501 -11.26872  -1.54849  -1.43768  -1.19597
 Alpha  occ. eigenvalues --   -1.18040  -0.97891  -0.89576  -0.80760  -0.76819
 Alpha  occ. eigenvalues --   -0.74655  -0.71567  -0.68139  -0.63814  -0.61478
 Alpha  occ. eigenvalues --   -0.56928  -0.54038  -0.45612  -0.43502  -0.36159
 Alpha virt. eigenvalues --   -0.03074   0.03445   0.04403   0.05129   0.08052
 Alpha virt. eigenvalues --    0.08612   0.09219   0.09287   0.10646   0.11369
 Alpha virt. eigenvalues --    0.13159   0.13808   0.14698   0.15340   0.16524

 Mulliken charges:
               1
     1  O   -1.313695
     2  C    0.920581
     3  C    0.069218
     4  N    0.140962
     5  N    0.194948
     6  C   -0.511605
     7  N    0.294903
     8  H    0.353510
     9  H   -0.107932
    10  H   -0.040888
 Sum of Mulliken charges =  -0.00000

 Dipole moment (field-independent basis, Debye):
    X=              1.1532    Y=             -0.7143    Z=             -0.6462  Tot=              1.5025

 Test job not archived.
 1\1\GINC-SE117\SP\RHF\Aug-CC-pVDZ\C3H3N3O1\OHZDE\09-Apr-2025\0\\#t hf
 aug-cc-pvdz iop(5/13=1,5/36=2,99/5=2) pseudo=read geom=check guess=(re
 ad,tcheck) scf=(maxcycle=1)\\title\\0,1\O,0,2.03160092,-0.42513968,-0.
 07429173\C,0,0.80118238,0.0409927,0.01371117\C,0,0.35414373,1.29289325
 ,-0.17232936\N,0,-0.85938078,1.04311529,0.53566438\N,0,-1.72617407,0.4
 3388523,-0.31273282\C,0,-1.36961573,-0.7836872,-0.10266549\N,0,-0.1626
 6853,-0.86931631,0.54707673\H,0,2.00299643,-1.33032373,0.26561759\H,0,
 0.83622529,2.24933077,-0.26873531\H,0,-1.92287063,-1.65429232,-0.43273

 Normal termination of Gaussian 16 at Wed Apr  9 18:39:19 2025.
