 Gaussian 16, Revision C.01,

 ----------------------------------------------------------------------
 #t hf aug-cc-pvdz symm=none int=(grid=ultrafine) guess=(read,tcheck) s
 table=(opt,rrhf)
 ----------------------------------------------------------------------
 -----
 title
 -----
 Symbolic Z-matrix:
 Charge =  0 Multiplicity = 1

 SCF Done:  E(RHF) =  -374.474901340     A.U. after   17 cycles
 Normal termination of Gaussian 16 at Wed Apr  9 18:20:02 2025.
 Gaussian 16:  ES64L-G16RevC.01  3-Jul-2019

 ----------------------------------------------------------------------
 #t hf aug-cc-pvdz iop(5/13=1,5/36=2,99/5=2) pseudo=read geom=check gue
 ss=(read,tcheck) scf=(maxcycle=1)
 ----------------------------------------------------------------------
 -----
 title
 -----
 Structure from the checkpoint file:  "Grambow2020_wb97xd3_007332_forward_mol1.chk"
 Charge =  0 Multiplicity = 1

                         Standard orientation:
 ---------------------------------------------------------------------
 Center     Atomic      Atomic             Coordinates (Angstroms)
 Number     Number       Type             X           Y           Z
 ---------------------------------------------------------------------
      1          7           0       -1.782269   -0.883299   -0.168558
      2          6           0       -0.774491    0.051238    0.041242
      3          6           0       -1.479413    1.353211    0.173828
      4          8           0        0.280420    0.269196   -0.976826
      5          6           0        1.219349   -0.056839   -0.025278
      6          8           0        2.400126   -0.011006   -0.080687
      7          7           0        0.284418   -0.434532    0.925497
      8          1           0       -1.502924   -1.849842   -0.111178
      9          1           0       -2.418971   -0.657970   -0.914478
     10          1           0       -1.198893    1.809515    1.140898
     11          1           0        0.368711   -0.228060    1.907536
 ---------------------------------------------------------------------

 SCF Done:  E(RHF) =  -374.843012337     A.U. after    2 cycles

 The electronic state is 1-A.
 Alpha  occ. eigenvalues --  -20.60451 -20.54674 -15.55416 -15.53719 -11.42842
 Alpha  occ. eigenvalues --  -11.40403 -11.32312  -1.57640  -1.48941  -1.27523
 Alpha  occ. eigenvalues --   -1.22752  -1.01927  -0.86771  -0.86062  -0.78635
 Alpha  occ. eigenvalues --   -0.76506  -0.72695  -0.69320  -0.64686  -0.60040
 Alpha  occ. eigenvalues --   -0.59722  -0.52696  -0.49577  -0.47966  -0.46123
 Alpha  occ. eigenvalues --   -0.41562
 Alpha virt. eigenvalues --    0.01679   0.02604   0.04072   0.05002   0.05763
 Alpha virt. eigenvalues --    0.08895   0.09497   0.10322   0.10516   0.11951
 Alpha virt. eigenvalues --    0.12686   0.14368   0.15475   0.15703   0.16461

 Mulliken charges:
               1
     1  N    0.388347
     2  C   -0.615754
     3  C   -0.245307
     4  O   -1.274800
     5  C    1.426077
     6  O   -1.144861
     7  N    0.701459
     8  H    0.281307
     9  H    0.205854
    10  H    0.106300
    11  H    0.171378
 Sum of Mulliken charges =   0.00000

 Dipole moment (field-independent basis, Debye):
    X=             -2.9828    Y=             -0.9657    Z=              2.4958  Tot=              4.0073

 Test job not archived.
 1\1\GINC-SE029\SP\RHF\Aug-CC-pVDZ\C3H4N2O2\OHZDE\09-Apr-2025\0\\#t hf
 aug-cc-pvdz iop(5/13=1,5/36=2,99/5=2) pseudo=read geom=check guess=(re
 ad,tcheck) scf=(maxcycle=1)\\title\\0,1\N,0,-1.5181841,-0.26057318,-0.
 40548006\C,0,-0.28236356,0.23716713,-0.00799392\C,0,-0.58769598,1.5189
 5205,0.68006513\O,0,0.76212311,0.55926654,-1.00904634\C,0,1.59747365,-
 0.33134378,-0.37474973\O,0,2.7412462,-0.56427164,-0.56693394\N,0,0.621
 13503,-0.79942297,0.49034279\H,0,-1.52110376,-1.21117368,-0.73996786\H
 ,0,-2.08628575,0.38588878,-0.92692643\H,0,-0.16283217,1.48191441,1.699

 Normal termination of Gaussian 16 at Wed Apr  9 18:20:06 2025.
