 Gaussian 16, Revision C.01,

 ----------------------------------------------------------------------
 #t hf aug-cc-pvdz symm=none int=(grid=ultrafine) guess=(read,tcheck) s
 table=(opt,rrhf)
 ----------------------------------------------------------------------
 -----
 title
 -----
 Symbolic Z-matrix:
 Charge =  0 Multiplicity = 1

 SCF Done:  E(RHF) =  -279.715489750     A.U. after   15 cycles
 Normal termination of Gaussian 16 at Wed Apr  9 15:58:41 2025.
 Gaussian 16:  ES64L-G16RevC.01  3-Jul-2019

 ----------------------------------------------------------------------
 #t hf aug-cc-pvdz iop(5/13=1,5/36=2,99/5=2) pseudo=read geom=check gue
 ss=(read,tcheck) scf=(maxcycle=1)
 ----------------------------------------------------------------------
 -----
 title
 -----
 Structure from the checkpoint file:  "Grambow2020_b97d3_007062_forward_mol1.chk"
 Charge =  0 Multiplicity = 1

                         Standard orientation:
 ---------------------------------------------------------------------
 Center     Atomic      Atomic             Coordinates (Angstroms)
 Number     Number       Type             X           Y           Z
 ---------------------------------------------------------------------
      1          7           0        2.049982    0.004546    0.087606
      2          6           0        0.671427    0.048509   -0.001961
      3          6           0       -0.228571    1.157649   -0.032728
      4          6           0       -1.631869    0.605718   -0.105834
      5          7           0       -1.498191   -0.737838    0.004625
      6          7           0       -0.129786   -1.028449   -0.000080
      7          1           0        2.508735    0.861175   -0.208913
      8          1           0        2.502586   -0.816871   -0.307297
      9          1           0        0.053598    2.188146   -0.239280
     10          1           0       -1.058240    1.229539    0.926658
     11          1           0        0.173369   -2.001058    0.026908
 ---------------------------------------------------------------------

 SCF Done:  E(RHF) =  -279.998672081     A.U. after    2 cycles

 The electronic state is 1-A.
 Alpha  occ. eigenvalues --  -15.60060 -15.56896 -15.50762 -11.36679 -11.26538
 Alpha  occ. eigenvalues --  -11.22867  -1.36448  -1.25720  -1.11508  -1.06114
 Alpha  occ. eigenvalues --   -0.87739  -0.83708  -0.80770  -0.74150  -0.68960
 Alpha  occ. eigenvalues --   -0.64466  -0.62656  -0.55820  -0.50883  -0.45000
 Alpha  occ. eigenvalues --   -0.36339  -0.34319
 Alpha virt. eigenvalues --    0.01188   0.03493   0.04038   0.06026   0.06290
 Alpha virt. eigenvalues --    0.08924   0.09676   0.09978   0.11107   0.12420
 Alpha virt. eigenvalues --    0.12546   0.12893   0.14001   0.14831   0.16155

 Mulliken charges:
               1
     1  N    0.736250
     2  C   -1.585285
     3  C    0.364942
     4  C   -0.935695
     5  N   -0.153948
     6  N    0.791833
     7  H    0.203539
     8  H    0.045986
     9  H   -0.061781
    10  H    0.600182
    11  H   -0.006025
 Sum of Mulliken charges =  -0.00000

 Dipole moment (field-independent basis, Debye):
    X=              8.0467    Y=              0.1470    Z=             -0.3707  Tot=              8.0566

 Test job not archived.
 1\1\GINC-SE219\SP\RHF\Aug-CC-pVDZ\C3H5N3\OHZDE\09-Apr-2025\0\\#t hf au
 g-cc-pvdz iop(5/13=1,5/36=2,99/5=2) pseudo=read geom=check guess=(read
 ,tcheck) scf=(maxcycle=1)\\title\\0,1\N,0,-1.71142691,-0.15771208,0.30
 957764\C,0,-0.36992726,0.02617374,0.03221106\C,0,0.69597123,-0.9164203
 3,-0.09628697\C,0,1.96096067,-0.14082697,-0.37462828\N,0,1.61315542,1.
 16490327,-0.27812626\N,0,0.22659429,1.22122031,-0.10124559\H,0,-2.0504
 4457,-1.09201653,0.09902682\H,0,-2.34696101,0.55685431,-0.03829699\H,0
 ,0.57117212,-1.98812386,-0.23800449\H,0,1.64452808,-0.80340471,0.74121

 Normal termination of Gaussian 16 at Wed Apr  9 15:58:44 2025.
