 Gaussian 16, Revision C.01,

 ----------------------------------------------------------------------
 #t hf aug-cc-pvdz symm=none int=(grid=ultrafine) guess=(read,tcheck) s
 table=(opt,rrhf)
 ----------------------------------------------------------------------
 -----
 title
 -----
 Symbolic Z-matrix:
 Charge =  0 Multiplicity = 1

 SCF Done:  E(RHF) =  -323.917113176     A.U. after   14 cycles
 Normal termination of Gaussian 16 at Wed Apr  9 03:53:47 2025.
 Gaussian 16:  ES64L-G16RevC.01  3-Jul-2019

 ----------------------------------------------------------------------
 #t hf aug-cc-pvdz iop(5/13=1,5/36=2,99/5=2) pseudo=read geom=check gue
 ss=(read,tcheck) scf=(maxcycle=1)
 ----------------------------------------------------------------------
 -----
 title
 -----
 Structure from the checkpoint file:  "Grambow2020_wb97xd3_008340_reverse_mol2.chk"
 Charge =  0 Multiplicity = 1

                         Standard orientation:
 ---------------------------------------------------------------------
 Center     Atomic      Atomic             Coordinates (Angstroms)
 Number     Number       Type             X           Y           Z
 ---------------------------------------------------------------------
      1          7           0       -2.357124    0.051946   -0.000236
      2          6           0       -0.970169    0.119911    0.007255
      3          6           0       -0.238430    1.233817    0.114132
      4          6           0        1.263683    1.210499    0.091793
      5          6           0        1.754343   -0.159451   -0.366554
      6          6           0        0.919999   -1.239405    0.293186
      7          8           0       -0.451699   -1.130451   -0.070292
      8          1           0       -2.700831   -0.804966   -0.402776
      9          1           0       -2.807006    0.865367   -0.384397
     10          1           0       -0.757087    2.179004    0.211039
     11          1           0        1.674838    1.439276    1.082477
     12          1           0        1.647167    1.983877   -0.579788
     13          1           0        1.652547   -0.254024   -1.451272
     14          1           0        2.807819   -0.310756   -0.120761
     15          1           0        0.997476   -1.169913    1.384879
     16          1           0        1.221976   -2.240106   -0.014267
 ---------------------------------------------------------------------

 SCF Done:  E(RHF) =  -324.258176402     A.U. after    2 cycles

 The electronic state is 1-A.
 Alpha  occ. eigenvalues --  -20.56513 -15.50138 -11.32242 -11.28767 -11.22968
 Alpha  occ. eigenvalues --  -11.22839 -11.19643  -1.50243  -1.20677  -1.08356
 Alpha  occ. eigenvalues --   -1.01016  -0.90245  -0.85633  -0.75645  -0.72093
 Alpha  occ. eigenvalues --   -0.70169  -0.64679  -0.63391  -0.60134  -0.59742
 Alpha  occ. eigenvalues --   -0.56119  -0.55570  -0.49790  -0.49028  -0.46447
 Alpha  occ. eigenvalues --   -0.45016  -0.30895
 Alpha virt. eigenvalues --    0.03494   0.03865   0.04210   0.04445   0.05718
 Alpha virt. eigenvalues --    0.06358   0.06845   0.07044   0.08661   0.11607
 Alpha virt. eigenvalues --    0.12794   0.13295   0.14571   0.14710   0.15144

 Mulliken charges:
               1
     1  N    0.592057
     2  C    0.104842
     3  C    0.770024
     4  C   -0.563649
     5  C   -0.388864
     6  C    0.491427
     7  O   -1.670577
     8  H    0.080224
     9  H    0.131076
    10  H   -0.287472
    11  H    0.173220
    12  H    0.170160
    13  H    0.106679
    14  H    0.167586
    15  H    0.158523
    16  H   -0.035257
 Sum of Mulliken charges =  -0.00000

 Dipole moment (field-independent basis, Debye):
    X=              0.5964    Y=              0.0034    Z=             -0.8784  Tot=              1.0618

 Test job not archived.
 1\1\GINC-SE219\SP\RHF\Aug-CC-pVDZ\C5H9N1O1\OHZDE\09-Apr-2025\0\\#t hf
 aug-cc-pvdz iop(5/13=1,5/36=2,99/5=2) pseudo=read geom=check guess=(re
 ad,tcheck) scf=(maxcycle=1)\\title\\0,1\N,0,2.54610951,0.41384275,-0.2
 4369673\C,0,1.18936848,0.16029426,-0.09109828\C,0,0.64603031,-0.991188
 69,0.31697066\C,0,-0.84018711,-1.17900577,0.43216411\C,0,-1.56359466,-
 0.02570674,-0.25643916\C,0,-0.86607823,1.27765627,0.07882496\O,0,0.480
 68498,1.27910991,-0.38135832\H,0,2.72796929,1.19840134,-0.84856577\H,0
 ,3.09108764,-0.39533863,-0.48834138\H,0,1.30909928,-1.81108938,0.56166

 Normal termination of Gaussian 16 at Wed Apr  9 03:53:53 2025.
