 Gaussian 16, Revision C.01,

 ----------------------------------------------------------------------
 #t hf aug-cc-pvdz symm=none int=(grid=ultrafine) guess=(read,tcheck) s
 table=(opt,rrhf)
 ----------------------------------------------------------------------
 -----
 title
 -----
 Symbolic Z-matrix:
 Charge =  0 Multiplicity = 1

 SCF Done:  E(RHF) =  -270.999162192     A.U. after   16 cycles

 1\1\GINC-SE114\Stability\RHF\Aug-CC-pVDZ\C5H12O1\OHZDE\09-Apr-2025\0\\
 #t hf aug-cc-pvdz symm=none int=(grid=ultrafine) guess=(read,tcheck) s
 table=(opt,rrhf)\\title\\0,1\C,0,-2.6068401,-0.20300631,0.2072237\C,0,
 -1.38940937,0.29859843,-0.61266552\C,0,-0.15105402,0.67573569,0.164235
 4\O,0,0.32265537,-0.61800531,1.00715669\C,0,1.58205912,-0.52668705,-0.
 27987012\C,0,2.65393168,0.47928136,0.01989091\H,0,-3.44901079,-0.47496
 463,-0.44687559\H,0,-2.36918745,-1.09889149,0.80498369\H,0,-2.94754919
 ,0.57270195,0.90706122\H,0,-1.15439639,-0.45308543,-1.39144042\H,0,-1.

 Normal termination of Gaussian 16 at Wed Apr  9 15:50:09 2025.
 Gaussian 16:  ES64L-G16RevC.01  3-Jul-2019

 ----------------------------------------------------------------------
 #t hf aug-cc-pvdz iop(5/13=1,5/36=2,99/5=2) pseudo=read geom=check gue
 ss=(read,tcheck) scf=(maxcycle=1)
 ----------------------------------------------------------------------
 -----
 title
 -----
 Structure from the checkpoint file:  "Grambow2020_b97d3_006799_reverse_mol1.chk"
 Charge =  0 Multiplicity = 1

                         Standard orientation:
 ---------------------------------------------------------------------
 Center     Atomic      Atomic             Coordinates (Angstroms)
 Number     Number       Type             X           Y           Z
 ---------------------------------------------------------------------
      1          6           0       -2.663832    0.172167   -0.016283
      2          6           0       -1.437055   -0.726094    0.290490
      3          6           0       -0.185848   -0.472359   -0.515383
      4          8           0        0.257034    1.062858   -0.279482
      5          6           0        1.512914    0.162772    0.649756
      6          6           0        2.612313   -0.373311   -0.218966
      7          1           0       -3.515689   -0.072162    0.636175
      8          1           0       -2.447435    1.243050    0.134674
      9          1           0       -2.980898    0.049633   -1.061287
     10          1           0       -1.225348   -0.675666    1.376486
     11          1           0       -1.718676   -1.774679    0.096279
     12          1           0       -0.424058   -0.483024   -1.593665
     13          1           0       -0.406712    1.510513    0.298741
     14          1           0        1.817036    1.111045    1.131424
     15          1           0        1.118209   -0.524624    1.397161
     16          1           0        3.579037   -0.265985    0.310420
     17          1           0        2.429731   -1.417527   -0.487301
     18          1           0        2.687578    0.217511   -1.140934
 ---------------------------------------------------------------------

 SCF Done:  E(RHF) =  -271.293458711     A.U. after    2 cycles

 The electronic state is 1-A.
 Alpha  occ. eigenvalues --  -20.57624 -11.35014 -11.24251 -11.21761 -11.21626
 Alpha  occ. eigenvalues --  -11.20460  -1.43363  -1.04621  -1.02489  -0.88309
 Alpha  occ. eigenvalues --   -0.85388  -0.76906  -0.68062  -0.65213  -0.60916
 Alpha  occ. eigenvalues --   -0.58082  -0.57633  -0.54861  -0.54089  -0.53002
 Alpha  occ. eigenvalues --   -0.52051  -0.48281  -0.46849  -0.45291  -0.26580
 Alpha virt. eigenvalues --    0.03140   0.03617   0.03998   0.04602   0.05698
 Alpha virt. eigenvalues --    0.06181   0.06343   0.07022   0.08356   0.08658
 Alpha virt. eigenvalues --    0.09377   0.10094   0.11985   0.13260   0.13772

 Mulliken charges:
               1
     1  C   -0.377191
     2  C   -0.501115
     3  C    0.374741
     4  O   -1.220500
     5  C    0.324418
     6  C   -0.407711
     7  H    0.121845
     8  H    0.093275
     9  H    0.165380
    10  H    0.071406
    11  H    0.223156
    12  H   -0.164892
    13  H    0.492280
    14  H   -0.077444
    15  H    0.261658
    16  H    0.177102
    17  H    0.207258
    18  H    0.236334
 Sum of Mulliken charges =  -0.00000

 Dipole moment (field-independent basis, Debye):
    X=              1.1418    Y=              0.9915    Z=              2.0227  Tot=              2.5255

 Test job not archived.
 1\1\GINC-SE114\SP\RHF\Aug-CC-pVDZ\C5H12O1\OHZDE\09-Apr-2025\0\\#t hf a
 ug-cc-pvdz iop(5/13=1,5/36=2,99/5=2) pseudo=read geom=check guess=(rea
 d,tcheck) scf=(maxcycle=1)\\title\\0,1\C,0,-2.6068401,-0.20300631,0.20
 72237\C,0,-1.38940937,0.29859843,-0.61266552\C,0,-0.15105402,0.6757356
 9,0.1642354\O,0,0.32265537,-0.61800531,1.00715669\C,0,1.58205912,-0.52
 668705,-0.27987012\C,0,2.65393168,0.47928136,0.01989091\H,0,-3.4490107
 9,-0.47496463,-0.44687559\H,0,-2.36918745,-1.09889149,0.80498369\H,0,-
 2.94754919,0.57270195,0.90706122\H,0,-1.15439639,-0.45308543,-1.391440

 Normal termination of Gaussian 16 at Wed Apr  9 15:50:15 2025.
