 Gaussian 16, Revision C.01,

 ----------------------------------------------------------------------
 #t hf aug-cc-pvdz symm=none int=(grid=ultrafine) guess=(read,tcheck) s
 table=(opt,rrhf)
 ----------------------------------------------------------------------
 -----
 title
 -----
 Symbolic Z-matrix:
 Charge =  0 Multiplicity = 1

 SCF Done:  E(RHF) =  -322.691747247     A.U. after   15 cycles
 Normal termination of Gaussian 16 at Wed Apr  9 03:33:47 2025.
 Gaussian 16:  ES64L-G16RevC.01  3-Jul-2019

 ----------------------------------------------------------------------
 #t hf aug-cc-pvdz iop(5/13=1,5/36=2,99/5=2) pseudo=read geom=check gue
 ss=(read,tcheck) scf=(maxcycle=1)
 ----------------------------------------------------------------------
 -----
 title
 -----
 Structure from the checkpoint file:  "Grambow2020_wb97xd3_007024_reverse_mol2.chk"
 Charge =  0 Multiplicity = 1

                         Standard orientation:
 ---------------------------------------------------------------------
 Center     Atomic      Atomic             Coordinates (Angstroms)
 Number     Number       Type             X           Y           Z
 ---------------------------------------------------------------------
      1          6           0        1.919912   -1.329095    0.020706
      2          6           0        0.693109   -0.537596   -0.357367
      3          6           0       -0.297769   -0.038437    0.737160
      4          6           0       -1.750614   -0.089933    0.462931
      5          7           0       -2.205850   -0.502992   -0.641810
      6          6           0        0.573609    0.877247   -0.060161
      7          8           0        0.920063    2.000696   -0.225258
      8          1           0        1.660249   -2.373841    0.198026
      9          1           0        2.382557   -0.932401    0.926328
     10          1           0        2.662046   -1.289608   -0.777456
     11          1           0        0.156681   -0.855125   -1.249346
     12          1           0       -0.002005   -0.166171    1.774610
     13          1           0       -2.388968    0.280695    1.271880
     14          1           0       -3.219594   -0.441279   -0.668924
 ---------------------------------------------------------------------

 SCF Done:  E(RHF) =  -323.021272595     A.U. after    2 cycles

 The electronic state is 1-A.
 Alpha  occ. eigenvalues --  -20.56128 -15.50432 -11.35941 -11.30937 -11.26412
 Alpha  occ. eigenvalues --  -11.26177 -11.25044  -1.49494  -1.23911  -1.17030
 Alpha  occ. eigenvalues --   -0.99734  -0.91150  -0.79751  -0.74382  -0.73193
 Alpha  occ. eigenvalues --   -0.68579  -0.66249  -0.62782  -0.59195  -0.57438
 Alpha  occ. eigenvalues --   -0.54652  -0.52372  -0.50811  -0.48205  -0.44154
 Alpha  occ. eigenvalues --   -0.37766
 Alpha virt. eigenvalues --    0.03013   0.03670   0.03911   0.05173   0.05744
 Alpha virt. eigenvalues --    0.06214   0.07986   0.08768   0.09630   0.11263
 Alpha virt. eigenvalues --    0.11598   0.12094   0.12730   0.13324   0.13767

 Mulliken charges:
               1
     1  C   -0.574591
     2  C    0.194007
     3  C    0.312405
     4  C   -0.980791
     5  N    0.726903
     6  C    1.104445
     7  O   -1.230829
     8  H    0.200638
     9  H    0.147494
    10  H    0.212214
    11  H    0.027884
    12  H   -0.089742
    13  H   -0.178163
    14  H    0.128128
 Sum of Mulliken charges =  -0.00000

 Dipole moment (field-independent basis, Debye):
    X=             -0.8105    Y=             -2.2009    Z=              2.3520  Tot=              3.3216

 Test job not archived.
 1\1\GINC-SE054\SP\RHF\Aug-CC-pVDZ\C5H7N1O1\OHZDE\09-Apr-2025\0\\#t hf
 aug-cc-pvdz iop(5/13=1,5/36=2,99/5=2) pseudo=read geom=check guess=(re
 ad,tcheck) scf=(maxcycle=1)\\title\\0,1\C,0,-1.91750375,0.79333762,-0.
 04891434\C,0,-0.67485306,0.01070952,-0.39208689\C,0,0.47592932,-0.1470
 4969,0.64704673\C,0,1.87715015,-0.07436798,0.17810178\N,0,2.16363635,0
 .08629041,-1.04272843\C,0,-0.39361907,-1.2801215,0.20712498\O,0,-0.652
 7181,-2.42921883,0.35500715\H,0,-1.73568688,1.86385305,-0.15522117\H,0
 ,-2.23555517,0.5998998,0.97723505\H,0,-2.73922543,0.51646122,-0.710350

 Normal termination of Gaussian 16 at Wed Apr  9 03:33:52 2025.
