 Gaussian 16, Revision C.01,

 ----------------------------------------------------------------------
 #t hf aug-cc-pvdz symm=none int=(grid=ultrafine) guess=(read,tcheck) s
 table=(opt,rrhf)
 ----------------------------------------------------------------------
 -----
 title
 -----
 Symbolic Z-matrix:
 Charge =  0 Multiplicity = 1

 SCF Done:  E(RHF) =  -318.704287704     A.U. after   17 cycles
 Normal termination of Gaussian 16 at Wed Apr  9 18:40:36 2025.
 Gaussian 16:  ES64L-G16RevC.01  3-Jul-2019

 ----------------------------------------------------------------------
 #t hf aug-cc-pvdz iop(5/13=1,5/36=2,99/5=2) pseudo=read geom=check gue
 ss=(read,tcheck) scf=(maxcycle=1)
 ----------------------------------------------------------------------
 -----
 title
 -----
 Structure from the checkpoint file:  "Grambow2020_wb97xd3_007955_forward_mol1.chk"
 Charge =  0 Multiplicity = 1

                         Standard orientation:
 ---------------------------------------------------------------------
 Center     Atomic      Atomic             Coordinates (Angstroms)
 Number     Number       Type             X           Y           Z
 ---------------------------------------------------------------------
      1          6           0        2.597741    0.036329   -0.141666
      2          6           0        1.326626   -0.007245    0.647490
      3          6           0       -0.085169    0.842290   -0.476694
      4          6           0       -1.387196    1.045792    0.020522
      5          7           0       -1.923029   -0.165603    0.194304
      6          7           0       -1.097501   -1.154403   -0.060569
      7          7           0        0.013317   -0.551616   -0.490394
      8          1           0        3.436762   -0.084146    0.551298
      9          1           0        2.631592   -0.773961   -0.867317
     10          1           0        2.698465    0.984279   -0.664161
     11          1           0        1.207352   -0.921026    1.226032
     12          1           0        1.189948    0.848284    1.302966
     13          1           0       -1.951859    1.943672    0.210665
     14          1           0       -2.873775   -0.398745    0.439212
 ---------------------------------------------------------------------

 SCF Done:  E(RHF) =  -319.033188188     A.U. after    2 cycles

 The electronic state is 1-A.
 Alpha  occ. eigenvalues --  -15.63033 -15.56099 -15.54299 -11.31988 -11.27365
 Alpha  occ. eigenvalues --  -11.23137 -11.21967  -1.44003  -1.22493  -1.11002
 Alpha  occ. eigenvalues --   -1.04102  -0.91191  -0.87555  -0.84270  -0.77203
 Alpha  occ. eigenvalues --   -0.69027  -0.66567  -0.64259  -0.59255  -0.55841
 Alpha  occ. eigenvalues --   -0.55586  -0.52539  -0.48539  -0.47501  -0.36441
 Alpha  occ. eigenvalues --   -0.34903
 Alpha virt. eigenvalues --    0.02739   0.03744   0.04280   0.05029   0.05156
 Alpha virt. eigenvalues --    0.05677   0.07026   0.07579   0.09996   0.11087
 Alpha virt. eigenvalues --    0.11357   0.12625   0.13778   0.14072   0.15156

 Mulliken charges:
               1
     1  C   -0.318332
     2  C   -0.122002
     3  C   -0.601304
     4  C   -0.076022
     5  N    0.585338
     6  N   -0.248793
     7  N   -0.062279
     8  H    0.175215
     9  H    0.216496
    10  H    0.185702
    11  H    0.117228
    12  H    0.191233
    13  H   -0.073709
    14  H    0.031228
 Sum of Mulliken charges =  -0.00000

 Dipole moment (field-independent basis, Debye):
    X=             -1.5042    Y=              1.5289    Z=              3.2233  Tot=              3.8717

 Test job not archived.
 1\1\GINC-SE135\SP\RHF\Aug-CC-pVDZ\C4H7N3\OHZDE\09-Apr-2025\0\\#t hf au
 g-cc-pvdz iop(5/13=1,5/36=2,99/5=2) pseudo=read geom=check guess=(read
 ,tcheck) scf=(maxcycle=1)\\title\\0,1\C,0,-2.15822196,0.69018833,0.125
 41927\C,0,-1.05698529,-0.3197456,0.03761153\C,0,0.48739872,0.57946983,
 -0.848367\C,0,1.65894558,-0.13368094,-1.16899866\N,0,2.22363084,-0.481
 24736,-0.00920422\N,0,1.52049738,-0.14429258,1.04732138\N,0,0.47602579
 ,0.52020172,0.54777804\H,0,-3.10348137,0.15642593,0.26772817\H,0,-2.00
 754834,1.35542152,0.97338632\H,0,-2.21537635,1.28288872,-0.78408282\H,

 Normal termination of Gaussian 16 at Wed Apr  9 18:40:40 2025.
