 Gaussian 16, Revision C.01,

 ----------------------------------------------------------------------
 #t hf aug-cc-pvdz symm=none int=(grid=ultrafine) guess=(read,tcheck) s
 table=(opt,rrhf)
 ----------------------------------------------------------------------
 -----
 title
 -----
 Symbolic Z-matrix:
 Charge =  0 Multiplicity = 1

 SCF Done:  E(RHF) =  -359.631839575     A.U. after   15 cycles
 Normal termination of Gaussian 16 at Wed Apr  9 18:17:42 2025.
 Gaussian 16:  ES64L-G16RevC.01  3-Jul-2019

 ----------------------------------------------------------------------
 #t hf aug-cc-pvdz iop(5/13=1,5/36=2,99/5=2) pseudo=read geom=check gue
 ss=(read,tcheck) scf=(maxcycle=1)
 ----------------------------------------------------------------------
 -----
 title
 -----
 Structure from the checkpoint file:  "Grambow2020_wb97xd3_007283_forward_mol1.chk"
 Charge =  0 Multiplicity = 1

                         Standard orientation:
 ---------------------------------------------------------------------
 Center     Atomic      Atomic             Coordinates (Angstroms)
 Number     Number       Type             X           Y           Z
 ---------------------------------------------------------------------
      1          8           0       -1.604624   -1.213186   -0.151870
      2          6           0       -0.454884   -0.660690    0.404986
      3          6           0        0.828868   -1.220850   -0.188189
      4          7           0        1.807281   -0.146870    0.034860
      5          6           0        1.011200    1.207447    0.001179
      6          6           0       -0.356133    0.843525    0.069990
      7          8           0       -1.369551    1.500444   -0.095653
      8          1           0       -2.199377   -0.460409   -0.293415
      9          1           0       -0.458225   -0.776922    1.499836
     10          1           0        1.167554   -2.155306    0.257006
     11          1           0        0.675196   -1.350927   -1.264835
     12          1           0        2.633332   -0.137797   -0.542701
     13          1           0        1.435778    1.997594   -0.596758
     14          1           0        1.713865    0.597200    0.949235
 ---------------------------------------------------------------------

 SCF Done:  E(RHF) =  -360.000525534     A.U. after    2 cycles

 The electronic state is 1-A.
 Alpha  occ. eigenvalues --  -20.55151 -20.51218 -15.57995 -11.32682 -11.30238
 Alpha  occ. eigenvalues --  -11.29868 -11.25586  -1.47441  -1.43857  -1.29384
 Alpha  occ. eigenvalues --   -1.04557  -1.01218  -0.85805  -0.80296  -0.77717
 Alpha  occ. eigenvalues --   -0.70933  -0.68549  -0.67508  -0.63068  -0.60288
 Alpha  occ. eigenvalues --   -0.59115  -0.54149  -0.53635  -0.50106  -0.45544
 Alpha  occ. eigenvalues --   -0.40000  -0.33881
 Alpha virt. eigenvalues --    0.01965   0.03839   0.04403   0.05056   0.05597
 Alpha virt. eigenvalues --    0.06243   0.07090   0.08967   0.09949   0.11799
 Alpha virt. eigenvalues --    0.13262   0.13421   0.14799   0.15112   0.15315

 Mulliken charges:
               1
     1  O   -1.342313
     2  C    0.749667
     3  C   -0.322097
     4  N    0.176468
     5  C   -0.633420
     6  C    1.479168
     7  O   -1.478353
     8  H    0.268793
     9  H    0.222363
    10  H    0.096949
    11  H    0.102009
    12  H    0.204057
    13  H   -0.129421
    14  H    0.606129
 Sum of Mulliken charges =  -0.00000

 Dipole moment (field-independent basis, Debye):
    X=              4.9272    Y=             -1.9204    Z=             -0.2733  Tot=              5.2953

 Test job not archived.
 1\1\GINC-SE220\SP\RHF\Aug-CC-pVDZ\C4H7N1O2\OHZDE\09-Apr-2025\0\\#t hf
 aug-cc-pvdz iop(5/13=1,5/36=2,99/5=2) pseudo=read geom=check guess=(re
 ad,tcheck) scf=(maxcycle=1)\\title\\0,1\O,0,2.19248131,-0.00945308,0.1
 8640425\C,0,0.81772231,0.00645284,0.40326413\C,0,0.12154177,1.19529858
 ,-0.24143376\N,0,-1.25542566,0.72073844,-0.4394991\C,0,-1.17330773,-0.
 83262592,-0.66169818\C,0,0.14329452,-1.19841672,-0.28816488\O,0,0.7583
 5714,-2.24027719,-0.43723256\H,0,2.39986796,-0.93171251,-0.03008833\H,
 0,0.59315264,-0.03611425,1.48028498\H,0,0.13743728,2.1094262,0.3503710

 Normal termination of Gaussian 16 at Wed Apr  9 18:17:47 2025.
