 Gaussian 16, Revision C.01,

 ----------------------------------------------------------------------
 #t hf aug-cc-pvdz symm=none int=(grid=ultrafine) guess=(read,tcheck) s
 table=(opt,rrhf)
 ----------------------------------------------------------------------
 -----
 title
 -----
 Symbolic Z-matrix:
 Charge =  0 Multiplicity = 1

 SCF Done:  E(RHF) =  -358.413702251     A.U. after   17 cycles
 Normal termination of Gaussian 16 at Wed Apr  9 03:40:14 2025.
 Gaussian 16:  ES64L-G16RevC.01  3-Jul-2019

 ----------------------------------------------------------------------
 #t hf aug-cc-pvdz iop(5/13=1,5/36=2,99/5=2) pseudo=read geom=check gue
 ss=(read,tcheck) scf=(maxcycle=1)
 ----------------------------------------------------------------------
 -----
 title
 -----
 Structure from the checkpoint file:  "Grambow2020_wb97xd3_007450_forward_mol1.chk"
 Charge =  0 Multiplicity = 1

                         Standard orientation:
 ---------------------------------------------------------------------
 Center     Atomic      Atomic             Coordinates (Angstroms)
 Number     Number       Type             X           Y           Z
 ---------------------------------------------------------------------
      1          8           0       -2.477757   -0.436766   -0.109380
      2          6           0       -1.623527    0.659365    0.067894
      3          6           0       -0.168704    0.311725    0.007661
      4          7           0        0.202168   -0.930929    0.040672
      5          8           0        1.546589   -0.992972   -0.010700
      6          6           0        1.995197    0.329786   -0.039446
      7          6           0        0.929489    1.265888   -0.123285
      8          1           0       -2.058412   -1.220238    0.255898
      9          1           0       -1.838519    1.387594   -0.717080
     10          1           0       -1.806111    1.166138    1.026242
     11          1           0        3.013861    0.431604   -0.391751
     12          1           0        1.928616    0.788723    1.025684
 ---------------------------------------------------------------------

 SCF Done:  E(RHF) =  -358.771284671     A.U. after    2 cycles

 The electronic state is 1-A.
 Alpha  occ. eigenvalues --  -20.64308 -20.55742 -15.61154 -11.34228 -11.30813
 Alpha  occ. eigenvalues --  -11.30117 -11.28844  -1.60177  -1.46629  -1.21683
 Alpha  occ. eigenvalues --   -1.12305  -0.98437  -0.86510  -0.82854  -0.75583
 Alpha  occ. eigenvalues --   -0.72430  -0.67328  -0.63896  -0.63622  -0.60195
 Alpha  occ. eigenvalues --   -0.55415  -0.53441  -0.51509  -0.46652  -0.43235
 Alpha  occ. eigenvalues --   -0.41375
 Alpha virt. eigenvalues --    0.02453   0.03458   0.04140   0.04841   0.05749
 Alpha virt. eigenvalues --    0.06276   0.07963   0.08400   0.10967   0.12701
 Alpha virt. eigenvalues --    0.13265   0.13455   0.13986   0.15095   0.15388

 Mulliken charges:
               1
     1  O   -1.204050
     2  C    0.994958
     3  C   -1.118610
     4  N    1.600719
     5  O   -1.477079
     6  C    0.601825
     7  C   -0.745639
     8  H    0.332738
     9  H    0.171195
    10  H    0.243299
    11  H    0.107197
    12  H    0.493446
 Sum of Mulliken charges =  -0.00000

 Dipole moment (field-independent basis, Debye):
    X=              2.3684    Y=              0.7492    Z=              1.1353  Tot=              2.7312

 Test job not archived.
 1\1\GINC-SE184\SP\RHF\Aug-CC-pVDZ\C4H5N1O2\OHZDE\09-Apr-2025\0\\#t hf
 aug-cc-pvdz iop(5/13=1,5/36=2,99/5=2) pseudo=read geom=check guess=(re
 ad,tcheck) scf=(maxcycle=1)\\title\\0,1\O,0,-2.40395366,0.75966206,-0.
 34871232\C,0,-1.61799186,-0.26781993,0.18904481\C,0,-0.14513281,-0.014
 00942,0.10385928\N,0,0.30347944,0.95589095,-0.6315752\O,0,1.64834022,0
 .97823245,-0.56225733\C,0,2.0125422,-0.09430197,0.25553848\C,0,0.88911
 125,-0.7564577,0.81989859\H,0,-1.93140024,1.16121111,-1.08257682\H,0,-
 1.88872203,-0.38742678,1.24029288\H,0,-1.81929848,-1.23177486,-0.29968

 Normal termination of Gaussian 16 at Wed Apr  9 03:40:18 2025.
