 Gaussian 16, Revision C.01,

 ----------------------------------------------------------------------
 #t hf aug-cc-pvdz symm=none int=(grid=ultrafine) guess=(read,tcheck) s
 table=(opt,rrhf)
 ----------------------------------------------------------------------
 -----
 title
 -----
 Symbolic Z-matrix:
 Charge =  0 Multiplicity = 1

 SCF Done:  E(RHF) =  -317.606584375     A.U. after   15 cycles
 Normal termination of Gaussian 16 at Wed Apr  9 18:42:20 2025.
 Gaussian 16:  ES64L-G16RevC.01  3-Jul-2019

 ----------------------------------------------------------------------
 #t hf aug-cc-pvdz iop(5/13=1,5/36=2,99/5=2) pseudo=read geom=check gue
 ss=(read,tcheck) scf=(maxcycle=1)
 ----------------------------------------------------------------------
 -----
 title
 -----
 Structure from the checkpoint file:  "Grambow2020_wb97xd3_007988_reverse_mol2.chk"
 Charge =  0 Multiplicity = 1

                         Standard orientation:
 ---------------------------------------------------------------------
 Center     Atomic      Atomic             Coordinates (Angstroms)
 Number     Number       Type             X           Y           Z
 ---------------------------------------------------------------------
      1          7           0       -2.099577    0.029828   -0.470508
      2          6           0       -0.760345    0.032009   -0.125110
      3          7           0        0.150767   -1.056728    0.263123
      4          6           0        1.453601   -0.758877   -0.272914
      5          6           0        1.593391    0.551919   -0.401139
      6          6           0        0.287374    1.067667    0.080591
      7          7           0       -0.211042    0.132242    1.156494
      8          1           0       -2.649389   -0.559184    0.138953
      9          1           0       -2.260328   -0.197914   -1.439512
     10          1           0        2.121655   -1.578051   -0.487019
     11          1           0        2.430434    1.130193   -0.756217
     12          1           0        0.032468    2.111251    0.211461
 ---------------------------------------------------------------------

 SCF Done:  E(RHF) =  -317.936596225     A.U. after    2 cycles

 The electronic state is 1-A.
 Alpha  occ. eigenvalues --  -15.55149 -15.54474 -15.51910 -11.33800 -11.29536
 Alpha  occ. eigenvalues --  -11.27094 -11.24597  -1.42412  -1.21375  -1.11668
 Alpha  occ. eigenvalues --   -1.05833  -0.86966  -0.83067  -0.81212  -0.75260
 Alpha  occ. eigenvalues --   -0.72211  -0.69025  -0.61723  -0.57682  -0.56476
 Alpha  occ. eigenvalues --   -0.53326  -0.48941  -0.48559  -0.45898  -0.35718
 Alpha virt. eigenvalues --    0.03149   0.03942   0.04436   0.04889   0.05975
 Alpha virt. eigenvalues --    0.08664   0.09851   0.10544   0.11492   0.12335
 Alpha virt. eigenvalues --    0.12421   0.13839   0.13975   0.14728   0.15506

 Mulliken charges:
               1
     1  N    0.900744
     2  C   -2.325171
     3  N    0.288529
     4  C   -0.085129
     5  C    0.485301
     6  C    0.216658
     7  N    0.366354
     8  H    0.282594
     9  H    0.243679
    10  H   -0.094404
    11  H   -0.130957
    12  H   -0.148198
 Sum of Mulliken charges =  -0.00000

 Dipole moment (field-independent basis, Debye):
    X=              0.1690    Y=              0.9990    Z=             -2.9926  Tot=              3.1594

 Test job not archived.
 1\1\GINC-SE103\SP\RHF\Aug-CC-pVDZ\C4H5N3\OHZDE\09-Apr-2025\0\\#t hf au
 g-cc-pvdz iop(5/13=1,5/36=2,99/5=2) pseudo=read geom=check guess=(read
 ,tcheck) scf=(maxcycle=1)\\title\\0,1\N,0,2.13281624,0.25339535,0.0897
 5189\C,0,0.7711292,0.10772158,-0.10372351\N,0,-0.02355092,-0.99523247,
 -0.66779328\C,0,-1.26504394,-1.06559068,0.05827153\C,0,-1.56836399,0.1
 3076907,0.53878278\C,0,-0.43064276,0.96535058,0.07747415\N,0,0.0353917
 8,0.41863738,-1.25102968\H,0,2.66716514,-0.06654884,-0.705722\H,0,2.46
 113549,-0.17074372,0.94356006\H,0,-1.77336703,-2.0149268,0.11786317\H,

 Normal termination of Gaussian 16 at Wed Apr  9 18:42:25 2025.
