 Gaussian 16, Revision C.01,

 ----------------------------------------------------------------------
 #t hf aug-cc-pvdz symm=none int=(grid=ultrafine) guess=(read,tcheck) s
 table=(opt,rrhf)
 ----------------------------------------------------------------------
 -----
 title
 -----
 Symbolic Z-matrix:
 Charge =  0 Multiplicity = 1

 SCF Done:  E(RHF) =  -302.643324524     A.U. after   17 cycles
 Normal termination of Gaussian 16 at Wed Apr  9 18:45:44 2025.
 Gaussian 16:  ES64L-G16RevC.01  3-Jul-2019

 ----------------------------------------------------------------------
 #t hf aug-cc-pvdz iop(5/13=1,5/36=2,99/5=2) pseudo=read geom=check gue
 ss=(read,tcheck) scf=(maxcycle=1)
 ----------------------------------------------------------------------
 -----
 title
 -----
 Structure from the checkpoint file:  "Grambow2020_wb97xd3_008036_reverse_mol1.chk"
 Charge =  0 Multiplicity = 1

                         Standard orientation:
 ---------------------------------------------------------------------
 Center     Atomic      Atomic             Coordinates (Angstroms)
 Number     Number       Type             X           Y           Z
 ---------------------------------------------------------------------
      1          6           0        1.034284   -1.670801   -0.365657
      2          6           0        1.076842   -0.349469    0.227838
      3          6           0        1.108776    1.051026   -0.582803
      4          7           0        0.295219    1.763086    0.299175
      5          6           0       -0.274846   -0.384013    0.903500
      6          6           0       -1.461292   -0.201146    0.119641
      7          7           0       -2.404863   -0.132981   -0.536726
      8          1           0        0.237638   -1.862210   -1.080486
      9          1           0        1.911281   -2.305413   -0.482682
     10          1           0       -0.068548   -1.706692    0.779075
     11          1           0        1.836211   -0.258321    1.000310
     12          1           0        0.738102    0.905287   -1.602240
     13          1           0        2.143170    1.397365   -0.598529
     14          1           0       -0.596860    1.973872   -0.140921
     15          1           0       -0.336071   -0.228196    1.973213
 ---------------------------------------------------------------------

 SCF Done:  E(RHF) =  -302.952281457     A.U. after    2 cycles

 The electronic state is 1-A.
 Alpha  occ. eigenvalues --  -15.51119 -15.49300 -11.32985 -11.32190 -11.28948
 Alpha  occ. eigenvalues --  -11.28695 -11.27445  -1.24280  -1.20055  -1.12342
 Alpha  occ. eigenvalues --   -0.98957  -0.90841  -0.83218  -0.73353  -0.70974
 Alpha  occ. eigenvalues --   -0.68092  -0.65237  -0.61380  -0.60415  -0.57923
 Alpha  occ. eigenvalues --   -0.55248  -0.52384  -0.49845  -0.45820  -0.43637
 Alpha  occ. eigenvalues --   -0.31551
 Alpha virt. eigenvalues --   -0.02970   0.02352   0.03423   0.04030   0.04414
 Alpha virt. eigenvalues --    0.06209   0.06485   0.06809   0.07464   0.09197
 Alpha virt. eigenvalues --    0.10924   0.12318   0.13573   0.13814   0.14067

 Mulliken charges:
               1
     1  C   -0.038874
     2  C    0.121151
     3  C   -0.679904
     4  N    0.220454
     5  C   -0.097504
     6  C   -1.662717
     7  N    1.035256
     8  H    0.126167
     9  H   -0.059736
    10  H    0.696642
    11  H    0.098140
    12  H    0.077040
    13  H    0.026181
    14  H    0.228598
    15  H   -0.090893
 Sum of Mulliken charges =  -0.00000

 Dipole moment (field-independent basis, Debye):
    X=              4.7047    Y=             -4.7468    Z=              0.3194  Tot=              6.6909

 Test job not archived.
 1\1\GINC-SE103\SP\RHF\Aug-CC-pVDZ\C5H8N2\OHZDE\09-Apr-2025\0\\#t hf au
 g-cc-pvdz iop(5/13=1,5/36=2,99/5=2) pseudo=read geom=check guess=(read
 ,tcheck) scf=(maxcycle=1)\\title\\0,1\C,0,1.57848429,-0.29723166,-0.60
 182312\C,0,0.63084742,0.41309401,0.23327457\C,0,-0.55247876,1.38354045
 ,-0.29352567\N,0,-1.49963797,1.01074228,0.66078015\C,0,-0.07481701,-0.
 79114154,0.81346955\C,0,-1.02614692,-1.50574024,0.01356428\N,0,-1.7256
 1394,-2.11388436,-0.66958826\H,0,1.16550518,-0.93039096,-1.38337327\H,
 0,2.59348524,0.05009914,-0.78806328\H,0,1.07930951,-1.37826221,0.45180

 Normal termination of Gaussian 16 at Wed Apr  9 18:45:50 2025.
