 Gaussian 16, Revision C.01,

 ----------------------------------------------------------------------
 #t hf aug-cc-pvdz symm=none int=(grid=ultrafine) guess=(read,tcheck) s
 table=(opt,rrhf)
 ----------------------------------------------------------------------
 -----
 title
 -----
 Symbolic Z-matrix:
 Charge =  0 Multiplicity = 1

 SCF Done:  E(RHF) =  -317.644137730     A.U. after   17 cycles
 Normal termination of Gaussian 16 at Wed Apr  9 18:47:24 2025.
 Gaussian 16:  ES64L-G16RevC.01  3-Jul-2019

 ----------------------------------------------------------------------
 #t hf aug-cc-pvdz iop(5/13=1,5/36=2,99/5=2) pseudo=read geom=check gue
 ss=(read,tcheck) scf=(maxcycle=1)
 ----------------------------------------------------------------------
 -----
 title
 -----
 Structure from the checkpoint file:  "Grambow2020_wb97xd3_008065_forward_mol1.chk"
 Charge =  0 Multiplicity = 1

                         Standard orientation:
 ---------------------------------------------------------------------
 Center     Atomic      Atomic             Coordinates (Angstroms)
 Number     Number       Type             X           Y           Z
 ---------------------------------------------------------------------
      1          7           0       -3.093191   -0.222866   -0.387025
      2          6           0       -2.004589   -0.228015   -0.003287
      3          6           0       -0.662927   -0.228489    0.439788
      4          6           0        1.745365   -1.247729   -0.026712
      5          7           0        2.072045   -0.039203   -0.352174
      6          6           0        1.350400    1.016123   -0.038228
      7          7           0        0.043199    0.936298    0.211669
      8          1           0       -0.446095   -0.796858    1.324446
      9          1           0        1.305038   -1.516622    0.920998
     10          1           0        2.142341   -2.057750   -0.631959
     11          1           0        1.764499    2.007514   -0.163025
     12          1           0       -0.489650    1.772780    0.012890
 ---------------------------------------------------------------------

 SCF Done:  E(RHF) =  -317.963718631     A.U. after    2 cycles

 The electronic state is 1-A.
 Alpha  occ. eigenvalues --  -15.60944 -15.54090 -15.48407 -11.36297 -11.33934
 Alpha  occ. eigenvalues --  -11.27540 -11.26037  -1.35278  -1.26028  -1.20745
 Alpha  occ. eigenvalues --   -1.05227  -0.97007  -0.85873  -0.82735  -0.76570
 Alpha  occ. eigenvalues --   -0.70615  -0.70109  -0.64568  -0.61180  -0.57719
 Alpha  occ. eigenvalues --   -0.53238  -0.51062  -0.48199  -0.46593  -0.30474
 Alpha virt. eigenvalues --    0.01878   0.02262   0.03734   0.04422   0.05048
 Alpha virt. eigenvalues --    0.06583   0.07110   0.08330   0.09543   0.09942
 Alpha virt. eigenvalues --    0.11512   0.12725   0.13358   0.13803   0.15107

 Mulliken charges:
               1
     1  N    0.875672
     2  C   -2.136981
     3  C    0.471423
     4  C   -0.251285
     5  N    0.698678
     6  C   -0.543844
     7  N    0.695637
     8  H   -0.115315
     9  H    0.182331
    10  H    0.002688
    11  H   -0.078597
    12  H    0.199595
 Sum of Mulliken charges =  -0.00000

 Dipole moment (field-independent basis, Debye):
    X=              5.9831    Y=              1.2142    Z=              2.1497  Tot=              6.4725

 Test job not archived.
 1\1\GINC-SE229\SP\RHF\Aug-CC-pVDZ\C4H5N3\OHZDE\09-Apr-2025\0\\#t hf au
 g-cc-pvdz iop(5/13=1,5/36=2,99/5=2) pseudo=read geom=check guess=(read
 ,tcheck) scf=(maxcycle=1)\\title\\0,1\N,0,3.2968881,-0.35578428,0.9234
 6821\C,0,2.27797554,-0.21202689,0.40051002\C,0,1.0175093,-0.04082405,-
 0.21454132\C,0,-1.36963098,-1.15645855,-0.55108503\N,0,-1.80999447,-0.
 16307844,0.15066838\C,0,-1.11294136,0.93082401,0.37547739\N,0,0.219126
 81,0.94999565,0.32233929\H,0,0.96532206,-0.22804811,-1.27043091\H,0,-0
 .78103395,-1.04404287,-1.44844897\H,0,-1.80274875,-2.13543739,-0.36653

 Normal termination of Gaussian 16 at Wed Apr  9 18:47:28 2025.
