 Gaussian 16, Revision C.01,

 ----------------------------------------------------------------------
 #t hf aug-cc-pvdz symm=none int=(grid=ultrafine) guess=(read,tcheck) s
 table=(opt,rrhf)
 ----------------------------------------------------------------------
 -----
 title
 -----
 Symbolic Z-matrix:
 Charge =  0 Multiplicity = 1

 SCF Done:  E(RHF) =  -268.861099314     A.U. after   13 cycles
 Normal termination of Gaussian 16 at Wed Apr  9 15:58:55 2025.
 Gaussian 16:  ES64L-G16RevC.01  3-Jul-2019

 ----------------------------------------------------------------------
 #t hf aug-cc-pvdz iop(5/13=1,5/36=2,99/5=2) pseudo=read geom=check gue
 ss=(read,tcheck) scf=(maxcycle=1)
 ----------------------------------------------------------------------
 -----
 title
 -----
 Structure from the checkpoint file:  "Grambow2020_b97d3_007069_forward_mol2.chk"
 Charge =  0 Multiplicity = 1

                         Standard orientation:
 ---------------------------------------------------------------------
 Center     Atomic      Atomic             Coordinates (Angstroms)
 Number     Number       Type             X           Y           Z
 ---------------------------------------------------------------------
      1          6           0        2.231813    0.074129    0.002784
      2          6           0        0.734332    0.104046   -0.004444
      3          6           0       -0.098946    1.155335   -0.005796
      4          6           0       -1.527144    0.685110    0.003523
      5          8           0       -1.457258   -0.748976    0.000434
      6          6           0       -0.088510   -1.163106   -0.001617
      7          1           0        2.609453   -0.444123    0.899160
      8          1           0        2.656581    1.085693   -0.012977
      9          1           0        2.620406   -0.477864   -0.868156
     10          1           0        0.188560    2.205539   -0.003304
     11          1           0       -2.092025    1.031788   -0.881904
     12          1           0       -2.075526    1.029318    0.900605
     13          1           0        0.118575   -1.786326   -0.893114
     14          1           0        0.122775   -1.785299    0.889520
 ---------------------------------------------------------------------

 SCF Done:  E(RHF) =  -269.144688087     A.U. after    2 cycles

 The electronic state is 1-A.
 Alpha  occ. eigenvalues --  -20.53795 -11.28704 -11.28599 -11.24705 -11.24533
 Alpha  occ. eigenvalues --  -11.23486  -1.45155  -1.09394  -1.00076  -0.94442
 Alpha  occ. eigenvalues --   -0.83019  -0.74452  -0.67493  -0.66569  -0.59820
 Alpha  occ. eigenvalues --   -0.58516  -0.57832  -0.56311  -0.54340  -0.50996
 Alpha  occ. eigenvalues --   -0.47676  -0.42357  -0.34670
 Alpha virt. eigenvalues --    0.03434   0.03727   0.04437   0.04517   0.05996
 Alpha virt. eigenvalues --    0.06331   0.07201   0.07827   0.10157   0.12313
 Alpha virt. eigenvalues --    0.12720   0.13100   0.13892   0.14336   0.15610

 Mulliken charges:
               1
     1  C   -0.568327
     2  C    0.321563
     3  C   -0.507915
     4  C    0.481027
     5  O   -1.339839
     6  C    0.471422
     7  H    0.245193
     8  H    0.138239
     9  H    0.241819
    10  H   -0.109702
    11  H    0.149217
    12  H    0.151964
    13  H    0.163006
    14  H    0.162333
 Sum of Mulliken charges =   0.00000

 Dipole moment (field-independent basis, Debye):
    X=              1.7494    Y=              0.9702    Z=              0.0153  Tot=              2.0005

 Test job not archived.
 1\1\GINC-SE131\SP\RHF\Aug-CC-pVDZ\C5H8O1\OHZDE\09-Apr-2025\0\\#t hf au
 g-cc-pvdz iop(5/13=1,5/36=2,99/5=2) pseudo=read geom=check guess=(read
 ,tcheck) scf=(maxcycle=1)\\title\\0,1\C,0,-1.85167473,0.3088507,-0.528
 27866\C,0,-0.42188378,0.10396405,-0.13190068\C,0,0.64854556,0.8780069,
 -0.36556834\C,0,1.88256226,0.2459928,0.21641767\O,0,1.43533401,-0.9742
 8285,0.8266733\C,0,0.02447031,-1.11526744,0.64075362\H,0,-2.20171409,-
 0.51367831,-1.17295477\H,0,-1.98963615,1.25244197,-1.07099368\H,0,-2.5
 0945184,0.31884337,0.35572777\H,0,0.65424873,1.82447218,-0.90386743\H,

 Normal termination of Gaussian 16 at Wed Apr  9 15:58:59 2025.
