 Gaussian 16, Revision C.01,

 ----------------------------------------------------------------------
 #t hf aug-cc-pvdz symm=none int=(grid=ultrafine) guess=(read,tcheck) s
 table=(opt,rrhf)
 ----------------------------------------------------------------------
 -----
 title
 -----
 Symbolic Z-matrix:
 Charge =  0 Multiplicity = 1

 SCF Done:  E(RHF) =  -283.667612830     A.U. after   14 cycles
 Normal termination of Gaussian 16 at Wed Apr  9 16:12:42 2025.
 Gaussian 16:  ES64L-G16RevC.01  3-Jul-2019

 ----------------------------------------------------------------------
 #t hf aug-cc-pvdz iop(5/13=1,5/36=2,99/5=2) pseudo=read geom=check gue
 ss=(read,tcheck) scf=(maxcycle=1)
 ----------------------------------------------------------------------
 -----
 title
 -----
 Structure from the checkpoint file:  "Grambow2020_b97d3_007167_reverse_mol2.chk"
 Charge =  0 Multiplicity = 1

                         Standard orientation:
 ---------------------------------------------------------------------
 Center     Atomic      Atomic             Coordinates (Angstroms)
 Number     Number       Type             X           Y           Z
 ---------------------------------------------------------------------
      1          6           0        2.094215   -1.246249   -0.061447
      2          7           0       -1.083243    0.121933    0.858261
      3          6           0       -2.024102    0.009382    0.084310
      4          8           0       -3.013391   -0.165843   -0.542447
      5          6           0        1.997059    0.209484   -0.141464
      6          6           0        1.882593    1.421150   -0.198222
      7          1           0        1.149391   -1.675024    0.303808
      8          1           0        2.895241   -1.549579    0.627725
      9          1           0        2.308011   -1.680481   -1.048537
     10          1           0       -0.178859    0.527685    0.611589
     11          1           0        1.817444    2.488011   -0.261897
 ---------------------------------------------------------------------

 SCF Done:  E(RHF) =  -283.953574350     A.U. after    2 cycles

 The electronic state is 1-A.
 Alpha  occ. eigenvalues --  -20.60357 -15.52684 -11.42093 -11.27899 -11.27480
 Alpha  occ. eigenvalues --  -11.25973  -1.53690  -1.25796  -1.07987  -0.98158
 Alpha  occ. eigenvalues --   -0.83394  -0.74582  -0.72752  -0.65356  -0.65078
 Alpha  occ. eigenvalues --   -0.64447  -0.61201  -0.61199  -0.50172  -0.46633
 Alpha  occ. eigenvalues --   -0.41787  -0.41480
 Alpha virt. eigenvalues --    0.03156   0.03345   0.04847   0.05098   0.07062
 Alpha virt. eigenvalues --    0.08822   0.09560   0.10527   0.10753   0.11895
 Alpha virt. eigenvalues --    0.12772   0.13078   0.13344   0.14751   0.15351

 Mulliken charges:
               1
     1  C   -0.719829
     2  N    0.703649
     3  C   -0.020165
     4  O   -0.707628
     5  C   -0.078313
     6  C    0.430263
     7  H    0.216371
     8  H    0.214380
     9  H    0.249727
    10  H    0.088850
    11  H   -0.377306
 Sum of Mulliken charges =  -0.00000

 Dipole moment (field-independent basis, Debye):
    X=              2.5986    Y=              0.0096    Z=             -0.6107  Tot=              2.6694

 Test job not archived.
 1\1\GINC-SE043\SP\RHF\Aug-CC-pVDZ\C4H5N1O1\OHZDE\09-Apr-2025\0\\#t hf
 aug-cc-pvdz iop(5/13=1,5/36=2,99/5=2) pseudo=read geom=check guess=(re
 ad,tcheck) scf=(maxcycle=1)\\title\\0,1\C,0,-0.74728263,1.54945504,-0.
 49219915\N,0,-0.28545242,-1.96220346,0.02644467\C,0,-0.41123475,-2.416
 7848,1.15534582\O,0,-0.63913697,-2.95757587,2.18385348\C,0,0.63988296,
 1.0920101,-0.53114731\C,0,1.78553022,0.67812508,-0.55665096\H,0,-1.427
 5828,0.70041422,-0.33010473\H,0,-1.02775158,2.03542009,-1.43759997\H,0
 ,-0.9002078,2.27090864,0.32311112\H,0,0.33850153,-1.19153096,-0.218782

 Normal termination of Gaussian 16 at Wed Apr  9 16:12:47 2025.
