 Gaussian 16, Revision C.01,

 ----------------------------------------------------------------------
 #t hf aug-cc-pvdz symm=none int=(grid=ultrafine) guess=(read,tcheck) s
 table=(opt,rrhf)
 ----------------------------------------------------------------------
 -----
 title
 -----
 Symbolic Z-matrix:
 Charge =  0 Multiplicity = 1

 SCF Done:  E(RHF) =  -343.693967649     A.U. after   13 cycles
 Normal termination of Gaussian 16 at Wed Apr  9 04:04:18 2025.
 Gaussian 16:  ES64L-G16RevC.01  3-Jul-2019

 ----------------------------------------------------------------------
 #t hf aug-cc-pvdz iop(5/13=1,5/36=2,99/5=2) pseudo=read geom=check gue
 ss=(read,tcheck) scf=(maxcycle=1)
 ----------------------------------------------------------------------
 -----
 title
 -----
 Structure from the checkpoint file:  "Grambow2020_wb97xd3_009099_forward_mol2.chk"
 Charge =  0 Multiplicity = 1

                         Standard orientation:
 ---------------------------------------------------------------------
 Center     Atomic      Atomic             Coordinates (Angstroms)
 Number     Number       Type             X           Y           Z
 ---------------------------------------------------------------------
      1          6           0        1.686518   -0.042826    0.630407
      2          6           0        0.896021   -0.698856   -0.464462
      3          8           0       -0.263157   -1.434041   -0.227914
      4          6           0       -1.317933   -0.718131    0.387403
      5          6           0       -1.424814    0.684284   -0.166306
      6          8           0       -0.252461    1.418988    0.130124
      7          6           0        0.899948    0.793131   -0.347347
      8          1           0        1.283524   -0.074183    1.634462
      9          1           0        2.766512   -0.061256    0.566224
     10          1           0        1.450113   -1.142615   -1.281485
     11          1           0       -1.168816   -0.670077    1.474052
     12          1           0       -2.228284   -1.285886    0.189758
     13          1           0       -1.593384    0.647584   -1.250462
     14          1           0       -2.252542    1.218747    0.300861
     15          1           0        1.429385    1.382503   -1.089257
 ---------------------------------------------------------------------

 SCF Done:  E(RHF) =  -344.048578362     A.U. after    2 cycles

 The electronic state is 1-A.
 Alpha  occ. eigenvalues --  -20.55295 -20.55242 -11.29300 -11.28925 -11.28841
 Alpha  occ. eigenvalues --  -11.28795 -11.23158  -1.49411  -1.45972  -1.14129
 Alpha  occ. eigenvalues --   -1.01125  -0.90271  -0.83356  -0.76434  -0.73075
 Alpha  occ. eigenvalues --   -0.69466  -0.66605  -0.64253  -0.62164  -0.56883
 Alpha  occ. eigenvalues --   -0.56221  -0.54786  -0.51488  -0.49837  -0.45339
 Alpha  occ. eigenvalues --   -0.40070  -0.37446
 Alpha virt. eigenvalues --    0.03609   0.03818   0.04151   0.04621   0.05923
 Alpha virt. eigenvalues --    0.06171   0.06277   0.08682   0.10226   0.11224
 Alpha virt. eigenvalues --    0.12947   0.13324   0.13781   0.14267   0.14631

 Mulliken charges:
               1
     1  C   -0.031975
     2  C    1.282052
     3  O   -1.542203
     4  C    0.346097
     5  C    0.294703
     6  O   -1.497273
     7  C    1.319918
     8  H   -0.097025
     9  H   -0.130748
    10  H   -0.164852
    11  H    0.185918
    12  H    0.000434
    13  H    0.177656
    14  H    0.007308
    15  H   -0.150012
 Sum of Mulliken charges =  -0.00000

 Dipole moment (field-independent basis, Debye):
    X=             -0.2415    Y=              0.0576    Z=             -0.3062  Tot=              0.3942

 Test job not archived.
 1\1\GINC-SE179\SP\RHF\Aug-CC-pVDZ\C5H8O2\OHZDE\09-Apr-2025\0\\#t hf au
 g-cc-pvdz iop(5/13=1,5/36=2,99/5=2) pseudo=read geom=check guess=(read
 ,tcheck) scf=(maxcycle=1)\\title\\0,1\C,0,-1.57998029,0.08761029,0.848
 53083\C,0,-1.10545327,-0.00078478,-0.57309094\O,0,-0.22637035,0.919871
 57,-1.13855434\C,0,1.03593325,1.01781091,-0.50555059\C,0,1.54733852,-0
 .34223431,-0.08898715\O,0,0.68788522,-0.91373441,0.87889729\C,0,-0.630
 01149,-1.00557073,0.42896634\H,0,-1.14762695,0.85302715,1.47997568\H,0
 ,-2.61211672,-0.15741235,1.06184529\H,0,-1.81985946,-0.32879052,-1.317

 Normal termination of Gaussian 16 at Wed Apr  9 04:04:24 2025.
