 Gaussian 16, Revision C.01,

 ----------------------------------------------------------------------
 #t hf aug-cc-pvdz symm=none int=(grid=ultrafine) guess=(read,tcheck) s
 table=(opt,rrhf)
 ----------------------------------------------------------------------
 -----
 title
 -----
 Symbolic Z-matrix:
 Charge =  0 Multiplicity = 1

 SCF Done:  E(RHF) =  -283.494029377     A.U. after   16 cycles
 Normal termination of Gaussian 16 at Wed Apr  9 15:43:40 2025.
 Gaussian 16:  ES64L-G16RevC.01  3-Jul-2019

 ----------------------------------------------------------------------
 #t hf aug-cc-pvdz iop(5/13=1,5/36=2,99/5=2) pseudo=read geom=check gue
 ss=(read,tcheck) scf=(maxcycle=1)
 ----------------------------------------------------------------------
 -----
 title
 -----
 Structure from the checkpoint file:  "Grambow2020_b97d3_006725_forward_mol1.chk"
 Charge =  0 Multiplicity = 1

                         Standard orientation:
 ---------------------------------------------------------------------
 Center     Atomic      Atomic             Coordinates (Angstroms)
 Number     Number       Type             X           Y           Z
 ---------------------------------------------------------------------
      1          6           0        1.348653   -0.004290   -0.703584
      2          6           0        0.680323    0.886074    0.191995
      3          8           0       -1.043406    1.011564    0.027152
      4          6           0       -1.344160   -0.231325   -0.135951
      5          7           0       -0.432546   -1.197856    0.085157
      6          6           0        0.798787   -0.512249    0.605617
      7          1           0        0.161349   -1.133316   -0.983398
      8          1           0        2.364229    0.138387   -1.064440
      9          1           0        0.951398    1.830250    0.655068
     10          1           0       -2.261490   -0.472968   -0.682427
     11          1           0        1.257974   -0.899131    1.513419
 ---------------------------------------------------------------------

 SCF Done:  E(RHF) =  -283.782576110     A.U. after    2 cycles

 The electronic state is 1-A.
 Alpha  occ. eigenvalues --  -20.59829 -15.52815 -11.39586 -11.32356 -11.28170
 Alpha  occ. eigenvalues --  -11.21108  -1.51446  -1.26766  -1.13381  -0.88550
 Alpha  occ. eigenvalues --   -0.83828  -0.79554  -0.74289  -0.69347  -0.65748
 Alpha  occ. eigenvalues --   -0.61141  -0.56249  -0.55220  -0.51005  -0.46554
 Alpha  occ. eigenvalues --   -0.42135  -0.32254
 Alpha virt. eigenvalues --    0.03504   0.04056   0.04708   0.04858   0.06688
 Alpha virt. eigenvalues --    0.07724   0.09078   0.10259   0.10671   0.11283
 Alpha virt. eigenvalues --    0.13502   0.13871   0.14993   0.15308   0.15573

 Mulliken charges:
               1
     1  C   -0.229770
     2  C    0.878035
     3  O   -1.124580
     4  C    0.453667
     5  N    0.382929
     6  C   -0.507574
     7  H    0.732268
     8  H   -0.226683
     9  H   -0.170827
    10  H    0.047537
    11  H   -0.235003
 Sum of Mulliken charges =  -0.00000

 Dipole moment (field-independent basis, Debye):
    X=             -0.4113    Y=              0.7887    Z=              0.6603  Tot=              1.1078

 Test job not archived.
 1\1\GINC-SE042\SP\RHF\Aug-CC-pVDZ\C4H5N1O1\OHZDE\09-Apr-2025\0\\#t hf
 aug-cc-pvdz iop(5/13=1,5/36=2,99/5=2) pseudo=read geom=check guess=(re
 ad,tcheck) scf=(maxcycle=1)\\title\\0,1\C,0,-1.25170258,0.31292781,-0.
 16397859\C,0,-0.40477776,-0.71443502,-0.68235932\O,0,1.21667968,-0.254
 16782,-1.09852381\C,0,1.50254699,0.49638264,-0.09016784\N,0,0.70522183
 ,0.52954817,0.9948595\C,0,-0.37378532,-0.48981205,0.76298033\H,0,-0.14
 140816,1.3065229,0.57270377\H,0,-2.329265,0.3469649,-0.30422702\H,0,-0
 .57729561,-1.58994269,-1.30131854\H,0,2.25835463,1.27675212,-0.2254469

 Normal termination of Gaussian 16 at Wed Apr  9 15:43:43 2025.
