 Gaussian 16, Revision C.01,

 ----------------------------------------------------------------------
 #t hf aug-cc-pvdz symm=none int=(grid=ultrafine) guess=(read,tcheck) s
 table=(opt,rrhf)
 ----------------------------------------------------------------------
 -----
 title
 -----
 Symbolic Z-matrix:
 Charge =  0 Multiplicity = 1

 SCF Done:  E(RHF) =  -267.581886921     A.U. after   14 cycles
 Normal termination of Gaussian 16 at Wed Apr  9 03:20:56 2025.
 Gaussian 16:  ES64L-G16RevC.01  3-Jul-2019

 ----------------------------------------------------------------------
 #t hf aug-cc-pvdz iop(5/13=1,5/36=2,99/5=2) pseudo=read geom=check gue
 ss=(read,tcheck) scf=(maxcycle=1)
 ----------------------------------------------------------------------
 -----
 title
 -----
 Structure from the checkpoint file:  "Grambow2020_wb97xd3_006078_reverse_mol2.chk"
 Charge =  0 Multiplicity = 1

                         Standard orientation:
 ---------------------------------------------------------------------
 Center     Atomic      Atomic             Coordinates (Angstroms)
 Number     Number       Type             X           Y           Z
 ---------------------------------------------------------------------
      1          8           0       -0.394573   -1.039160    0.090366
      2          6           0       -1.602066   -0.393835    0.149103
      3          6           0       -1.868199    0.830370   -0.269703
      4          6           0        1.408625    0.938105    0.344666
      5          6           0        0.721579   -0.320327   -0.023493
      6          6           0        1.964208   -0.307445   -0.340878
      7          1           0       -2.347558   -1.054680    0.571758
      8          1           0       -2.876289    1.205816   -0.168938
      9          1           0       -1.122256    1.474198   -0.713065
     10          1           0        1.239754    1.844443   -0.237789
     11          1           0        1.663797    1.134477    1.387165
     12          1           0        2.854257   -0.772181   -0.720231
 ---------------------------------------------------------------------

 SCF Done:  E(RHF) =  -267.857414219     A.U. after    2 cycles

 The electronic state is 1-A.
 Alpha  occ. eigenvalues --  -20.60781 -11.31580 -11.31222 -11.25524 -11.24217
 Alpha  occ. eigenvalues --  -11.23734  -1.54140  -1.17268  -1.05053  -0.88798
 Alpha  occ. eigenvalues --   -0.82966  -0.73914  -0.71200  -0.70168  -0.64848
 Alpha  occ. eigenvalues --   -0.60982  -0.57151  -0.56337  -0.50001  -0.43946
 Alpha  occ. eigenvalues --   -0.39131  -0.34065
 Alpha virt. eigenvalues --    0.03709   0.03949   0.04344   0.04975   0.05979
 Alpha virt. eigenvalues --    0.07102   0.10095   0.10671   0.11141   0.11656
 Alpha virt. eigenvalues --    0.12412   0.13765   0.14355   0.14951   0.15584

 Mulliken charges:
               1
     1  O   -1.503475
     2  C    1.116194
     3  C   -0.023369
     4  C   -0.029409
     5  C    0.609522
     6  C    0.253988
     7  H   -0.068118
     8  H   -0.093255
     9  H   -0.030483
    10  H    0.016331
    11  H    0.021099
    12  H   -0.269024
 Sum of Mulliken charges =  -0.00000

 Dipole moment (field-independent basis, Debye):
    X=             -0.4428    Y=              0.4452    Z=              0.0853  Tot=              0.6336

 Test job not archived.
 1\1\GINC-SE457\SP\RHF\Aug-CC-pVDZ\C5H6O1\OHZDE\09-Apr-2025\0\\#t hf au
 g-cc-pvdz iop(5/13=1,5/36=2,99/5=2) pseudo=read geom=check guess=(read
 ,tcheck) scf=(maxcycle=1)\\title\\0,1\O,0,-0.09625255,-0.87581816,0.97
 187107\C,0,-1.24124882,-0.21902659,1.3400299\C,0,-1.95204939,0.6118970
 5,0.59892709\C,0,1.09176892,0.81132148,-0.75089817\C,0,0.62717019,-0.4
 0227135,-0.04197977\C,0,1.52495116,-0.64184921,-0.92607211\H,0,-1.5166
 8357,-0.50451948,2.34687654\H,0,-2.84518958,1.04953923,1.0209798\H,0,-
 1.68216315,0.8720021,-0.41449352\H,0,0.4592097,1.28033021,-1.50529786\

 Normal termination of Gaussian 16 at Wed Apr  9 03:21:00 2025.
