 Gaussian 16, Revision C.01,

 ----------------------------------------------------------------------
 #t hf aug-cc-pvdz symm=none int=(grid=ultrafine) guess=(read,tcheck) s
 table=(opt,rrhf)
 ----------------------------------------------------------------------
 -----
 title
 -----
 Symbolic Z-matrix:
 Charge =  0 Multiplicity = 1

 SCF Done:  E(RHF) =  -304.547636660     A.U. after   15 cycles
 Normal termination of Gaussian 16 at Wed Apr  9 17:09:07 2025.
 Gaussian 16:  ES64L-G16RevC.01  3-Jul-2019

 ----------------------------------------------------------------------
 #t hf aug-cc-pvdz iop(5/13=1,5/36=2,99/5=2) pseudo=read geom=check gue
 ss=(read,tcheck) scf=(maxcycle=1)
 ----------------------------------------------------------------------
 -----
 title
 -----
 Structure from the checkpoint file:  "Grambow2020_wb97xd3_006268_reverse_mol1.chk"
 Charge =  0 Multiplicity = 1

                         Standard orientation:
 ---------------------------------------------------------------------
 Center     Atomic      Atomic             Coordinates (Angstroms)
 Number     Number       Type             X           Y           Z
 ---------------------------------------------------------------------
      1          8           0        1.944783    0.687065    0.238544
      2          6           0        1.630941   -0.459860   -0.251159
      3          8           0        0.396740   -0.881231   -0.180442
      4          6           0       -0.560921   -0.020467    0.440432
      5          6           0       -1.974493   -0.374010    0.164715
      6          6           0       -1.367315    0.864864   -0.441898
      7          1           0        2.786933   -0.020246   -0.274884
      8          1           0       -0.260821    0.322051    1.420388
      9          1           0       -2.145226   -1.214491   -0.494595
     10          1           0       -2.688665   -0.269298    0.969996
     11          1           0       -1.143143    0.836419   -1.499670
     12          1           0       -1.650532    1.835724   -0.058585
 ---------------------------------------------------------------------

 SCF Done:  E(RHF) =  -304.856641884     A.U. after    2 cycles

 The electronic state is 1-A.
 Alpha  occ. eigenvalues --  -20.60900 -20.57801 -11.37429 -11.30798 -11.24816
 Alpha  occ. eigenvalues --  -11.24724  -1.57068  -1.48522  -1.16458  -0.89548
 Alpha  occ. eigenvalues --   -0.84753  -0.79385  -0.76536  -0.70312  -0.69251
 Alpha  occ. eigenvalues --   -0.62584  -0.60385  -0.55067  -0.53527  -0.50923
 Alpha  occ. eigenvalues --   -0.45524  -0.43398  -0.37843
 Alpha virt. eigenvalues --    0.03815   0.04250   0.04390   0.04683   0.06359
 Alpha virt. eigenvalues --    0.06901   0.09422   0.10020   0.11027   0.12898
 Alpha virt. eigenvalues --    0.13714   0.14234   0.14900   0.15272   0.15921

 Mulliken charges:
               1
     1  O   -0.996302
     2  C    0.519160
     3  O   -1.178290
     4  C    1.301616
     5  C    0.154943
     6  C   -0.031570
     7  H    0.713427
     8  H   -0.122666
     9  H   -0.089863
    10  H   -0.104560
    11  H   -0.084830
    12  H   -0.081064
 Sum of Mulliken charges =   0.00000

 Dipole moment (field-independent basis, Debye):
    X=             -1.2983    Y=              0.4478    Z=              0.2892  Tot=              1.4035

 Test job not archived.
 1\1\GINC-SE220\SP\RHF\Aug-CC-pVDZ\C4H6O2\OHZDE\09-Apr-2025\0\\#t hf au
 g-cc-pvdz iop(5/13=1,5/36=2,99/5=2) pseudo=read geom=check guess=(read
 ,tcheck) scf=(maxcycle=1)\\title\\0,1\O,0,2.22899068,0.1952399,0.99303
 5\C,0,2.12522464,-0.03246518,-0.2683632\O,0,0.96792125,-0.36143874,-0.
 7765278\C,0,-0.14683638,-0.44051015,0.11486373\C,0,-1.46981961,-0.4482
 9533,-0.55510122\C,0,-1.02244708,0.75615681,0.23268413\H,0,3.19967502,
 0.26468403,0.26773327\H,0,0.03572594,-1.06335825,0.97882154\H,0,-1.468
 68861,-0.36193639,-1.63342786\H,0,-2.24039911,-1.0874223,-0.1461902\H,

 Normal termination of Gaussian 16 at Wed Apr  9 17:09:11 2025.
