 Gaussian 16, Revision C.01,

 ----------------------------------------------------------------------
 #t hf aug-cc-pvdz symm=none int=(grid=ultrafine) guess=(read,tcheck) s
 table=(opt,rrhf)
 ----------------------------------------------------------------------
 -----
 title
 -----
 Symbolic Z-matrix:
 Charge =  0 Multiplicity = 1

 SCF Done:  E(RHF) =  -344.843365382     A.U. after   15 cycles

 1\1\GINC-SE362\Stability\RHF\Aug-CC-pVDZ\C5H10O2\OHZDE\09-Apr-2025\0\\
 #t hf aug-cc-pvdz symm=none int=(grid=ultrafine) guess=(read,tcheck) s
 table=(opt,rrhf)\\title\\0,1\C,0,-2.44494182,-0.48546269,-0.36669444\C
 ,0,-1.15295435,0.28136645,-0.64965268\C,0,-0.0144835,-0.34335056,0.126
 03903\O,0,0.47962197,-1.44124178,-0.28654195\C,0,1.47686042,1.02199414
 ,-0.27879908\C,0,2.41213599,0.32915523,0.46079065\O,0,2.7345154,-0.886
 54733,0.20662937\H,0,-3.2812925,-0.0359253,-0.90414637\H,0,-2.35408223
 ,-1.52596248,-0.67980945\H,0,-2.68956232,-0.47255751,0.69809937\H,0,-0

 Normal termination of Gaussian 16 at Wed Apr  9 18:37:36 2025.
 Gaussian 16:  ES64L-G16RevC.01  3-Jul-2019

 ----------------------------------------------------------------------
 #t hf aug-cc-pvdz iop(5/13=1,5/36=2,99/5=2) pseudo=read geom=check gue
 ss=(read,tcheck) scf=(maxcycle=1)
 ----------------------------------------------------------------------
 -----
 title
 -----
 Structure from the checkpoint file:  "Grambow2020_wb97xd3_007839_forward_mol1.chk"
 Charge =  0 Multiplicity = 1

                         Standard orientation:
 ---------------------------------------------------------------------
 Center     Atomic      Atomic             Coordinates (Angstroms)
 Number     Number       Type             X           Y           Z
 ---------------------------------------------------------------------
      1          6           0       -2.884435   -0.170294    0.187074
      2          6           0       -1.623394    0.576330   -0.248417
      3          6           0       -0.403555   -0.127652    0.303387
      4          8           0       -0.020053   -1.210794   -0.243841
      5          6           0        1.058033    1.218154   -0.248639
      6          6           0        2.069138    0.454179    0.295208
      7          8           0        2.302973   -0.751659   -0.075921
      8          1           0       -3.775941    0.335456   -0.186897
      9          1           0       -2.881704   -1.191146   -0.196059
     10          1           0       -2.962098   -0.217624    1.275890
     11          1           0       -1.557570    0.592337   -1.337809
     12          1           0       -1.656812    1.606627    0.111320
     13          1           0       -0.301377   -0.034195    1.396643
     14          1           0        1.286458   -1.167196   -0.279039
     15          1           0        0.896589    2.212339    0.148336
     16          1           0        0.775639    1.055807   -1.280103
     17          1           0        2.618733    0.802924    1.174131
 ---------------------------------------------------------------------

 SCF Done:  E(RHF) =  -345.202828261     A.U. after    2 cycles

 The electronic state is 1-A.
 Alpha  occ. eigenvalues --  -20.55606 -20.51541 -11.35135 -11.34693 -11.24792
 Alpha  occ. eigenvalues --  -11.23644 -11.23617  -1.50464  -1.44230  -1.07423
 Alpha  occ. eigenvalues --   -1.03479  -0.90643  -0.83723  -0.80104  -0.72385
 Alpha  occ. eigenvalues --   -0.69871  -0.65384  -0.63422  -0.61843  -0.59831
 Alpha  occ. eigenvalues --   -0.56961  -0.55648  -0.53012  -0.50829  -0.50448
 Alpha  occ. eigenvalues --   -0.47584  -0.41435  -0.35167
 Alpha virt. eigenvalues --    0.03047   0.03395   0.03863   0.04830   0.05644
 Alpha virt. eigenvalues --    0.06067   0.06770   0.07337   0.08382   0.09155
 Alpha virt. eigenvalues --    0.09873   0.10918   0.12368   0.13323   0.14024

 Mulliken charges:
               1
     1  C   -0.388559
     2  C   -0.421365
     3  C    1.184578
     4  O   -1.637970
     5  C   -0.339347
     6  C    1.387547
     7  O   -1.447736
     8  H    0.136880
     9  H    0.188173
    10  H    0.176312
    11  H    0.110883
    12  H    0.152795
    13  H    0.069089
    14  H    0.824665
    15  H   -0.113169
    16  H    0.070208
    17  H    0.047015
 Sum of Mulliken charges =   0.00000

 Dipole moment (field-independent basis, Debye):
    X=             -1.3119    Y=              3.1719    Z=              1.2851  Tot=              3.6652

 Test job not archived.
 1\1\GINC-SE362\SP\RHF\Aug-CC-pVDZ\C5H10O2\OHZDE\09-Apr-2025\0\\#t hf a
 ug-cc-pvdz iop(5/13=1,5/36=2,99/5=2) pseudo=read geom=check guess=(rea
 d,tcheck) scf=(maxcycle=1)\\title\\0,1\C,0,-2.44494182,-0.48546269,-0.
 36669444\C,0,-1.15295435,0.28136645,-0.64965268\C,0,-0.0144835,-0.3433
 5056,0.12603903\O,0,0.47962197,-1.44124178,-0.28654195\C,0,1.47686042,
 1.02199414,-0.27879908\C,0,2.41213599,0.32915523,0.46079065\O,0,2.7345
 154,-0.88654733,0.20662937\H,0,-3.2812925,-0.0359253,-0.90414637\H,0,-
 2.35408223,-1.52596248,-0.67980945\H,0,-2.68956232,-0.47255751,0.69809

 Normal termination of Gaussian 16 at Wed Apr  9 18:37:41 2025.
