 Gaussian 16, Revision C.01,

 ----------------------------------------------------------------------
 #t hf aug-cc-pvdz symm=none int=(grid=ultrafine) guess=(read,tcheck) s
 table=(opt,rrhf)
 ----------------------------------------------------------------------
 -----
 title
 -----
 Symbolic Z-matrix:
 Charge =  0 Multiplicity = 1

 SCF Done:  E(RHF) =  -343.518140989     A.U. after   15 cycles
 Normal termination of Gaussian 16 at Wed Apr  9 18:32:31 2025.
 Gaussian 16:  ES64L-G16RevC.01  3-Jul-2019

 ----------------------------------------------------------------------
 #t hf aug-cc-pvdz iop(5/13=1,5/36=2,99/5=2) pseudo=read geom=check gue
 ss=(read,tcheck) scf=(maxcycle=1)
 ----------------------------------------------------------------------
 -----
 title
 -----
 Structure from the checkpoint file:  "Grambow2020_wb97xd3_007689_forward_mol1.chk"
 Charge =  0 Multiplicity = 1

                         Standard orientation:
 ---------------------------------------------------------------------
 Center     Atomic      Atomic             Coordinates (Angstroms)
 Number     Number       Type             X           Y           Z
 ---------------------------------------------------------------------
      1          6           0        2.275628   -0.398434    0.243188
      2          6           0        0.415484   -0.464169   -0.942127
      3          6           0       -0.535610   -1.252665   -0.178622
      4          8           0       -1.049002   -0.595522    1.015185
      5          6           0       -1.449038   -0.074449   -0.228620
      6          6           0       -0.317324    0.869907   -0.646611
      7          8           0        0.084016    1.750671    0.358554
      8          1           0        3.264986   -0.699736   -0.102805
      9          1           0        1.927889   -1.033103    1.049804
     10          1           0        2.245954    0.655574    0.495322
     11          1           0        1.718454   -0.609230   -0.817643
     12          1           0       -0.781751   -2.301790   -0.258757
     13          1           0       -2.501279   -0.066840   -0.481983
     14          1           0       -0.471760    1.456616   -1.549828
     15          1           0       -0.017439    1.276170    1.192734
 ---------------------------------------------------------------------

 SCF Done:  E(RHF) =  -343.869322936     A.U. after    2 cycles

 The electronic state is 1-A.
 Alpha  occ. eigenvalues --  -20.58066 -20.55524 -11.31616 -11.30897 -11.30855
 Alpha  occ. eigenvalues --  -11.26672 -11.26178  -1.52686  -1.46038  -1.11661
 Alpha  occ. eigenvalues --   -0.98835  -0.91590  -0.86042  -0.79181  -0.72348
 Alpha  occ. eigenvalues --   -0.67626  -0.64637  -0.61785  -0.61206  -0.58598
 Alpha  occ. eigenvalues --   -0.56904  -0.56657  -0.50833  -0.50477  -0.43622
 Alpha  occ. eigenvalues --   -0.42256  -0.33493
 Alpha virt. eigenvalues --    0.03495   0.03522   0.04242   0.04518   0.05576
 Alpha virt. eigenvalues --    0.06648   0.07070   0.09078   0.09683   0.11025
 Alpha virt. eigenvalues --    0.11487   0.12824   0.13583   0.13751   0.14232

 Mulliken charges:
               1
     1  C   -0.584060
     2  C   -0.295593
     3  C    0.727923
     4  O   -1.381309
     5  C    0.570236
     6  C    1.400145
     7  O   -1.388244
     8  H    0.013177
     9  H    0.175302
    10  H    0.163487
    11  H    0.454244
    12  H   -0.101435
    13  H   -0.098380
    14  H    0.045964
    15  H    0.298541
 Sum of Mulliken charges =  -0.00000

 Dipole moment (field-independent basis, Debye):
    X=              0.1166    Y=             -1.1804    Z=              0.2437  Tot=              1.2109

 Test job not archived.
 1\1\GINC-SE029\SP\RHF\Aug-CC-pVDZ\C5H8O2\OHZDE\09-Apr-2025\0\\#t hf au
 g-cc-pvdz iop(5/13=1,5/36=2,99/5=2) pseudo=read geom=check guess=(read
 ,tcheck) scf=(maxcycle=1)\\title\\0,1\C,0,1.91479643,-0.57864754,0.315
 74504\C,0,0.10141709,0.60064728,0.75203135\C,0,-0.21734826,1.33543126,
 -0.45946654\O,0,-0.73384295,0.51705562,-1.54762015\C,0,-1.55862767,0.6
 839021,-0.42046012\C,0,-1.08776626,-0.3788939,0.57756547\O,0,-0.948356
 95,-1.65201223,0.02357093\H,0,2.84511533,-0.55444786,0.88429211\H,0,2.
 05800087,-0.21179806,-0.69384352\H,0,1.45587545,-1.56044771,0.34482478

 Normal termination of Gaussian 16 at Wed Apr  9 18:32:36 2025.
