 Gaussian 16, Revision C.01,

 ----------------------------------------------------------------------
 #t hf aug-cc-pvdz symm=none int=(grid=ultrafine) guess=(read,tcheck) s
 table=(opt,rrhf)
 ----------------------------------------------------------------------
 -----
 title
 -----
 Symbolic Z-matrix:
 Charge =  0 Multiplicity = 1

 SCF Done:  E(RHF) =  -338.664509317     A.U. after   15 cycles
 Normal termination of Gaussian 16 at Wed Apr  9 19:09:52 2025.
 Gaussian 16:  ES64L-G16RevC.01  3-Jul-2019

 ----------------------------------------------------------------------
 #t hf aug-cc-pvdz iop(5/13=1,5/36=2,99/5=2) pseudo=read geom=check gue
 ss=(read,tcheck) scf=(maxcycle=1)
 ----------------------------------------------------------------------
 -----
 title
 -----
 Structure from the checkpoint file:  "Grambow2020_wb97xd3_008809_forward_mol1.chk"
 Charge =  0 Multiplicity = 1

                         Standard orientation:
 ---------------------------------------------------------------------
 Center     Atomic      Atomic             Coordinates (Angstroms)
 Number     Number       Type             X           Y           Z
 ---------------------------------------------------------------------
      1          7           0       -1.760663   -1.075374    0.029277
      2          6           0       -0.415297   -0.624128   -0.032435
      3          6           0       -0.114998    0.738553   -0.049874
      4          8           0       -1.011387    1.736627    0.027422
      5          7           0        1.193811    0.988188   -0.097823
      6          6           0        1.799376   -0.335208   -0.000436
      7          6           0        0.797277   -1.303408    0.011758
      8          1           0       -1.878785   -1.852217    0.662434
      9          1           0       -2.115393   -1.345289   -0.877939
     10          1           0       -1.868401    1.315228    0.173655
     11          1           0        1.734565    0.549909    0.940394
     12          1           0        2.842839   -0.432384   -0.255806
     13          1           0        0.946086   -2.372826    0.043634
 ---------------------------------------------------------------------

 SCF Done:  E(RHF) =  -339.013643971     A.U. after    2 cycles

 The electronic state is 1-A.
 Alpha  occ. eigenvalues --  -20.57300 -15.52476 -15.51657 -11.31441 -11.27497
 Alpha  occ. eigenvalues --  -11.26643 -11.24812  -1.49768  -1.29380  -1.20908
 Alpha  occ. eigenvalues --   -1.04244  -0.98330  -0.83651  -0.78121  -0.74873
 Alpha  occ. eigenvalues --   -0.71695  -0.67851  -0.66117  -0.63447  -0.60076
 Alpha  occ. eigenvalues --   -0.55705  -0.53863  -0.51585  -0.47160  -0.39028
 Alpha  occ. eigenvalues --   -0.32035
 Alpha virt. eigenvalues --    0.02548   0.03921   0.04469   0.05537   0.06007
 Alpha virt. eigenvalues --    0.06197   0.09731   0.10613   0.10857   0.12427
 Alpha virt. eigenvalues --    0.13041   0.13170   0.14075   0.14230   0.15321

 Mulliken charges:
               1
     1  N    0.709502
     2  C   -1.675932
     3  C    0.452315
     4  O   -1.571796
     5  N    0.683526
     6  C   -0.911924
     7  C    1.106496
     8  H    0.194329
     9  H    0.308360
    10  H    0.276351
    11  H    0.733287
    12  H   -0.161230
    13  H   -0.143282
 Sum of Mulliken charges =  -0.00000

 Dipole moment (field-independent basis, Debye):
    X=             -1.0210    Y=             -4.1015    Z=              0.5134  Tot=              4.2577

 Test job not archived.
 1\1\GINC-SE029\SP\RHF\Aug-CC-pVDZ\C4H6N2O1\OHZDE\09-Apr-2025\0\\#t hf
 aug-cc-pvdz iop(5/13=1,5/36=2,99/5=2) pseudo=read geom=check guess=(re
 ad,tcheck) scf=(maxcycle=1)\\title\\0,1\N,0,-1.83041981,0.58919582,-0.
 13169043\C,0,-0.45472782,0.27641281,0.03287164\C,0,-0.02825583,-1.0471
 1176,0.15029082\O,0,-0.81949972,-2.13116059,0.08387433\N,0,1.29285065,
 -1.16392231,0.28677829\C,0,1.77508775,0.20513843,0.14293035\C,0,0.6883
 9511,1.06804125,0.01542694\H,0,-1.98231617,1.31444728,-0.81671947\H,0,
 -2.26449802,0.87273885,0.73601246\H,0,-1.70192505,-1.80473501,-0.13568

 Normal termination of Gaussian 16 at Wed Apr  9 19:09:57 2025.
