 Gaussian 16, Revision C.01,

 ----------------------------------------------------------------------
 #t hf aug-cc-pvdz symm=none int=(grid=ultrafine) guess=(read,tcheck) s
 table=(opt,rrhf)
 ----------------------------------------------------------------------
 -----
 title
 -----
 Symbolic Z-matrix:
 Charge =  0 Multiplicity = 1

 SCF Done:  E(RHF) =  -322.595105481     A.U. after   13 cycles
 Normal termination of Gaussian 16 at Wed Apr  9 03:27:17 2025.
 Gaussian 16:  ES64L-G16RevC.01  3-Jul-2019

 ----------------------------------------------------------------------
 #t hf aug-cc-pvdz iop(5/13=1,5/36=2,99/5=2) pseudo=read geom=check gue
 ss=(read,tcheck) scf=(maxcycle=1)
 ----------------------------------------------------------------------
 -----
 title
 -----
 Structure from the checkpoint file:  "Grambow2020_wb97xd3_006644_forward_mol2.chk"
 Charge =  0 Multiplicity = 1

                         Standard orientation:
 ---------------------------------------------------------------------
 Center     Atomic      Atomic             Coordinates (Angstroms)
 Number     Number       Type             X           Y           Z
 ---------------------------------------------------------------------
      1          6           0        1.801505    0.710722    0.010848
      2          7           0        1.701236   -0.757778   -0.133116
      3          6           0        0.513201    0.020590   -0.027715
      4          6           0       -0.702646   -0.068076    0.894717
      5          6           0       -1.371091    1.030371    0.047098
      6          6           0       -0.740692   -0.007817   -0.899913
      7          8           0       -1.266629   -1.071001   -0.022674
      8          1           0        2.132718    1.117243    0.961024
      9          1           0        2.182507    1.224274   -0.864190
     10          1           0        1.920520   -1.237002    0.731323
     11          1           0       -0.768132   -0.260414    1.964264
     12          1           0       -0.940504    2.031446    0.072745
     13          1           0       -2.458463    1.018014    0.072070
     14          1           0       -0.845931   -0.135847   -1.974237
 ---------------------------------------------------------------------

 SCF Done:  E(RHF) =  -322.931645553     A.U. after    2 cycles

 The electronic state is 1-A.
 Alpha  occ. eigenvalues --  -20.54158 -15.50471 -11.31092 -11.30728 -11.28245
 Alpha  occ. eigenvalues --  -11.27101 -11.24994  -1.48205  -1.27764  -1.09089
 Alpha  occ. eigenvalues --   -0.91220  -0.90015  -0.89129  -0.76667  -0.72230
 Alpha  occ. eigenvalues --   -0.68935  -0.66286  -0.60508  -0.55726  -0.55168
 Alpha  occ. eigenvalues --   -0.51712  -0.50120  -0.48066  -0.46531  -0.42793
 Alpha  occ. eigenvalues --   -0.40511
 Alpha virt. eigenvalues --    0.03207   0.03762   0.04024   0.04342   0.05615
 Alpha virt. eigenvalues --    0.06146   0.06435   0.09929   0.10456   0.11688
 Alpha virt. eigenvalues --    0.12677   0.13885   0.14077   0.14278   0.14560

 Mulliken charges:
               1
     1  C    0.435594
     2  N    0.742221
     3  C   -1.258633
     4  C    0.696234
     5  C    0.088099
     6  C    0.699692
     7  O   -1.410472
     8  H   -0.083504
     9  H   -0.067315
    10  H    0.304480
    11  H   -0.073788
    12  H    0.009940
    13  H   -0.011221
    14  H   -0.071328
 Sum of Mulliken charges =  -0.00000

 Dipole moment (field-independent basis, Debye):
    X=              0.4417    Y=              2.9536    Z=              1.4736  Tot=              3.3302

 Test job not archived.
 1\1\GINC-SE127\SP\RHF\Aug-CC-pVDZ\C5H7N1O1\OHZDE\09-Apr-2025\0\\#t hf
 aug-cc-pvdz iop(5/13=1,5/36=2,99/5=2) pseudo=read geom=check guess=(re
 ad,tcheck) scf=(maxcycle=1)\\title\\0,1\C,0,-1.52460896,-0.86732236,-0
 .29120851\N,0,-1.83744776,0.55731352,-0.04663556\C,0,-0.47962676,0.127
 61577,-0.05539669\C,0,0.66285902,0.2901201,0.94727179\C,0,1.61137332,-
 0.32123695,-0.1007868\C,0,0.71714916,0.72305447,-0.79496713\O,0,0.9255
 1771,1.61448635,0.36194652\H,0,-1.72992875,-1.58587767,0.49575858\H,0,
 -1.74694497,-1.21166219,-1.2944966\H,0,-2.18204773,0.71156426,0.892753

 Normal termination of Gaussian 16 at Wed Apr  9 03:27:22 2025.
