 Gaussian 16, Revision C.01,

 ----------------------------------------------------------------------
 #t hf aug-cc-pvdz symm=none int=(grid=ultrafine) guess=(read,tcheck) s
 table=(opt,rrhf)
 ----------------------------------------------------------------------
 -----
 title
 -----
 Symbolic Z-matrix:
 Charge =  0 Multiplicity = 1

 SCF Done:  E(RHF) =  -324.921936397     A.U. after   16 cycles
 Normal termination of Gaussian 16 at Wed Apr  9 18:50:53 2025.
 Gaussian 16:  ES64L-G16RevC.01  3-Jul-2019

 ----------------------------------------------------------------------
 #t hf aug-cc-pvdz iop(5/13=1,5/36=2,99/5=2) pseudo=read geom=check gue
 ss=(read,tcheck) scf=(maxcycle=1)
 ----------------------------------------------------------------------
 -----
 title
 -----
 Structure from the checkpoint file:  "Grambow2020_wb97xd3_008116_reverse_mol1.chk"
 Charge =  0 Multiplicity = 1

                         Standard orientation:
 ---------------------------------------------------------------------
 Center     Atomic      Atomic             Coordinates (Angstroms)
 Number     Number       Type             X           Y           Z
 ---------------------------------------------------------------------
      1          6           0        2.695631    0.064355   -0.094040
      2          7           0        1.474681   -0.651986    0.193866
      3          6           0        0.249908   -0.115111    0.050703
      4          8           0        0.160418    1.030523   -0.492220
      5          6           0       -0.927091   -0.739338    0.532253
      6          6           0       -1.560862    1.507085    0.317503
      7          6           0       -1.998286   -1.165093   -0.441081
      8          1           0        3.024115   -0.081723   -1.125889
      9          1           0        3.485962   -0.266546    0.580937
     10          1           0        2.515321    1.128150    0.052980
     11          1           0        1.528842   -1.623202    0.436765
     12          1           0       -0.781414   -1.437165    1.357701
     13          1           0       -1.532688    2.263891   -0.456898
     14          1           0       -1.195435    1.840974    1.277826
     15          1           0       -2.521566    1.007074    0.363431
     16          1           0       -3.003556   -0.990647   -0.033056
     17          1           0       -1.936718   -0.601904   -1.374906
     18          1           0       -1.944772   -2.230576   -0.690227
 ---------------------------------------------------------------------

 SCF Done:  E(RHF) =  -325.265293793     A.U. after    2 cycles

 The electronic state is 1-A.
 Alpha  occ. eigenvalues --  -20.51125 -15.51875 -11.33294 -11.32579 -11.26289
 Alpha  occ. eigenvalues --  -11.21665 -11.17884  -1.44538  -1.23401  -1.02855
 Alpha  occ. eigenvalues --   -0.96908  -0.93783  -0.86092  -0.80277  -0.68096
 Alpha  occ. eigenvalues --   -0.67436  -0.64116  -0.62237  -0.61545  -0.57728
 Alpha  occ. eigenvalues --   -0.55856  -0.55154  -0.53206  -0.50708  -0.49150
 Alpha  occ. eigenvalues --   -0.42956  -0.42030  -0.26379
 Alpha virt. eigenvalues --    0.03334   0.03572   0.04517   0.04585   0.05522
 Alpha virt. eigenvalues --    0.05791   0.06029   0.06589   0.07419   0.08305
 Alpha virt. eigenvalues --    0.09147   0.10386   0.11678   0.13350   0.14077

 Mulliken charges:
               1
     1  C   -0.341073
     2  N    0.995183
     3  C    0.133422
     4  O   -1.393704
     5  C    0.045250
     6  C   -0.034562
     7  C   -0.383693
     8  H    0.132827
     9  H    0.064379
    10  H    0.113038
    11  H    0.109329
    12  H   -0.211897
    13  H    0.137702
    14  H    0.185209
    15  H    0.103636
    16  H    0.143984
    17  H    0.137635
    18  H    0.063334
 Sum of Mulliken charges =  -0.00000

 Dipole moment (field-independent basis, Debye):
    X=              0.6196    Y=             -0.0349    Z=              0.8024  Tot=              1.0144

 Test job not archived.
 1\1\GINC-SE340\SP\RHF\Aug-CC-pVDZ\C5H11N1O1\OHZDE\09-Apr-2025\0\\#t hf
  aug-cc-pvdz iop(5/13=1,5/36=2,99/5=2) pseudo=read geom=check guess=(r
 ead,tcheck) scf=(maxcycle=1)\\title\\0,1\C,0,2.82076809,0.16297588,-0.
 11252552\N,0,1.51444936,0.53160401,-0.60689126\C,0,0.36636116,0.063540
 76,-0.08572913\O,0,0.43265336,-0.62933936,0.97764799\C,0,-0.89501478,0
 .25553331,-0.70131712\C,0,-1.25979042,-1.58224156,0.70712915\C,0,-1.96
 058273,1.05072989,0.01165812\H,0,3.17872663,0.85223409,0.65607254\H,0,
 3.53600347,0.14593256,-0.93584736\H,0,2.75525432,-0.82929179,0.3312067

 Normal termination of Gaussian 16 at Wed Apr  9 18:50:59 2025.
