 Gaussian 16, Revision C.01,

 ----------------------------------------------------------------------
 #t hf aug-cc-pvdz symm=none int=(grid=ultrafine) guess=(read,tcheck) s
 table=(opt,rrhf)
 ----------------------------------------------------------------------
 -----
 title
 -----
 Symbolic Z-matrix:
 Charge =  0 Multiplicity = 1

 SCF Done:  E(RHF) =  -342.475348277     A.U. after   16 cycles
 Normal termination of Gaussian 16 at Wed Apr  9 19:16:57 2025.
 Gaussian 16:  ES64L-G16RevC.01  3-Jul-2019

 ----------------------------------------------------------------------
 #t hf aug-cc-pvdz iop(5/13=1,5/36=2,99/5=2) pseudo=read geom=check gue
 ss=(read,tcheck) scf=(maxcycle=1)
 ----------------------------------------------------------------------
 -----
 title
 -----
 Structure from the checkpoint file:  "Grambow2020_wb97xd3_009063_forward_mol1.chk"
 Charge =  0 Multiplicity = 1

                         Standard orientation:
 ---------------------------------------------------------------------
 Center     Atomic      Atomic             Coordinates (Angstroms)
 Number     Number       Type             X           Y           Z
 ---------------------------------------------------------------------
      1          8           0       -2.315521   -0.667696   -0.057667
      2          6           0       -1.179888   -0.271996   -0.022841
      3          6           0       -0.784433    1.212387   -0.173867
      4          6           0        0.708668    1.318323    0.209718
      5          6           0        1.129930   -0.109890    0.137182
      6          8           0        2.229408   -0.612228   -0.243749
      7          6           0        0.059891   -1.037960    0.188868
      8          1           0       -1.437318    1.828045    0.443101
      9          1           0       -0.950717    1.504031   -1.213326
     10          1           0        0.822429    1.662633    1.241145
     11          1           0        1.306837    1.958767   -0.435915
     12          1           0        0.090695   -1.898642    0.849440
     13          1           0        1.251973   -1.480629   -0.507473
 ---------------------------------------------------------------------

 SCF Done:  E(RHF) =  -342.821912345     A.U. after    2 cycles

 The electronic state is 1-A.
 Alpha  occ. eigenvalues --  -20.58147 -20.53097 -11.38525 -11.34671 -11.28119
 Alpha  occ. eigenvalues --  -11.26749 -11.23825  -1.52007  -1.47088  -1.16376
 Alpha  occ. eigenvalues --   -1.02737  -0.95361  -0.81470  -0.77726  -0.69651
 Alpha  occ. eigenvalues --   -0.69087  -0.67685  -0.62840  -0.60094  -0.59069
 Alpha  occ. eigenvalues --   -0.56596  -0.55889  -0.50855  -0.48499  -0.40404
 Alpha  occ. eigenvalues --   -0.37663
 Alpha virt. eigenvalues --    0.02948   0.03620   0.03975   0.04595   0.06086
 Alpha virt. eigenvalues --    0.06577   0.08266   0.08729   0.09229   0.11632
 Alpha virt. eigenvalues --    0.12210   0.14052   0.14239   0.14486   0.14787

 Mulliken charges:
               1
     1  O   -1.374001
     2  C    1.125974
     3  C   -0.403039
     4  C   -0.387356
     5  C    1.311115
     6  O   -1.511421
     7  C   -0.222340
     8  H    0.184473
     9  H    0.237802
    10  H    0.272383
    11  H    0.177624
    12  H   -0.014150
    13  H    0.602937
 Sum of Mulliken charges =  -0.00000

 Dipole moment (field-independent basis, Debye):
    X=              1.9286    Y=              2.4006    Z=              0.7526  Tot=              3.1700

 Test job not archived.
 1\1\GINC-SE117\SP\RHF\Aug-CC-pVDZ\C5H6O2\OHZDE\09-Apr-2025\0\\#t hf au
 g-cc-pvdz iop(5/13=1,5/36=2,99/5=2) pseudo=read geom=check guess=(read
 ,tcheck) scf=(maxcycle=1)\\title\\0,1\O,0,0.49882082,-2.45225276,-0.53
 596426\C,0,0.30560749,-1.28990815,-0.2929067\C,0,-1.0990952,-0.6630584
 5,-0.16462481\C,0,-0.90468201,0.752665,0.42328713\C,0,0.55242724,0.966
 4972,0.19171545\O,0,1.17772801,2.02594829,-0.11302425\C,0,1.28813792,-
 0.22292979,-0.03841801\H,0,-1.7304698,-1.3057431,0.44714735\H,0,-1.545
 44214,-0.62326419,-1.16080332\H,0,-1.08983985,0.7558328,1.50080282\H,0

 Normal termination of Gaussian 16 at Wed Apr  9 19:17:01 2025.
