 Gaussian 16, Revision C.01,

 ----------------------------------------------------------------------
 #t hf aug-cc-pvdz symm=none int=(grid=ultrafine) guess=(read,tcheck) s
 table=(opt,rrhf)
 ----------------------------------------------------------------------
 -----
 title
 -----
 Symbolic Z-matrix:
 Charge =  0 Multiplicity = 1

 SCF Done:  E(RHF) =  -321.447927999     A.U. after   15 cycles
 Normal termination of Gaussian 16 at Wed Apr  9 18:22:04 2025.
 Gaussian 16:  ES64L-G16RevC.01  3-Jul-2019

 ----------------------------------------------------------------------
 #t hf aug-cc-pvdz iop(5/13=1,5/36=2,99/5=2) pseudo=read geom=check gue
 ss=(read,tcheck) scf=(maxcycle=1)
 ----------------------------------------------------------------------
 -----
 title
 -----
 Structure from the checkpoint file:  "Grambow2020_wb97xd3_007499_reverse_mol2.chk"
 Charge =  0 Multiplicity = 1

                         Standard orientation:
 ---------------------------------------------------------------------
 Center     Atomic      Atomic             Coordinates (Angstroms)
 Number     Number       Type             X           Y           Z
 ---------------------------------------------------------------------
      1          8           0       -0.404658    1.591917   -0.006786
      2          6           0       -0.580900    0.400899    0.001003
      3          6           0       -1.910470   -0.188821   -0.003448
      4          6           0       -2.990191   -0.706126   -0.006488
      5          6           0        0.558497   -0.592874    0.019170
      6          6           0        3.036527   -0.452503   -0.020407
      7          7           0        1.849646    0.082754    0.010784
      8          1           0       -3.958544   -1.151373   -0.009272
      9          1           0        0.452657   -1.218541    0.910053
     10          1           0        0.459897   -1.248254   -0.850480
     11          1           0        2.888507   -1.553047   -0.040533
     12          1           0        1.766446    1.093145    0.030056
 ---------------------------------------------------------------------

 SCF Done:  E(RHF) =  -321.769244840     A.U. after    2 cycles

 The electronic state is 1-A.
 Alpha  occ. eigenvalues --  -20.58248 -15.55753 -11.39792 -11.31277 -11.29559
 Alpha  occ. eigenvalues --  -11.28160 -11.25695  -1.52182  -1.27699  -1.10185
 Alpha  occ. eigenvalues --   -1.04495  -0.91758  -0.86646  -0.76950  -0.73312
 Alpha  occ. eigenvalues --   -0.71796  -0.68614  -0.65390  -0.60736  -0.57240
 Alpha  occ. eigenvalues --   -0.49453  -0.47931  -0.45534  -0.44976  -0.35745
 Alpha virt. eigenvalues --    0.02368   0.03589   0.04099   0.05687   0.05954
 Alpha virt. eigenvalues --    0.06319   0.07824   0.08628   0.09484   0.10161
 Alpha virt. eigenvalues --    0.11325   0.11505   0.12696   0.12977   0.14592

 Mulliken charges:
               1
     1  O   -1.323888
     2  C    1.124617
     3  C    0.391233
     4  C    0.251158
     5  C   -0.819671
     6  C   -0.631316
     7  N    0.807726
     8  H   -0.353885
     9  H    0.165953
    10  H    0.157487
    11  H    0.041059
    12  H    0.189527
 Sum of Mulliken charges =  -0.00000

 Dipole moment (field-independent basis, Debye):
    X=             -4.4018    Y=             -3.1903    Z=              0.0681  Tot=              5.4368

 Test job not archived.
 1\1\GINC-SE116\SP\RHF\Aug-CC-pVDZ\C5H5N1O1\OHZDE\09-Apr-2025\0\\#t hf
 aug-cc-pvdz iop(5/13=1,5/36=2,99/5=2) pseudo=read geom=check guess=(re
 ad,tcheck) scf=(maxcycle=1)\\title\\0,1\O,0,0.50657583,0.84796814,1.73
 7694\C,0,0.67527239,0.2745275,0.69253658\C,0,1.98437117,-0.19239578,0.
 26383031\C,0,3.04734532,-0.58897922,-0.11855322\C,0,-0.45261007,-0.011
 77615,-0.27289199\C,0,-2.90529954,0.36965019,-0.29993063\N,0,-1.725305
 52,0.47855632,0.24036022\H,0,4.00077332,-0.93598896,-0.44492644\H,0,-0
 .21164863,0.45951688,-1.23005209\H,0,-0.49541228,-1.0907341,-0.4448043

 Normal termination of Gaussian 16 at Wed Apr  9 18:22:08 2025.
