 Gaussian 16, Revision C.01,

 ----------------------------------------------------------------------
 #t hf aug-cc-pvdz symm=none int=(grid=ultrafine) guess=(read,tcheck) s
 table=(opt,rrhf)
 ----------------------------------------------------------------------
 -----
 title
 -----
 Symbolic Z-matrix:
 Charge =  0 Multiplicity = 1

 SCF Done:  E(RHF) =  -307.689040779     A.U. after   15 cycles

 1\1\GINC-SE084\Stability\RHF\Aug-CC-pVDZ\C6H10O1\OHZDE\09-Apr-2025\0\\
 #t hf aug-cc-pvdz symm=none int=(grid=ultrafine) guess=(read,tcheck) s
 table=(opt,rrhf)\\title\\0,1\C,0,1.96829722,0.45243617,-0.61693655\C,0
 ,0.92713107,0.12307596,0.38576697\C,0,0.20577816,-1.11569171,0.4969255
 7\C,0,-1.63245846,-1.05083153,-0.28609292\C,0,-0.80034015,0.12433909,-
 0.35386291\C,0,-0.91486179,1.22131464,0.69448638\O,0,0.43253554,1.2026
 1374,1.1530676\H,0,2.83353542,0.91391911,-0.13512179\H,0,2.31600427,-0
 .4456559,-1.13067172\H,0,1.60965416,1.16579019,-1.37814669\H,0,0.58149

 Normal termination of Gaussian 16 at Wed Apr  9 03:34:39 2025.
 Gaussian 16:  ES64L-G16RevC.01  3-Jul-2019

 ----------------------------------------------------------------------
 #t hf aug-cc-pvdz iop(5/13=1,5/36=2,99/5=2) pseudo=read geom=check gue
 ss=(read,tcheck) scf=(maxcycle=1)
 ----------------------------------------------------------------------
 -----
 title
 -----
 Structure from the checkpoint file:  "Grambow2020_wb97xd3_007036_forward_mol1.chk"
 Charge =  0 Multiplicity = 1

                         Standard orientation:
 ---------------------------------------------------------------------
 Center     Atomic      Atomic             Coordinates (Angstroms)
 Number     Number       Type             X           Y           Z
 ---------------------------------------------------------------------
      1          6           0       -1.942837   -0.711656    0.446588
      2          6           0       -0.818356   -0.192096   -0.367978
      3          6           0        0.314675   -0.940343   -0.840862
      4          6           0        1.968069   -0.675291    0.251142
      5          6           0        0.757423    0.005795    0.636497
      6          6           0        0.494437    1.437574    0.193380
      7          8           0       -0.732337    1.213527   -0.492882
      8          1           0       -2.899562   -0.376323    0.039182
      9          1           0       -1.950743   -1.803117    0.453192
     10          1           0       -1.902215   -0.362688    1.492299
     11          1           0        0.239675   -2.009092   -0.700230
     12          1           0        0.780136   -0.638446   -1.772861
     13          1           0        2.671108   -0.182231   -0.403078
     14          1           0        2.293607   -1.543285    0.803526
     15          1           0        0.321163   -0.284659    1.594685
     16          1           0        1.270894    1.793080   -0.491049
     17          1           0        0.394168    2.154651    1.014794
 ---------------------------------------------------------------------

 SCF Done:  E(RHF) =  -308.014663079     A.U. after    2 cycles

 The electronic state is 1-A.
 Alpha  occ. eigenvalues --  -20.54694 -11.31611 -11.30869 -11.29673 -11.26658
 Alpha  occ. eigenvalues --  -11.23420 -11.20355  -1.47749  -1.13680  -1.03097
 Alpha  occ. eigenvalues --   -0.95463  -0.90466  -0.83735  -0.73844  -0.69778
 Alpha  occ. eigenvalues --   -0.66873  -0.64820  -0.60896  -0.58768  -0.58009
 Alpha  occ. eigenvalues --   -0.56949  -0.55371  -0.53523  -0.48824  -0.46730
 Alpha  occ. eigenvalues --   -0.42893  -0.21819
 Alpha virt. eigenvalues --    0.03435   0.03521   0.04137   0.04180   0.05769
 Alpha virt. eigenvalues --    0.06070   0.06279   0.07013   0.07845   0.09157
 Alpha virt. eigenvalues --    0.10553   0.12113   0.12451   0.13657   0.13933

 Mulliken charges:
               1
     1  C   -0.399628
     2  C    0.906618
     3  C    0.309295
     4  C    0.171970
     5  C   -0.069148
     6  C    0.510415
     7  O   -1.673215
     8  H    0.177432
     9  H    0.183349
    10  H    0.203771
    11  H   -0.027990
    12  H   -0.010947
    13  H   -0.146404
    14  H   -0.198988
    15  H   -0.101659
    16  H    0.087739
    17  H    0.077392
 Sum of Mulliken charges =  -0.00000

 Dipole moment (field-independent basis, Debye):
    X=              0.2790    Y=             -1.2276    Z=              0.4336  Tot=              1.3315

 Test job not archived.
 1\1\GINC-SE084\SP\RHF\Aug-CC-pVDZ\C6H10O1\OHZDE\09-Apr-2025\0\\#t hf a
 ug-cc-pvdz iop(5/13=1,5/36=2,99/5=2) pseudo=read geom=check guess=(rea
 d,tcheck) scf=(maxcycle=1)\\title\\0,1\C,0,1.96829722,0.45243617,-0.61
 693655\C,0,0.92713107,0.12307596,0.38576697\C,0,0.20577816,-1.11569171
 ,0.49692557\C,0,-1.63245846,-1.05083153,-0.28609292\C,0,-0.80034015,0.
 12433909,-0.35386291\C,0,-0.91486179,1.22131464,0.69448638\O,0,0.43253
 554,1.20261374,1.1530676\H,0,2.83353542,0.91391911,-0.13512179\H,0,2.3
 1600427,-0.4456559,-1.13067172\H,0,1.60965416,1.16579019,-1.37814669\H

 Normal termination of Gaussian 16 at Wed Apr  9 03:34:47 2025.
