 Gaussian 16, Revision C.01,

 ----------------------------------------------------------------------
 #t hf aug-cc-pvdz symm=none int=(grid=ultrafine) guess=(read,tcheck) s
 table=(opt,rrhf)
 ----------------------------------------------------------------------
 -----
 title
 -----
 Symbolic Z-matrix:
 Charge =  0 Multiplicity = 1

 SCF Done:  E(RHF) =  -320.571633442     A.U. after   16 cycles
 Normal termination of Gaussian 16 at Wed Apr  9 16:09:44 2025.
 Gaussian 16:  ES64L-G16RevC.01  3-Jul-2019

 ----------------------------------------------------------------------
 #t hf aug-cc-pvdz iop(5/13=1,5/36=2,99/5=2) pseudo=read geom=check gue
 ss=(read,tcheck) scf=(maxcycle=1)
 ----------------------------------------------------------------------
 -----
 title
 -----
 Structure from the checkpoint file:  "Grambow2020_b97d3_007136_forward_mol1.chk"
 Charge =  0 Multiplicity = 1

                         Standard orientation:
 ---------------------------------------------------------------------
 Center     Atomic      Atomic             Coordinates (Angstroms)
 Number     Number       Type             X           Y           Z
 ---------------------------------------------------------------------
      1          8           0       -2.059667   -0.272776    0.148684
      2          6           0       -0.947611    0.120524    0.114979
      3          7           0       -0.181030    1.209866   -0.169922
      4          6           0        1.235519    0.868144    0.036838
      5          6           0        1.102787   -0.655318    0.384438
      6          8           0        0.522145   -1.367778   -0.534066
      7          1           0       -0.440936    1.642568   -1.059369
      8          1           0        1.806850    1.005090   -0.889748
      9          1           0        1.661583    1.472005    0.848411
     10          1           0        0.191155   -0.405570    1.261709
     11          1           0        2.004565   -1.058824    0.893982
 ---------------------------------------------------------------------

 SCF Done:  E(RHF) =  -320.892889893     A.U. after    2 cycles

 The electronic state is 1-A.
 Alpha  occ. eigenvalues --  -20.64883 -20.46957 -15.60367 -11.50515 -11.33133
 Alpha  occ. eigenvalues --  -11.30410  -1.58153  -1.39651  -1.31300  -1.02023
 Alpha  occ. eigenvalues --   -0.91888  -0.81182  -0.77507  -0.73110  -0.71727
 Alpha  occ. eigenvalues --   -0.64260  -0.63414  -0.59095  -0.56292  -0.53769
 Alpha  occ. eigenvalues --   -0.50217  -0.37676  -0.35923
 Alpha virt. eigenvalues --    0.02166   0.03748   0.04545   0.04652   0.05266
 Alpha virt. eigenvalues --    0.06854   0.09098   0.10041   0.10394   0.11115
 Alpha virt. eigenvalues --    0.12968   0.13536   0.14642   0.15371   0.15798

 Mulliken charges:
               1
     1  O   -0.925251
     2  C    0.488950
     3  N    0.520857
     4  C   -0.455583
     5  C    0.572430
     6  O   -1.274381
     7  H    0.289259
     8  H    0.090319
     9  H    0.090125
    10  H    0.499207
    11  H    0.104069
 Sum of Mulliken charges =  -0.00000

 Dipole moment (field-independent basis, Debye):
    X=              1.1318    Y=              4.6157    Z=              0.5155  Tot=              4.7803

 Test job not archived.
 1\1\GINC-SE129\SP\RHF\Aug-CC-pVDZ\C3H5N1O2\OHZDE\09-Apr-2025\0\\#t hf
 aug-cc-pvdz iop(5/13=1,5/36=2,99/5=2) pseudo=read geom=check guess=(re
 ad,tcheck) scf=(maxcycle=1)\\title\\0,1\O,0,2.4521136,0.63719248,0.395
 31168\C,0,1.34581305,0.23088512,0.33612573\N,0,0.53708685,-0.79826923,
 0.7133315\C,0,-0.8193161,-0.55863329,0.19479381\C,0,-0.56949559,0.7487
 6021,-0.63447691\O,0,0.33187357,0.63243585,-1.56312941\H,0,0.96214358,
 -1.71017046,0.52986099\H,0,-1.13406441,-1.37909328,-0.46210417\H,0,-1.
 52923756,-0.42947099,1.02193213\H,0,0.0276638,1.30336026,0.36495817\H,

 Normal termination of Gaussian 16 at Wed Apr  9 16:09:48 2025.
