 Gaussian 16, Revision C.01,

 ----------------------------------------------------------------------
 #t hf aug-cc-pvdz symm=none int=(grid=ultrafine) guess=(read,tcheck) s
 table=(opt,rrhf)
 ----------------------------------------------------------------------
 -----
 title
 -----
 Symbolic Z-matrix:
 Charge =  0 Multiplicity = 1

 SCF Done:  E(RHF) =  -270.040900317     A.U. after   13 cycles

 1\1\GINC-SE162\Stability\RHF\Aug-CC-pVDZ\C5H10O1\OHZDE\09-Apr-2025\0\\
 #t hf aug-cc-pvdz symm=none int=(grid=ultrafine) guess=(read,tcheck) s
 table=(opt,rrhf)\\title\\0,1\C,0,2.32611011,-0.36156869,-0.44410486\C,
 0,1.2803903,0.75378312,-0.25426673\C,0,-0.01809559,0.24854656,0.316104
 63\O,0,0.16227706,-0.23729153,1.59343362\C,0,-1.19433129,0.25963779,-0
 .34815958\C,0,-2.52187391,-0.23599949,0.16199779\H,0,3.26505078,0.0497
 8518,-0.84047297\H,0,2.54099697,-0.85679126,0.51109538\H,0,1.95684423,
 -1.12067148,-1.14773211\H,0,1.07383044,1.24595255,-1.21431867\H,0,1.68

 Normal termination of Gaussian 16 at Wed Apr  9 15:47:55 2025.
 Gaussian 16:  ES64L-G16RevC.01  3-Jul-2019

 ----------------------------------------------------------------------
 #t hf aug-cc-pvdz iop(5/13=1,5/36=2,99/5=2) pseudo=read geom=check gue
 ss=(read,tcheck) scf=(maxcycle=1)
 ----------------------------------------------------------------------
 -----
 title
 -----
 Structure from the checkpoint file:  "Grambow2020_b97d3_006744_reverse_mol2.chk"
 Charge =  0 Multiplicity = 1

                         Standard orientation:
 ---------------------------------------------------------------------
 Center     Atomic      Atomic             Coordinates (Angstroms)
 Number     Number       Type             X           Y           Z
 ---------------------------------------------------------------------
      1          6           0        2.354150   -0.204544    0.569443
      2          6           0        1.336172   -0.459793   -0.558451
      3          6           0       -0.036432    0.070408   -0.239864
      4          8           0       -0.019821    1.444629   -0.133173
      5          6           0       -1.128856   -0.705466   -0.068018
      6          6           0       -2.523149   -0.238772    0.258220
      7          1           0        3.346593   -0.585486    0.290392
      8          1           0        2.441067    0.869497    0.776109
      9          1           0        2.038574   -0.706672    1.494627
     10          1           0        1.257956   -1.536613   -0.760786
     11          1           0        1.693304    0.020335   -1.483932
     12          1           0       -0.913888    1.742341    0.121047
     13          1           0       -0.985965   -1.781105   -0.170894
     14          1           0       -3.258109   -0.668233   -0.440014
     15          1           0       -2.830705   -0.537702    1.273642
     16          1           0       -2.641561    0.855616    0.197214
 ---------------------------------------------------------------------

 SCF Done:  E(RHF) =  -270.330232487     A.U. after    2 cycles

 The electronic state is 1-A.
 Alpha  occ. eigenvalues --  -20.57206 -11.29823 -11.24215 -11.23692 -11.22462
 Alpha  occ. eigenvalues --  -11.22315  -1.47761  -1.07504  -1.02375  -0.92978
 Alpha  occ. eigenvalues --   -0.84407  -0.77189  -0.68985  -0.63744  -0.59746
 Alpha  occ. eigenvalues --   -0.59227  -0.56926  -0.55875  -0.54710  -0.51803
 Alpha  occ. eigenvalues --   -0.51041  -0.49680  -0.48688  -0.32868
 Alpha virt. eigenvalues --    0.03450   0.03940   0.04340   0.04383   0.05772
 Alpha virt. eigenvalues --    0.06267   0.06327   0.07617   0.08743   0.09425
 Alpha virt. eigenvalues --    0.11861   0.12892   0.13226   0.14085   0.14894

 Mulliken charges:
               1
     1  C   -0.451860
     2  C   -0.532108
     3  C    1.826032
     4  O   -1.661286
     5  C    0.088901
     6  C   -0.813356
     7  H    0.121880
     8  H    0.211444
     9  H    0.167325
    10  H    0.147709
    11  H    0.217287
    12  H    0.353371
    13  H   -0.241830
    14  H    0.223794
    15  H    0.254742
    16  H    0.087955
 Sum of Mulliken charges =   0.00000

 Dipole moment (field-independent basis, Debye):
    X=             -0.9244    Y=             -0.4031    Z=              0.2550  Tot=              1.0402

 Test job not archived.
 1\1\GINC-SE162\SP\RHF\Aug-CC-pVDZ\C5H10O1\OHZDE\09-Apr-2025\0\\#t hf a
 ug-cc-pvdz iop(5/13=1,5/36=2,99/5=2) pseudo=read geom=check guess=(rea
 d,tcheck) scf=(maxcycle=1)\\title\\0,1\C,0,2.32611011,-0.36156869,-0.4
 4410486\C,0,1.2803903,0.75378312,-0.25426673\C,0,-0.01809559,0.2485465
 6,0.31610463\O,0,0.16227706,-0.23729153,1.59343362\C,0,-1.19433129,0.2
 5963779,-0.34815958\C,0,-2.52187391,-0.23599949,0.16199779\H,0,3.26505
 078,0.04978518,-0.84047297\H,0,2.54099697,-0.85679126,0.51109538\H,0,1
 .95684423,-1.12067148,-1.14773211\H,0,1.07383044,1.24595255,-1.2143186

 Normal termination of Gaussian 16 at Wed Apr  9 15:48:00 2025.
