 Gaussian 16, Revision C.01,

 ----------------------------------------------------------------------
 #t hf aug-cc-pvdz symm=none int=(grid=ultrafine) guess=(read,tcheck) s
 table=(opt,rrhf)
 ----------------------------------------------------------------------
 -----
 title
 -----
 Symbolic Z-matrix:
 Charge =  0 Multiplicity = 1

 SCF Done:  E(RHF) =  -360.692335762     A.U. after   18 cycles
 Normal termination of Gaussian 16 at Wed Apr  9 18:31:40 2025.
 Gaussian 16:  ES64L-G16RevC.01  3-Jul-2019

 ----------------------------------------------------------------------
 #t hf aug-cc-pvdz iop(5/13=1,5/36=2,99/5=2) pseudo=read geom=check gue
 ss=(read,tcheck) scf=(maxcycle=1)
 ----------------------------------------------------------------------
 -----
 title
 -----
 Structure from the checkpoint file:  "Grambow2020_wb97xd3_007668_reverse_mol1.chk"
 Charge =  0 Multiplicity = 1

                         Standard orientation:
 ---------------------------------------------------------------------
 Center     Atomic      Atomic             Coordinates (Angstroms)
 Number     Number       Type             X           Y           Z
 ---------------------------------------------------------------------
      1          6           0       -2.172725   -0.577941   -0.574153
      2          8           0       -1.719303    0.372482    0.355598
      3          6           0       -0.469182    0.096944    0.904819
      4          6           0        0.702317    0.338427   -0.097356
      5          7           0        1.798199   -0.426443    0.172285
      6          8           0        1.470741   -1.609026   -0.174063
      7          6           0        0.907084    1.794982   -0.411285
      8          1           0       -3.195458   -0.309325   -0.832032
      9          1           0       -1.561989   -0.572412   -1.485759
     10          1           0       -2.159535   -1.589544   -0.149743
     11          1           0       -0.415931   -0.923022    1.300727
     12          1           0       -0.353088    0.810583    1.726012
     13          1           0        0.450110   -0.969106   -0.672718
     14          1           0        1.170268    2.368697    0.483116
     15          1           0       -0.024346    2.207048   -0.801676
     16          1           0        1.686102    1.940064   -1.158350
 ---------------------------------------------------------------------

 SCF Done:  E(RHF) =  -361.060747286     A.U. after    2 cycles

 The electronic state is 1-A.
 Alpha  occ. eigenvalues --  -20.61590 -20.56138 -15.65185 -11.31605 -11.29021
 Alpha  occ. eigenvalues --  -11.26272 -11.23924  -1.58295  -1.48724  -1.15830
 Alpha  occ. eigenvalues --   -1.00432  -0.97293  -0.91136  -0.82559  -0.71904
 Alpha  occ. eigenvalues --   -0.70721  -0.68529  -0.67655  -0.63051  -0.61421
 Alpha  occ. eigenvalues --   -0.58613  -0.56434  -0.54949  -0.52565  -0.49623
 Alpha  occ. eigenvalues --   -0.47718  -0.43378  -0.36300
 Alpha virt. eigenvalues --    0.02048   0.03801   0.04113   0.04564   0.04719
 Alpha virt. eigenvalues --    0.06157   0.06261   0.07111   0.08219   0.08711
 Alpha virt. eigenvalues --    0.11587   0.12096   0.13497   0.14249   0.14724

 Mulliken charges:
               1
     1  C    0.297653
     2  O   -1.222722
     3  C    0.789283
     4  C   -2.002605
     5  N    1.557635
     6  O   -1.244839
     7  C   -0.255063
     8  H   -0.036287
     9  H    0.226497
    10  H    0.172710
    11  H    0.171878
    12  H    0.038916
    13  H    0.833460
    14  H    0.278228
    15  H    0.264225
    16  H    0.131030
 Sum of Mulliken charges =  -0.00000

 Dipole moment (field-independent basis, Debye):
    X=             -1.6296    Y=              0.3664    Z=             -0.5643  Tot=              1.7631

 Test job not archived.
 1\1\GINC-SE226\SP\RHF\Aug-CC-pVDZ\C4H9N1O2\OHZDE\09-Apr-2025\0\\#t hf
 aug-cc-pvdz iop(5/13=1,5/36=2,99/5=2) pseudo=read geom=check guess=(re
 ad,tcheck) scf=(maxcycle=1)\\title\\0,1\C,0,2.06637675,0.42563978,-0.2
 3240619\O,0,1.36942178,-0.32606584,0.72807443\C,0,0.11739381,0.1821523
 2,1.06646534\C,0,-0.94883305,-0.03167945,-0.05269237\N,0,-1.94356157,0
 .90018151,-0.02369578\O,0,-1.40552393,1.97324214,-0.45351501\C,0,-1.32
 818576,-1.47683268,-0.22490686\H,0,3.06141424,-0.0074406,-0.31595572\H
 ,0,1.57481354,0.38132548,-1.21243504\H,0,2.15263942,1.47698213,0.06905

 Normal termination of Gaussian 16 at Wed Apr  9 18:31:45 2025.
