 Gaussian 16, Revision C.01,

 ----------------------------------------------------------------------
 #t hf aug-cc-pvdz symm=none int=(grid=ultrafine) guess=(read,tcheck) s
 table=(opt,rrhf)
 ----------------------------------------------------------------------
 -----
 title
 -----
 Symbolic Z-matrix:
 Charge =  0 Multiplicity = 1

 SCF Done:  E(RHF) =  -359.731297793     A.U. after   14 cycles
 Normal termination of Gaussian 16 at Wed Apr  9 17:26:38 2025.
 Gaussian 16:  ES64L-G16RevC.01  3-Jul-2019

 ----------------------------------------------------------------------
 #t hf aug-cc-pvdz iop(5/13=1,5/36=2,99/5=2) pseudo=read geom=check gue
 ss=(read,tcheck) scf=(maxcycle=1)
 ----------------------------------------------------------------------
 -----
 title
 -----
 Structure from the checkpoint file:  "Grambow2020_wb97xd3_006600_reverse_mol2.chk"
 Charge =  0 Multiplicity = 1

                         Standard orientation:
 ---------------------------------------------------------------------
 Center     Atomic      Atomic             Coordinates (Angstroms)
 Number     Number       Type             X           Y           Z
 ---------------------------------------------------------------------
      1          6           0        1.532111    1.336301   -0.331134
      2          7           0       -2.129361    1.381874    0.030509
      3          6           0       -1.692366    0.322677    0.068956
      4          6           0       -1.160963   -1.052571    0.088283
      5          8           0        0.044347   -1.181946   -0.613707
      6          6           0        1.196609   -0.937884    0.161349
      7          8           0        1.276414    0.349889    0.653167
      8          1           0        0.719273    1.398668   -1.058452
      9          1           0        1.614702    2.287031    0.190393
     10          1           0        2.472306    1.124219   -0.852619
     11          1           0       -1.894503   -1.699316   -0.395294
     12          1           0       -1.059122   -1.367039    1.133146
     13          1           0        2.030888   -1.174741   -0.507568
     14          1           0        1.203556   -1.596624    1.036429
 ---------------------------------------------------------------------

 SCF Done:  E(RHF) =  -360.094018512     A.U. after    2 cycles

 The electronic state is 1-A.
 Alpha  occ. eigenvalues --  -20.58393 -20.56586 -15.51612 -11.35693 -11.35031
 Alpha  occ. eigenvalues --  -11.28756 -11.28146  -1.53493  -1.46788  -1.23960
 Alpha  occ. eigenvalues --   -1.04157  -0.97649  -0.88017  -0.76168  -0.73437
 Alpha  occ. eigenvalues --   -0.71452  -0.68125  -0.64583  -0.61302  -0.60870
 Alpha  occ. eigenvalues --   -0.57741  -0.55844  -0.51287  -0.50135  -0.48299
 Alpha  occ. eigenvalues --   -0.47997  -0.44940
 Alpha virt. eigenvalues --    0.03232   0.03855   0.04325   0.04774   0.06112
 Alpha virt. eigenvalues --    0.07293   0.07529   0.08249   0.10578   0.11648
 Alpha virt. eigenvalues --    0.12513   0.14085   0.14227   0.14723   0.15565

 Mulliken charges:
               1
     1  C    0.125419
     2  N    0.814703
     3  C   -1.372509
     4  C    0.770749
     5  O   -1.218579
     6  C    1.143229
     7  O   -1.195805
     8  H    0.251823
     9  H    0.015322
    10  H    0.156214
    11  H    0.079938
    12  H    0.307792
    13  H    0.062059
    14  H    0.059645
 Sum of Mulliken charges =  -0.00000

 Dipole moment (field-independent basis, Debye):
    X=              2.1525    Y=             -3.6185    Z=              0.1078  Tot=              4.2117

 Test job not archived.
 1\1\GINC-SE220\SP\RHF\Aug-CC-pVDZ\C4H7N1O2\OHZDE\09-Apr-2025\0\\#t hf
 aug-cc-pvdz iop(5/13=1,5/36=2,99/5=2) pseudo=read geom=check guess=(re
 ad,tcheck) scf=(maxcycle=1)\\title\\0,1\C,0,1.31846733,-1.17171906,-0.
 91730571\N,0,1.55309979,2.05778701,0.83040196\C,0,0.47170533,1.7554917
 5,0.59900321\C,0,-0.92616376,1.40760903,0.28434627\O,0,-1.04257707,0.5
 7580405,-0.83674672\C,0,-0.97352837,-0.80228643,-0.5467724\O,0,0.23353
 787,-1.19954234,-0.00659555\H,0,1.52483742,-0.15707915,-1.26588145\H,0
 ,2.18797044,-1.54630065,-0.38218806\H,0,1.11431395,-1.81836054,-1.7781

 Normal termination of Gaussian 16 at Wed Apr  9 17:26:42 2025.
