 Gaussian 16, Revision C.01,

 ----------------------------------------------------------------------
 #t hf aug-cc-pvdz symm=none int=(grid=ultrafine) guess=(read,tcheck) s
 table=(opt,rrhf)
 ----------------------------------------------------------------------
 -----
 title
 -----
 Symbolic Z-matrix:
 Charge =  0 Multiplicity = 1

 SCF Done:  E(RHF) =  -359.688135383     A.U. after   15 cycles
 Normal termination of Gaussian 16 at Wed Apr  9 19:18:00 2025.
 Gaussian 16:  ES64L-G16RevC.01  3-Jul-2019

 ----------------------------------------------------------------------
 #t hf aug-cc-pvdz iop(5/13=1,5/36=2,99/5=2) pseudo=read geom=check gue
 ss=(read,tcheck) scf=(maxcycle=1)
 ----------------------------------------------------------------------
 -----
 title
 -----
 Structure from the checkpoint file:  "Grambow2020_wb97xd3_009247_forward_mol1.chk"
 Charge =  0 Multiplicity = 1

                         Standard orientation:
 ---------------------------------------------------------------------
 Center     Atomic      Atomic             Coordinates (Angstroms)
 Number     Number       Type             X           Y           Z
 ---------------------------------------------------------------------
      1          6           0        0.520376    1.622793    0.782540
      2          6           0        0.412996    0.837029   -0.507675
      3          6           0        1.236749   -0.228625   -0.815898
      4          8           0        1.633759   -1.093272    0.058074
      5          6           0       -1.163362   -0.290784   -0.037867
      6          8           0       -2.102688    0.139092   -0.615979
      7          7           0       -0.700177   -1.086494    0.839676
      8          1           0        0.907614    1.014205    1.597068
      9          1           0        1.197607    2.466645    0.631497
     10          1           0       -0.446576    2.025946    1.085170
     11          1           0        0.081028    1.407522   -1.368083
     12          1           0        1.492320   -0.451635   -1.853721
     13          1           0       -1.391560   -1.678740    1.276966
     14          1           0        0.771686   -1.187518    0.690012
 ---------------------------------------------------------------------

 SCF Done:  E(RHF) =  -360.053096428     A.U. after    2 cycles

 The electronic state is 1-A.
 Alpha  occ. eigenvalues --  -20.57904 -20.55579 -15.49952 -11.40847 -11.36584
 Alpha  occ. eigenvalues --  -11.25686 -11.24873  -1.51985  -1.50755  -1.23282
 Alpha  occ. eigenvalues --   -1.08714  -0.95579  -0.83503  -0.80778  -0.73276
 Alpha  occ. eigenvalues --   -0.70856  -0.69015  -0.66619  -0.62974  -0.59330
 Alpha  occ. eigenvalues --   -0.57481  -0.56381  -0.54041  -0.52855  -0.47845
 Alpha  occ. eigenvalues --   -0.43840  -0.36101
 Alpha virt. eigenvalues --    0.03178   0.03804   0.04156   0.05085   0.05746
 Alpha virt. eigenvalues --    0.06460   0.07485   0.07834   0.09797   0.10862
 Alpha virt. eigenvalues --    0.12268   0.13118   0.13692   0.14623   0.14927

 Mulliken charges:
               1
     1  C   -0.331909
     2  C   -0.279262
     3  C    1.243562
     4  O   -1.502459
     5  C    0.190174
     6  O   -1.098661
     7  N    0.611418
     8  H    0.153372
     9  H    0.159338
    10  H    0.209925
    11  H   -0.186298
    12  H    0.058951
    13  H    0.093331
    14  H    0.678517
 Sum of Mulliken charges =  -0.00000

 Dipole moment (field-independent basis, Debye):
    X=              1.4876    Y=              0.6503    Z=             -0.2283  Tot=              1.6395

 Test job not archived.
 1\1\GINC-SE231\SP\RHF\Aug-CC-pVDZ\C4H7N1O2\OHZDE\09-Apr-2025\0\\#t hf
 aug-cc-pvdz iop(5/13=1,5/36=2,99/5=2) pseudo=read geom=check guess=(re
 ad,tcheck) scf=(maxcycle=1)\\title\\0,1\C,0,-1.05480081,-1.17693774,-0
 .10098326\C,0,-0.79054435,0.28759144,-0.38193392\C,0,-0.63667318,1.233
 64441,0.61330298\O,0,-0.01888125,1.00002318,1.72362412\C,0,1.1542,0.16
 213329,-0.80598068\O,0,1.2773175,0.2624116,-1.97906474\N,0,1.68149767,
 -0.09672304,0.32217219\H,0,-0.63156317,-1.49009519,0.85116816\H,0,-2.1
 3374313,-1.3456599,-0.07002755\H,0,-0.6437557,-1.81354945,-0.88512742\

 Normal termination of Gaussian 16 at Wed Apr  9 19:18:05 2025.
