 Gaussian 16, Revision C.01,

 ----------------------------------------------------------------------
 #t hf aug-cc-pvdz symm=none int=(grid=ultrafine) guess=(read,tcheck) s
 table=(opt,rrhf)
 ----------------------------------------------------------------------
 -----
 title
 -----
 Symbolic Z-matrix:
 Charge =  0 Multiplicity = 1

 SCF Done:  E(RHF) =  -322.699094842     A.U. after   15 cycles
 Normal termination of Gaussian 16 at Wed Apr  9 18:35:45 2025.
 Gaussian 16:  ES64L-G16RevC.01  3-Jul-2019

 ----------------------------------------------------------------------
 #t hf aug-cc-pvdz iop(5/13=1,5/36=2,99/5=2) pseudo=read geom=check gue
 ss=(read,tcheck) scf=(maxcycle=1)
 ----------------------------------------------------------------------
 -----
 title
 -----
 Structure from the checkpoint file:  "Grambow2020_wb97xd3_007752_reverse_mol2.chk"
 Charge =  0 Multiplicity = 1

                         Standard orientation:
 ---------------------------------------------------------------------
 Center     Atomic      Atomic             Coordinates (Angstroms)
 Number     Number       Type             X           Y           Z
 ---------------------------------------------------------------------
      1          6           0       -2.149071   -1.052332    0.211871
      2          6           0       -0.925348   -0.217062   -0.034431
      3          6           0        0.289424   -0.939823   -0.459546
      4          6           0        1.503648   -0.665618   -0.049313
      5          7           0        2.635151   -0.308466    0.235492
      6          8           0        0.034986    1.992306   -0.121341
      7          6           0       -0.964696    1.109906    0.101392
      8          1           0       -3.004485   -0.429582    0.475628
      9          1           0       -2.417784   -1.628227   -0.678918
     10          1           0       -1.985395   -1.767867    1.022096
     11          1           0        0.186605   -1.789849   -1.126771
     12          1           0        3.036330   -0.725772    1.071149
     13          1           0       -1.870545    1.613924    0.416913
     14          1           0        0.805600    1.537754   -0.477648
 ---------------------------------------------------------------------

 SCF Done:  E(RHF) =  -323.031902379     A.U. after    2 cycles

 The electronic state is 1-A.
 Alpha  occ. eigenvalues --  -20.57242 -15.53455 -11.33086 -11.29664 -11.25703
 Alpha  occ. eigenvalues --  -11.24364 -11.23766  -1.48898  -1.26365  -1.10991
 Alpha  occ. eigenvalues --   -1.01348  -0.93298  -0.82646  -0.80005  -0.73033
 Alpha  occ. eigenvalues --   -0.67404  -0.64246  -0.60286  -0.58665  -0.57216
 Alpha  occ. eigenvalues --   -0.55999  -0.55265  -0.53535  -0.49857  -0.40833
 Alpha  occ. eigenvalues --   -0.31614
 Alpha virt. eigenvalues --    0.02985   0.03860   0.04177   0.04735   0.06044
 Alpha virt. eigenvalues --    0.06912   0.07689   0.10090   0.10423   0.10978
 Alpha virt. eigenvalues --    0.12050   0.12664   0.13139   0.14166   0.14457

 Mulliken charges:
               1
     1  C   -0.757201
     2  C    0.419563
     3  C    0.994635
     4  C   -2.220619
     5  N    0.876959
     6  O   -1.448182
     7  C    1.318881
     8  H    0.086484
     9  H    0.230969
    10  H    0.258572
    11  H   -0.208614
    12  H    0.155186
    13  H   -0.101864
    14  H    0.395231
 Sum of Mulliken charges =  -0.00000

 Dipole moment (field-independent basis, Debye):
    X=             -0.9149    Y=             -2.3681    Z=              0.5944  Tot=              2.6073

 Test job not archived.
 1\1\GINC-SE224\SP\RHF\Aug-CC-pVDZ\C5H7N1O1\OHZDE\09-Apr-2025\0\\#t hf
 aug-cc-pvdz iop(5/13=1,5/36=2,99/5=2) pseudo=read geom=check guess=(re
 ad,tcheck) scf=(maxcycle=1)\\title\\0,1\C,0,-1.90479384,-0.51909605,-0
 .18862819\C,0,-0.56153471,0.13453755,-0.03287989\C,0,0.54792194,-0.448
 88332,-0.81230573\C,0,1.77222829,-0.60124627,-0.36995161\N,0,2.9321242
 7,-0.60772967,0.00895507\O,0,0.71981577,1.91864444,0.96019822\C,0,-0.4
 0816436,1.20336709,0.75128951\H,0,-2.66768827,0.00658234,0.38650003\H,
 0,-2.22078167,-0.52343691,-1.23624404\H,0,-1.88173349,-1.55954534,0.14

 Normal termination of Gaussian 16 at Wed Apr  9 18:35:50 2025.
