 Gaussian 16, Revision C.01,

 ----------------------------------------------------------------------
 #t hf aug-cc-pvdz symm=none int=(grid=ultrafine) guess=(read,tcheck) s
 table=(opt,rrhf)
 ----------------------------------------------------------------------
 -----
 title
 -----
 Symbolic Z-matrix:
 Charge =  0 Multiplicity = 1

 SCF Done:  E(RHF) =  -279.752426145     A.U. after   14 cycles
 Normal termination of Gaussian 16 at Wed Apr  9 15:58:44 2025.
 Gaussian 16:  ES64L-G16RevC.01  3-Jul-2019

 ----------------------------------------------------------------------
 #t hf aug-cc-pvdz iop(5/13=1,5/36=2,99/5=2) pseudo=read geom=check gue
 ss=(read,tcheck) scf=(maxcycle=1)
 ----------------------------------------------------------------------
 -----
 title
 -----
 Structure from the checkpoint file:  "Grambow2020_b97d3_007059_forward_mol1.chk"
 Charge =  0 Multiplicity = 1

                         Standard orientation:
 ---------------------------------------------------------------------
 Center     Atomic      Atomic             Coordinates (Angstroms)
 Number     Number       Type             X           Y           Z
 ---------------------------------------------------------------------
      1          7           0        1.992109    0.035088    0.002507
      2          6           0        0.555037    0.278428   -0.005559
      3          6           0       -0.470296    1.210804   -0.001686
      4          6           0       -1.600536    0.343603    0.001756
      5          7           0       -1.262060   -0.972140    0.001473
      6          7           0        0.079628   -0.978389   -0.002791
      7          1           0        2.502496    0.331034    0.843072
      8          1           0        2.512890    0.331755   -0.831249
      9          1           0       -0.421839    2.293874    0.002631
     10          1           0       -2.646059    0.637570    0.005971
     11          1           0        1.479538   -1.183158    0.004183
 ---------------------------------------------------------------------

 SCF Done:  E(RHF) =  -280.037001230     A.U. after    2 cycles

 The electronic state is 1-A.
 Alpha  occ. eigenvalues --  -15.61212 -15.51755 -15.49875 -11.29218 -11.24162
 Alpha  occ. eigenvalues --  -11.22750  -1.34849  -1.26407  -1.06208  -1.02791
 Alpha  occ. eigenvalues --   -0.85376  -0.78578  -0.78531  -0.73898  -0.65047
 Alpha  occ. eigenvalues --   -0.61306  -0.59636  -0.57353  -0.50710  -0.45820
 Alpha  occ. eigenvalues --   -0.35492  -0.35083
 Alpha virt. eigenvalues --    0.01071   0.04115   0.04202   0.05135   0.06403
 Alpha virt. eigenvalues --    0.09231   0.10959   0.11915   0.12469   0.13272
 Alpha virt. eigenvalues --    0.13488   0.14452   0.14649   0.16481   0.16821

 Mulliken charges:
               1
     1  N    0.341645
     2  C   -1.653220
     3  C    0.782376
     4  C   -0.166903
     5  N   -0.325488
     6  N    0.102088
     7  H    0.366284
     8  H    0.366152
     9  H   -0.174783
    10  H   -0.125528
    11  H    0.487379
 Sum of Mulliken charges =  -0.00000

 Dipole moment (field-independent basis, Debye):
    X=              6.1550    Y=              3.6991    Z=              0.0270  Tot=              7.1811

 Test job not archived.
 1\1\GINC-SE173\SP\RHF\Aug-CC-pVDZ\C3H5N3\OHZDE\09-Apr-2025\0\\#t hf au
 g-cc-pvdz iop(5/13=1,5/36=2,99/5=2) pseudo=read geom=check guess=(read
 ,tcheck) scf=(maxcycle=1)\\title\\0,1\N,0,-1.73138973,0.28933133,0.025
 1475\C,0,-0.31321819,-0.04458031,-0.01668532\C,0,0.64908951,-1.0339905
 3,-0.1418971\C,0,1.83337046,-0.25181233,-0.01875201\N,0,1.58138634,1.0
 7077762,0.16292301\N,0,0.24305026,1.16580995,0.1597507\H,0,-2.26748897
 ,-0.08552766,0.81679573\H,0,-2.26290979,0.14544066,-0.84154436\H,0,0.5
 3010732,-2.10174253,-0.28735529\H,0,2.85743106,-0.61169028,-0.05536605

 Normal termination of Gaussian 16 at Wed Apr  9 15:58:47 2025.
