 Gaussian 16, Revision C.01,

 ----------------------------------------------------------------------
 #t hf aug-cc-pvdz symm=none int=(grid=ultrafine) guess=(read,tcheck) s
 table=(opt,rrhf)
 ----------------------------------------------------------------------
 -----
 title
 -----
 Symbolic Z-matrix:
 Charge =  0 Multiplicity = 1

 SCF Done:  E(RHF) =  -288.051020668     A.U. after   14 cycles

 1\1\GINC-SE112\Stability\RHF\Aug-CC-pVDZ\C6H11N1\OHZDE\09-Apr-2025\0\\
 #t hf aug-cc-pvdz symm=none int=(grid=ultrafine) guess=(read,tcheck) s
 table=(opt,rrhf)\\title\\0,1\C,0,-2.46241893,-0.18355044,-1.13102356\C
 ,0,-1.37827569,0.09515324,-0.09888744\C,0,0.02095299,-0.15862029,-0.64
 331121\C,0,1.15265297,0.13327748,0.31147141\C,0,2.55735518,-0.14757212
 ,-0.15334164\C,0,0.93544184,0.61581182,1.50572655\N,0,0.74648672,1.175
 25735,2.57996771\H,0,-3.4573915,-0.00608777,-0.71952181\H,0,-2.3468175
 9,0.45788332,-2.00803038\H,0,-2.4252554,-1.22077932,-1.47356459\H,0,-1

 Normal termination of Gaussian 16 at Wed Apr  9 17:46:08 2025.
 Gaussian 16:  ES64L-G16RevC.01  3-Jul-2019

 ----------------------------------------------------------------------
 #t hf aug-cc-pvdz iop(5/13=1,5/36=2,99/5=2) pseudo=read geom=check gue
 ss=(read,tcheck) scf=(maxcycle=1)
 ----------------------------------------------------------------------
 -----
 title
 -----
 Structure from the checkpoint file:  "Grambow2020_wb97xd3_006813_reverse_mol2.chk"
 Charge =  0 Multiplicity = 1

                         Standard orientation:
 ---------------------------------------------------------------------
 Center     Atomic      Atomic             Coordinates (Angstroms)
 Number     Number       Type             X           Y           Z
 ---------------------------------------------------------------------
      1          6           0       -2.984971    0.055132   -0.013865
      2          6           0       -1.514237    0.446192    0.034729
      3          6           0       -0.590027   -0.763281   -0.005905
      4          6           0        0.886903   -0.453115   -0.000172
      5          6           0        1.850301   -1.610619    0.012716
      6          6           0        1.329842    0.775712   -0.007568
      7          7           0        1.750133    1.920571   -0.131384
      8          1           0       -3.630939    0.933703    0.026579
      9          1           0       -3.219180   -0.486869   -0.933279
     10          1           0       -3.250533   -0.590855    0.826812
     11          1           0       -1.280531    1.109429   -0.803359
     12          1           0       -1.316025    1.021662    0.944425
     13          1           0       -0.809533   -1.418726    0.846446
     14          1           0       -0.811114   -1.359159   -0.900653
     15          1           0        1.920202    2.401297    0.749324
     16          1           0        1.706324   -2.225253    0.905970
     17          1           0        1.686566   -2.253044   -0.857177
     18          1           0        2.886969   -1.276300   -0.005015
 ---------------------------------------------------------------------

 SCF Done:  E(RHF) =  -288.362630963     A.U. after    2 cycles

 The electronic state is 1-A.
 Alpha  occ. eigenvalues --  -15.51188 -11.30156 -11.24108 -11.24080 -11.24022
 Alpha  occ. eigenvalues --  -11.22941 -11.22452  -1.23852  -1.10734  -1.03983
 Alpha  occ. eigenvalues --   -0.93919  -0.90487  -0.81947  -0.77030  -0.65538
 Alpha  occ. eigenvalues --   -0.64968  -0.61087  -0.59616  -0.56981  -0.56644
 Alpha  occ. eigenvalues --   -0.54829  -0.54292  -0.50504  -0.49202  -0.48096
 Alpha  occ. eigenvalues --   -0.46922  -0.34136
 Alpha virt. eigenvalues --    0.03413   0.03679   0.03755   0.04130   0.05356
 Alpha virt. eigenvalues --    0.06104   0.06368   0.07628   0.08081   0.09271
 Alpha virt. eigenvalues --    0.09987   0.10761   0.12124   0.12608   0.13297

 Mulliken charges:
               1
     1  C   -0.564305
     2  C    0.042183
     3  C   -0.311906
     4  C    1.315665
     5  C   -0.484672
     6  C   -2.957969
     7  N    1.116602
     8  H    0.130611
     9  H    0.156809
    10  H    0.165191
    11  H    0.174845
    12  H    0.149558
    13  H    0.194881
    14  H    0.216806
    15  H    0.193166
    16  H    0.194914
    17  H    0.188156
    18  H    0.079466
 Sum of Mulliken charges =  -0.00000

 Dipole moment (field-independent basis, Debye):
    X=             -0.7365    Y=             -1.5724    Z=              1.5009  Tot=              2.2951

 Test job not archived.
 1\1\GINC-SE112\SP\RHF\Aug-CC-pVDZ\C6H11N1\OHZDE\09-Apr-2025\0\\#t hf a
 ug-cc-pvdz iop(5/13=1,5/36=2,99/5=2) pseudo=read geom=check guess=(rea
 d,tcheck) scf=(maxcycle=1)\\title\\0,1\C,0,-2.46241893,-0.18355044,-1.
 13102356\C,0,-1.37827569,0.09515324,-0.09888744\C,0,0.02095299,-0.1586
 2029,-0.64331121\C,0,1.15265297,0.13327748,0.31147141\C,0,2.55735518,-
 0.14757212,-0.15334164\C,0,0.93544184,0.61581182,1.50572655\N,0,0.7464
 8672,1.17525735,2.57996771\H,0,-3.4573915,-0.00608777,-0.71952181\H,0,
 -2.34681759,0.45788332,-2.00803038\H,0,-2.4252554,-1.22077932,-1.47356

 Normal termination of Gaussian 16 at Wed Apr  9 17:46:15 2025.
