 Gaussian 16, Revision C.01,

 ----------------------------------------------------------------------
 #t hf aug-cc-pvdz symm=none int=(grid=ultrafine) guess=(read,tcheck) s
 table=(opt,rrhf)
 ----------------------------------------------------------------------
 -----
 title
 -----
 Symbolic Z-matrix:
 Charge =  0 Multiplicity = 1

 SCF Done:  E(RHF) =  -289.035588441     A.U. after   15 cycles

 1\1\GINC-SE261\Stability\RHF\Aug-CC-pVDZ\C6H13N1\OHZDE\09-Apr-2025\0\\
 #t hf aug-cc-pvdz symm=none int=(grid=ultrafine) guess=(read,tcheck) s
 table=(opt,rrhf)\\title\\0,1\C,0,-1.37616429,1.7061658,0.72751751\C,0,
 -0.59387174,0.4717716,0.46715273\N,0,-0.66833374,-0.49633358,-0.446532
 55\C,0,-1.19818065,-1.71816004,-0.45548496\C,0,0.66145221,0.07619912,-
 0.228146\C,0,1.68923634,-0.74814572,0.51740502\C,0,1.2122462,0.8594432
 9,-1.3996681\H,0,-2.42623014,1.46258645,0.89712268\H,0,-0.99836795,2.1
 9873995,1.62368486\H,0,-1.31402214,2.41969022,-0.10119505\H,0,-0.90744

 Normal termination of Gaussian 16 at Wed Apr  9 04:05:14 2025.
 Gaussian 16:  ES64L-G16RevC.01  3-Jul-2019

 ----------------------------------------------------------------------
 #t hf aug-cc-pvdz iop(5/13=1,5/36=2,99/5=2) pseudo=read geom=check gue
 ss=(read,tcheck) scf=(maxcycle=1)
 ----------------------------------------------------------------------
 -----
 title
 -----
 Structure from the checkpoint file:  "Grambow2020_wb97xd3_009134_reverse_mol1.chk"
 Charge =  0 Multiplicity = 1

                         Standard orientation:
 ---------------------------------------------------------------------
 Center     Atomic      Atomic             Coordinates (Angstroms)
 Number     Number       Type             X           Y           Z
 ---------------------------------------------------------------------
      1          6           0        1.948143   -1.207185    0.294333
      2          6           0        0.802169   -0.264534    0.335020
      3          7           0        0.324031    0.648977   -0.510245
      4          6           0        0.451495    1.970946   -0.609386
      5          6           0       -0.659500   -0.277515    0.053755
      6          6           0       -1.617691    0.238696    1.105956
      7          6           0       -1.276827   -1.229777   -0.946952
      8          1           0        2.884731   -0.662324    0.165241
      9          1           0        2.007143   -1.755080    1.234973
     10          1           0        1.856171   -1.937889   -0.516442
     11          1           0        1.072137    1.028443    1.403763
     12          1           0       -0.426819    2.534324   -0.903153
     13          1           0        0.950517    1.864043    1.177259
     14          1           0        1.416769    2.352177   -0.919707
     15          1           0       -1.897504   -0.571230    1.782242
     16          1           0       -1.168565    1.035537    1.695818
     17          1           0       -2.534130    0.618323    0.646147
     18          1           0       -0.552911   -1.522237   -1.708145
     19          1           0       -2.139125   -0.778259   -1.444307
     20          1           0       -1.623368   -2.132454   -0.438326
 ---------------------------------------------------------------------

 SCF Done:  E(RHF) =  -289.356411296     A.U. after    2 cycles

 The electronic state is 1-A.
 Alpha  occ. eigenvalues --  -15.54817 -11.28657 -11.27403 -11.26130 -11.24108
 Alpha  occ. eigenvalues --  -11.22948 -11.22371  -1.33481  -1.07642  -1.01881
 Alpha  occ. eigenvalues --   -0.97292  -0.94821  -0.77786  -0.76284  -0.68937
 Alpha  occ. eigenvalues --   -0.66452  -0.63503  -0.61407  -0.58448  -0.57089
 Alpha  occ. eigenvalues --   -0.56878  -0.55222  -0.54491  -0.51592  -0.49181
 Alpha  occ. eigenvalues --   -0.45934  -0.41237  -0.27905
 Alpha virt. eigenvalues --    0.03640   0.03723   0.03951   0.04458   0.05445
 Alpha virt. eigenvalues --    0.05622   0.05776   0.06325   0.07212   0.08863
 Alpha virt. eigenvalues --    0.09654   0.09842   0.10356   0.10824   0.11863

 Mulliken charges:
               1
     1  C   -0.600232
     2  C   -0.730710
     3  N    1.515647
     4  C   -0.164552
     5  C   -1.483582
     6  C   -0.348381
     7  C   -0.299458
     8  H    0.205094
     9  H    0.238147
    10  H    0.242701
    11  H    0.317495
    12  H   -0.073076
    13  H   -0.001427
    14  H   -0.061595
    15  H    0.227827
    16  H    0.106195
    17  H    0.237185
    18  H    0.174155
    19  H    0.206017
    20  H    0.292552
 Sum of Mulliken charges =   0.00000

 Dipole moment (field-independent basis, Debye):
    X=             -0.6078    Y=             -1.2234    Z=             -0.7067  Tot=              1.5380

 Test job not archived.
 1\1\GINC-SE261\SP\RHF\Aug-CC-pVDZ\C6H13N1\OHZDE\09-Apr-2025\0\\#t hf a
 ug-cc-pvdz iop(5/13=1,5/36=2,99/5=2) pseudo=read geom=check guess=(rea
 d,tcheck) scf=(maxcycle=1)\\title\\0,1\C,0,-1.37616429,1.7061658,0.727
 51751\C,0,-0.59387174,0.4717716,0.46715273\N,0,-0.66833374,-0.49633358
 ,-0.44653255\C,0,-1.19818065,-1.71816004,-0.45548496\C,0,0.66145221,0.
 07619912,-0.228146\C,0,1.68923634,-0.74814572,0.51740502\C,0,1.2122462
 ,0.85944329,-1.3996681\H,0,-2.42623014,1.46258645,0.89712268\H,0,-0.99
 836795,2.19873995,1.62368486\H,0,-1.31402214,2.41969022,-0.10119505\H,

 Normal termination of Gaussian 16 at Wed Apr  9 04:05:22 2025.
