 Gaussian 16, Revision C.01,

 ----------------------------------------------------------------------
 #t hf aug-cc-pvdz symm=none int=(grid=ultrafine) guess=(read,tcheck) s
 table=(opt,rrhf)
 ----------------------------------------------------------------------
 -----
 title
 -----
 Symbolic Z-matrix:
 Charge =  0 Multiplicity = 1

 SCF Done:  E(RHF) =  -353.573415685     A.U. after   15 cycles
 Normal termination of Gaussian 16 at Wed Apr  9 18:39:13 2025.
 Gaussian 16:  ES64L-G16RevC.01  3-Jul-2019

 ----------------------------------------------------------------------
 #t hf aug-cc-pvdz iop(5/13=1,5/36=2,99/5=2) pseudo=read geom=check gue
 ss=(read,tcheck) scf=(maxcycle=1)
 ----------------------------------------------------------------------
 -----
 title
 -----
 Structure from the checkpoint file:  "Grambow2020_wb97xd3_007942_reverse_mol2.chk"
 Charge =  0 Multiplicity = 1

                         Standard orientation:
 ---------------------------------------------------------------------
 Center     Atomic      Atomic             Coordinates (Angstroms)
 Number     Number       Type             X           Y           Z
 ---------------------------------------------------------------------
      1          8           0       -2.253165   -0.042071   -0.002732
      2          6           0       -1.047512   -0.062342    0.000393
      3          6           0       -0.254593    1.188997    0.002047
      4          7           0        1.026178    1.233262    0.000014
      5          7           0        1.642060    0.038395   -0.002535
      6          6           0        0.972339   -1.131288    0.000287
      7          7           0       -0.305912   -1.246953    0.002776
      8          1           0        2.646162    0.074115   -0.002438
      9          1           0       -0.780002    2.136621    0.005766
     10          1           0        1.601466   -2.019307    0.000385
 ---------------------------------------------------------------------

 SCF Done:  E(RHF) =  -353.924022963     A.U. after    2 cycles

 The electronic state is 1-A.
 Alpha  occ. eigenvalues --  -20.52489 -15.61767 -15.59892 -15.51729 -11.37374
 Alpha  occ. eigenvalues --  -11.36793 -11.31049  -1.47479  -1.41605  -1.26442
 Alpha  occ. eigenvalues --   -1.19591  -0.98794  -0.94623  -0.85694  -0.81499
 Alpha  occ. eigenvalues --   -0.72160  -0.69979  -0.67303  -0.63123  -0.58949
 Alpha  occ. eigenvalues --   -0.57258  -0.51116  -0.50695  -0.42820  -0.40612
 Alpha virt. eigenvalues --    0.01800   0.04263   0.04936   0.05265   0.07061
 Alpha virt. eigenvalues --    0.07848   0.09237   0.09968   0.10127   0.11671
 Alpha virt. eigenvalues --    0.12343   0.13290   0.14114   0.14441   0.15620

 Mulliken charges:
               1
     1  O   -1.213777
     2  C    0.719645
     3  C   -0.300952
     4  N    0.158716
     5  N    0.266516
     6  C   -0.554260
     7  N    0.835695
     8  H    0.149220
     9  H   -0.027517
    10  H   -0.033286
 Sum of Mulliken charges =  -0.00000

 Dipole moment (field-independent basis, Debye):
    X=              5.5442    Y=              0.3572    Z=              0.0046  Tot=              5.5557

 Test job not archived.
 1\1\GINC-SE219\SP\RHF\Aug-CC-pVDZ\C3H3N3O1\OHZDE\09-Apr-2025\0\\#t hf
 aug-cc-pvdz iop(5/13=1,5/36=2,99/5=2) pseudo=read geom=check guess=(re
 ad,tcheck) scf=(maxcycle=1)\\title\\0,1\O,0,2.05918371,-0.00397678,-1.
 51425704\C,0,1.07353585,-0.04007975,-0.82056091\C,0,0.66054662,1.12572
 685,-0.00514283\N,0,-0.37133085,1.14745794,0.75452475\N,0,-1.09266295,
 0.01332957,0.77589812\C,0,-0.76712557,-1.07599492,0.05195757\N,0,0.249
 18279,-1.16477571,-0.72685211\H,0,-1.90238119,0.0318955,1.37046412\H,0
 ,1.26173568,2.02631024,-0.04490538\H,0,-1.44366409,-1.92076994,0.16610

 Normal termination of Gaussian 16 at Wed Apr  9 18:39:17 2025.
