 Gaussian 16, Revision C.01,

 ----------------------------------------------------------------------
 #t hf aug-cc-pvdz symm=none int=(grid=ultrafine) guess=(read,tcheck) s
 table=(opt,rrhf)
 ----------------------------------------------------------------------
 -----
 title
 -----
 Symbolic Z-matrix:
 Charge =  0 Multiplicity = 1

 SCF Done:  E(RHF) =  -302.775777441     A.U. after   17 cycles
 Normal termination of Gaussian 16 at Wed Apr  9 18:04:16 2025.
 Gaussian 16:  ES64L-G16RevC.01  3-Jul-2019

 ----------------------------------------------------------------------
 #t hf aug-cc-pvdz iop(5/13=1,5/36=2,99/5=2) pseudo=read geom=check gue
 ss=(read,tcheck) scf=(maxcycle=1)
 ----------------------------------------------------------------------
 -----
 title
 -----
 Structure from the checkpoint file:  "Grambow2020_wb97xd3_006959_forward_mol1.chk"
 Charge =  0 Multiplicity = 1

                         Standard orientation:
 ---------------------------------------------------------------------
 Center     Atomic      Atomic             Coordinates (Angstroms)
 Number     Number       Type             X           Y           Z
 ---------------------------------------------------------------------
      1          6           0        0.470455    1.536570    0.257124
      2          6           0        0.834353    0.058723    0.166870
      3          6           0        2.028652   -0.210172   -0.745582
      4          7           0        0.601514   -0.755882    1.231199
      5          6           0       -0.424666   -0.901171   -0.156543
      6          6           0       -1.701762   -0.226714   -0.213938
      7          7           0       -2.726374    0.282839   -0.288060
      8          1           0        0.233907    1.961088   -0.720287
      9          1           0        1.337476    2.069905    0.651344
     10          1           0       -0.365924    1.692522    0.935062
     11          1           0        2.913626    0.243960   -0.295915
     12          1           0        2.211601   -1.280926   -0.834919
     13          1           0        1.896454    0.227995   -1.736959
     14          1           0       -0.440720   -1.719002    0.621754
     15          1           0       -0.154592   -1.427655   -1.069645
 ---------------------------------------------------------------------

 SCF Done:  E(RHF) =  -303.085075834     A.U. after    2 cycles

 The electronic state is 1-A.
 Alpha  occ. eigenvalues --  -15.53231 -15.52436 -11.33626 -11.32070 -11.29473
 Alpha  occ. eigenvalues --  -11.25060 -11.24482  -1.27930  -1.24344  -1.03898
 Alpha  occ. eigenvalues --   -1.00394  -0.97078  -0.78485  -0.75376  -0.66521
 Alpha  occ. eigenvalues --   -0.65617  -0.62485  -0.61346  -0.60303  -0.56943
 Alpha  occ. eigenvalues --   -0.56424  -0.54044  -0.53637  -0.50926  -0.47380
 Alpha  occ. eigenvalues --   -0.41798
 Alpha virt. eigenvalues --    0.02937   0.03397   0.04065   0.04268   0.05769
 Alpha virt. eigenvalues --    0.06359   0.07215   0.07431   0.08596   0.10109
 Alpha virt. eigenvalues --    0.10620   0.12586   0.13701   0.13938   0.14211

 Mulliken charges:
               1
     1  C   -0.100714
     2  C   -2.111595
     3  C   -0.244597
     4  N    0.768583
     5  C    0.149612
     6  C   -1.615030
     7  N    0.964299
     8  H    0.344358
     9  H    0.159886
    10  H    0.271787
    11  H    0.202833
    12  H    0.180774
    13  H    0.274773
    14  H    0.618140
    15  H    0.136892
 Sum of Mulliken charges =  -0.00000

 Dipole moment (field-independent basis, Debye):
    X=              3.7900    Y=             -0.8313    Z=             -2.1616  Tot=              4.4416

 Test job not archived.
 1\1\GINC-SE229\SP\RHF\Aug-CC-pVDZ\C5H8N2\OHZDE\09-Apr-2025\0\\#t hf au
 g-cc-pvdz iop(5/13=1,5/36=2,99/5=2) pseudo=read geom=check guess=(read
 ,tcheck) scf=(maxcycle=1)\\title\\0,1\C,0,-0.6461256,1.33143917,-0.123
 16177\C,0,-0.33969102,-0.15014646,-0.31185157\C,0,-1.24970032,-1.06013
 527,0.50974757\N,0,0.1550397,-0.58684439,-1.50144305\C,0,1.22490928,-0
 .51622151,-0.14115958\C,0,2.09386497,0.62000746,0.06635236\N,0,2.80612
 396,1.49874954,0.25468274\H,0,-0.55600741,1.63920015,0.92022978\H,0,-1
 .67925723,1.50021411,-0.43257124\H,0,0.00266077,1.94681283,-0.74271036

 Normal termination of Gaussian 16 at Wed Apr  9 18:04:21 2025.
