 Gaussian 16, Revision C.01,

 ----------------------------------------------------------------------
 #t hf aug-cc-pvdz symm=none int=(grid=ultrafine) guess=(read,tcheck) s
 table=(opt,rrhf)
 ----------------------------------------------------------------------
 -----
 title
 -----
 Symbolic Z-matrix:
 Charge =  0 Multiplicity = 1

 SCF Done:  E(RHF) =  -268.766531129     A.U. after   15 cycles
 Normal termination of Gaussian 16 at Wed Apr  9 15:59:53 2025.
 Gaussian 16:  ES64L-G16RevC.01  3-Jul-2019

 ----------------------------------------------------------------------
 #t hf aug-cc-pvdz iop(5/13=1,5/36=2,99/5=2) pseudo=read geom=check gue
 ss=(read,tcheck) scf=(maxcycle=1)
 ----------------------------------------------------------------------
 -----
 title
 -----
 Structure from the checkpoint file:  "Grambow2020_b97d3_007078_reverse_mol2.chk"
 Charge =  0 Multiplicity = 1

                         Standard orientation:
 ---------------------------------------------------------------------
 Center     Atomic      Atomic             Coordinates (Angstroms)
 Number     Number       Type             X           Y           Z
 ---------------------------------------------------------------------
      1          6           0        2.182231   -0.079342    0.141219
      2          6           0        0.718926   -0.087912   -0.301407
      3          6           0       -0.099358   -1.308349   -0.074943
      4          6           0       -1.431319   -0.730586    0.139740
      5          8           0       -1.490437    0.692030   -0.094999
      6          6           0       -0.146892    1.141671    0.080881
      7          1           0        2.715701    0.791202   -0.265140
      8          1           0        2.689451   -0.994344   -0.187149
      9          1           0        2.239521   -0.031479    1.237487
     10          1           0        0.674341   -0.177437   -1.420381
     11          1           0       -1.510752   -0.958695    1.240407
     12          1           0       -2.289950   -1.218930   -0.339269
     13          1           0        0.051601    1.419066    1.135498
     14          1           0        0.012060    2.021482   -0.554404
 ---------------------------------------------------------------------

 SCF Done:  E(RHF) =  -269.046348403     A.U. after    2 cycles

 The electronic state is 1-A.
 Alpha  occ. eigenvalues --  -20.55327 -11.29724 -11.29404 -11.27406 -11.25823
 Alpha  occ. eigenvalues --  -11.24287  -1.46620  -1.10343  -1.01533  -0.93885
 Alpha  occ. eigenvalues --   -0.83668  -0.73844  -0.68796  -0.65723  -0.62004
 Alpha  occ. eigenvalues --   -0.58693  -0.57362  -0.56025  -0.52975  -0.48834
 Alpha  occ. eigenvalues --   -0.48219  -0.42370  -0.37725
 Alpha virt. eigenvalues --    0.03381   0.03813   0.04226   0.04569   0.06130
 Alpha virt. eigenvalues --    0.06687   0.06833   0.07053   0.08404   0.09469
 Alpha virt. eigenvalues --    0.12464   0.13513   0.14137   0.14686   0.15414

 Mulliken charges:
               1
     1  C   -0.215297
     2  C   -0.760328
     3  C   -0.612286
     4  C    0.456748
     5  O   -1.322526
     6  C    0.775107
     7  H    0.219277
     8  H    0.176911
     9  H    0.220671
    10  H    0.401536
    11  H    0.332151
    12  H    0.086205
    13  H    0.163690
    14  H    0.078141
 Sum of Mulliken charges =  -0.00000

 Dipole moment (field-independent basis, Debye):
    X=              1.0151    Y=              1.1677    Z=              0.1775  Tot=              1.5574

 Test job not archived.
 1\1\GINC-SE219\SP\RHF\Aug-CC-pVDZ\C5H8O1\OHZDE\09-Apr-2025\0\\#t hf au
 g-cc-pvdz iop(5/13=1,5/36=2,99/5=2) pseudo=read geom=check guess=(read
 ,tcheck) scf=(maxcycle=1)\\title\\0,1\C,0,-1.75832453,0.52295017,-0.42
 149962\C,0,-0.29724998,0.07435712,-0.4572799\C,0,0.77726631,1.09709238
 ,-0.358452\C,0,1.82981669,0.34776159,0.33772339\O,0,1.52618417,-1.0522
 9073,0.51119909\C,0,0.10168234,-1.12201165,0.4467185\H,0,-2.43309478,-
 0.29620544,-0.70651339\H,0,-1.91810497,1.3696907,-1.09960481\H,0,-2.02
 4557,0.84423011,0.59500209\H,0,-0.02710002,-0.21309617,-1.50918119\H,0

 Normal termination of Gaussian 16 at Wed Apr  9 15:59:57 2025.
