 Gaussian 16, Revision C.01,

 ----------------------------------------------------------------------
 #t hf aug-cc-pvdz symm=none int=(grid=ultrafine) guess=(read,tcheck) s
 table=(opt,rrhf)
 ----------------------------------------------------------------------
 -----
 title
 -----
 Symbolic Z-matrix:
 Charge =  0 Multiplicity = 1

 SCF Done:  E(RHF) =  -316.506019482     A.U. after   16 cycles
 Normal termination of Gaussian 16 at Wed Apr  9 18:16:24 2025.
 Gaussian 16:  ES64L-G16RevC.01  3-Jul-2019

 ----------------------------------------------------------------------
 #t hf aug-cc-pvdz iop(5/13=1,5/36=2,99/5=2) pseudo=read geom=check gue
 ss=(read,tcheck) scf=(maxcycle=1)
 ----------------------------------------------------------------------
 -----
 title
 -----
 Structure from the checkpoint file:  "Grambow2020_wb97xd3_007264_reverse_mol2.chk"
 Charge =  0 Multiplicity = 1

                         Standard orientation:
 ---------------------------------------------------------------------
 Center     Atomic      Atomic             Coordinates (Angstroms)
 Number     Number       Type             X           Y           Z
 ---------------------------------------------------------------------
      1          7           0       -2.860676   -0.037080    0.000638
      2          6           0       -1.710941   -0.023167   -0.000151
      3          6           0       -0.298985    0.012512   -0.000727
      4          7           0        0.503335    1.091166   -0.000250
      5          6           0        1.854416    0.798860    0.000268
      6          6           0        1.811398   -0.590441    0.000494
      7          7           0        0.515008   -1.042542   -0.000292
      8          1           0        0.141725    2.030909   -0.000129
      9          1           0        2.622336   -1.300266    0.001446
     10          1           0        0.196935   -1.998044   -0.001296
 ---------------------------------------------------------------------

 SCF Done:  E(RHF) =  -316.818594194     A.U. after    2 cycles

 The electronic state is 1-A.
 Alpha  occ. eigenvalues --  -15.62393 -15.59842 -15.55997 -11.38096 -11.32520
 Alpha  occ. eigenvalues --  -11.27729 -11.22901  -1.40887  -1.27671  -1.25538
 Alpha  occ. eigenvalues --   -1.08214  -0.95893  -0.89632  -0.87640  -0.76339
 Alpha  occ. eigenvalues --   -0.71037  -0.70188  -0.64637  -0.61727  -0.56233
 Alpha  occ. eigenvalues --   -0.55215  -0.52309  -0.36655  -0.34368
 Alpha virt. eigenvalues --    0.01870   0.02619   0.04251   0.04699   0.07077
 Alpha virt. eigenvalues --    0.08727   0.09722   0.09846   0.10192   0.11493
 Alpha virt. eigenvalues --    0.12188   0.13045   0.13526   0.14508   0.14929

 Mulliken charges:
               1
     1  N    1.115333
     2  C   -1.780038
     3  C   -0.201193
     4  N    0.718669
     5  C   -0.625597
     6  C   -0.027851
     7  N    0.725977
     8  H    0.108760
     9  H   -0.128005
    10  H    0.093946
 Sum of Mulliken charges =  -0.00000

 Dipole moment (field-independent basis, Debye):
    X=              0.0078    Y=             -2.8413    Z=             -0.0036  Tot=              2.8413

 Test job not archived.
 1\1\GINC-SE117\SP\RHF\Aug-CC-pVDZ\C4H3N3\OHZDE\09-Apr-2025\0\\#t hf au
 g-cc-pvdz iop(5/13=1,5/36=2,99/5=2) pseudo=read geom=check guess=(read
 ,tcheck) scf=(maxcycle=1)\\title\\0,1\N,0,3.08628483,-0.65938717,0.311
 69613\C,0,1.95974357,-0.45383665,0.20806858\C,0,0.57235626,-0.2185408,
 0.08688293\N,0,-0.4382376,-1.06711563,0.34346101\C,0,-1.69729943,-0.53
 856964,0.12836881\C,0,-1.36357332,0.74305981,-0.29360326\N,0,-0.001661
 16,0.91589431,-0.31222334\H,0,-0.28214123,-2.00826613,0.6655606\H,0,-2
 .00710306,1.55658887,-0.5860287\H,0,0.50983413,1.74209402,-0.57665076\

 Normal termination of Gaussian 16 at Wed Apr  9 18:16:28 2025.
