 Gaussian 16, Revision C.01,

 ----------------------------------------------------------------------
 #t hf aug-cc-pvdz symm=none int=(grid=ultrafine) guess=(read,tcheck) s
 table=(opt,rrhf)
 ----------------------------------------------------------------------
 -----
 title
 -----
 Symbolic Z-matrix:
 Charge =  0 Multiplicity = 1

 SCF Done:  E(RHF) =  -232.944903688     A.U. after   15 cycles
 Normal termination of Gaussian 16 at Wed Apr  9 03:15:42 2025.
 Gaussian 16:  ES64L-G16RevC.01  3-Jul-2019

 ----------------------------------------------------------------------
 #t hf aug-cc-pvdz iop(5/13=1,5/36=2,99/5=2) pseudo=read geom=check gue
 ss=(read,tcheck) scf=(maxcycle=1)
 ----------------------------------------------------------------------
 -----
 title
 -----
 Structure from the checkpoint file:  "Grambow2020_b97d3_006951_reverse_mol2.chk"
 Charge =  0 Multiplicity = 1

                         Standard orientation:
 ---------------------------------------------------------------------
 Center     Atomic      Atomic             Coordinates (Angstroms)
 Number     Number       Type             X           Y           Z
 ---------------------------------------------------------------------
      1          6           0       -2.144830   -0.060486   -0.115132
      2          6           0       -0.701911   -0.036427    0.391660
      3          6           0        0.119666    1.214606   -0.033620
      4          6           0        1.579490    0.926769   -0.097861
      5          6           0        1.618501   -0.561429    0.014430
      6          6           0        0.200552   -1.172496   -0.128873
      7          1           0       -2.670422   -0.970065    0.209803
      8          1           0       -2.166852   -0.033006   -1.215532
      9          1           0       -2.711129    0.806191    0.255802
     10          1           0       -0.706361   -0.070627    1.495087
     11          1           0       -0.029634    1.370723   -1.132667
     12          1           0       -0.160662    2.171937    0.429473
     13          1           0        1.925397   -0.602900    1.089165
     14          1           0        2.434702   -1.056371   -0.531015
     15          1           0       -0.011505   -1.359454   -1.194449
     16          1           0        0.067657   -2.119653    0.410703
 ---------------------------------------------------------------------

 SCF Done:  E(RHF) =  -233.197130016     A.U. after    2 cycles

 The electronic state is 1-A.
 Alpha  occ. eigenvalues --  -11.26136 -11.24293 -11.24017 -11.23825 -11.23674
 Alpha  occ. eigenvalues --  -11.23355  -1.14368  -1.01361  -0.96753  -0.89675
 Alpha  occ. eigenvalues --   -0.78391  -0.71982  -0.66071  -0.61982  -0.59082
 Alpha  occ. eigenvalues --   -0.56998  -0.55821  -0.52874  -0.49257  -0.48220
 Alpha  occ. eigenvalues --   -0.47565  -0.46871  -0.34960
 Alpha virt. eigenvalues --    0.03366   0.03622   0.03654   0.04292   0.06056
 Alpha virt. eigenvalues --    0.06275   0.06393   0.06976   0.07350   0.08987
 Alpha virt. eigenvalues --    0.09744   0.11156   0.12461   0.14343   0.14706

 Mulliken charges:
               1
     1  C   -0.196995
     2  C   -0.844298
     3  C   -0.056224
     4  C   -0.504390
     5  C   -0.266153
     6  C   -0.041283
     7  H    0.189733
     8  H    0.197342
     9  H    0.178799
    10  H    0.113971
    11  H    0.392979
    12  H    0.102957
    13  H    0.364065
    14  H    0.119611
    15  H    0.136277
    16  H    0.113610
 Sum of Mulliken charges =  -0.00000

 Dipole moment (field-independent basis, Debye):
    X=             -1.9555    Y=             -1.6045    Z=              0.3169  Tot=              2.5493

 Test job not archived.
 1\1\GINC-SE054\SP\RHF\Aug-CC-pVDZ\C6H10\OHZDE\09-Apr-2025\0\\#t hf aug
 -cc-pvdz iop(5/13=1,5/36=2,99/5=2) pseudo=read geom=check guess=(read,
 tcheck) scf=(maxcycle=1)\\title\\0,1\C,0,1.93333594,-0.1303909,0.01489
 057\C,0,0.44928843,-0.2859399,0.35080598\C,0,-0.38196444,-1.06801934,-
 0.70669337\C,0,-1.81528818,-0.66356731,-0.69860353\C,0,-1.80005854,0.5
 5523833,0.16345429\C,0,-0.34971257,1.02925544,0.43972186\H,0,2.4648645
 9,0.43635813,0.79298894\H,0,2.05808326,0.40650004,-0.93816045\H,0,2.42
 384357,-1.10984886,-0.08246458\H,0,0.35087487,-0.82090386,1.31146652\H

 Normal termination of Gaussian 16 at Wed Apr  9 03:15:47 2025.
