 Gaussian 16, Revision C.01,

 ----------------------------------------------------------------------
 #t hf aug-cc-pvdz symm=none int=(grid=ultrafine) guess=(read,tcheck) s
 table=(opt,rrhf)
 ----------------------------------------------------------------------
 -----
 title
 -----
 Symbolic Z-matrix:
 Charge =  0 Multiplicity = 1

 SCF Done:  E(RHF) =  -301.911151733     A.U. after   15 cycles
 Normal termination of Gaussian 16 at Wed Apr  9 15:56:53 2025.
 Gaussian 16:  ES64L-G16RevC.01  3-Jul-2019

 ----------------------------------------------------------------------
 #t hf aug-cc-pvdz iop(5/13=1,5/36=2,99/5=2) pseudo=read geom=check gue
 ss=(read,tcheck) scf=(maxcycle=1)
 ----------------------------------------------------------------------
 -----
 title
 -----
 Structure from the checkpoint file:  "Grambow2020_b97d3_007045_reverse_mol1.chk"
 Charge =  0 Multiplicity = 1

                         Standard orientation:
 ---------------------------------------------------------------------
 Center     Atomic      Atomic             Coordinates (Angstroms)
 Number     Number       Type             X           Y           Z
 ---------------------------------------------------------------------
      1          6           0        1.732719   -1.127325   -0.025388
      2          7           0        0.388006   -0.601552    0.042585
      3          6           0       -1.674325   -1.215934    0.010662
      4          6           0        0.189302    0.704120    0.009765
      5          8           0        0.929081    1.696141    0.011319
      6          7           0       -1.305262    0.842553   -0.026414
      7          1           0        2.457360   -0.300088    0.075173
      8          1           0        1.919347   -1.855582    0.780009
      9          1           0        1.925302   -1.629887   -0.989401
     10          1           0       -2.659587   -0.913543   -0.346500
     11          1           0       -1.250685   -2.001965   -0.611133
     12          1           0       -1.638152   -1.433601    1.073493
     13          1           0       -1.602446    1.287615   -0.901073
     14          1           0       -1.649171    1.425747    0.745450
 ---------------------------------------------------------------------

 SCF Done:  E(RHF) =  -302.219607777     A.U. after    2 cycles

 The electronic state is 1-A.
 Alpha  occ. eigenvalues --  -20.47259 -15.54579 -15.45115 -11.37087 -11.34420
 Alpha  occ. eigenvalues --  -11.23406  -1.41348  -1.22376  -1.15019  -0.98013
 Alpha  occ. eigenvalues --   -0.93124  -0.75222  -0.73367  -0.68247  -0.64513
 Alpha  occ. eigenvalues --   -0.63463  -0.62226  -0.58519  -0.54831  -0.51790
 Alpha  occ. eigenvalues --   -0.50006  -0.43689  -0.37887  -0.35275
 Alpha virt. eigenvalues --    0.01650   0.02927   0.04167   0.04552   0.05597
 Alpha virt. eigenvalues --    0.06177   0.07027   0.07188   0.08548   0.10486
 Alpha virt. eigenvalues --    0.12543   0.13256   0.13805   0.13971   0.15185

 Mulliken charges:
               1
     1  C   -0.433374
     2  N    0.589688
     3  C   -0.064552
     4  C   -0.322849
     5  O   -1.195727
     6  N    0.163339
     7  H    0.011778
     8  H    0.095926
     9  H    0.134239
    10  H    0.089934
    11  H    0.207638
    12  H    0.215940
    13  H    0.259925
    14  H    0.248096
 Sum of Mulliken charges =  -0.00000

 Dipole moment (field-independent basis, Debye):
    X=             -5.9101    Y=             -3.0560    Z=             -0.1798  Tot=              6.6558

 Test job not archived.
 1\1\GINC-SE173\SP\RHF\Aug-CC-pVDZ\C3H8N2O1\OHZDE\09-Apr-2025\0\\#t hf
 aug-cc-pvdz iop(5/13=1,5/36=2,99/5=2) pseudo=read geom=check guess=(re
 ad,tcheck) scf=(maxcycle=1)\\title\\0,1\C,0,-1.54022005,-1.2909143,0.3
 4943825\N,0,-0.45398874,-0.35672938,0.15784008\C,0,-0.05732301,1.71443
 55,-0.27183968\C,0,0.78936597,-0.7980037,0.08938314\O,0,1.32902054,-1.
 90206367,0.23500525\N,0,1.59216564,0.428862,-0.23389443\H,0,-1.1307076
 6,-2.28812506,0.58903838\H,0,-2.19880467,-0.97582257,1.17456617\H,0,-2
 .15822659,-1.38908818,-0.56018087\H,0,0.6292721,2.36780884,-0.81168848

 Normal termination of Gaussian 16 at Wed Apr  9 15:56:57 2025.
