 Gaussian 16, Revision C.01,

 ----------------------------------------------------------------------
 #t hf aug-cc-pvdz symm=none int=(grid=ultrafine) guess=(read,tcheck) s
 table=(opt,rrhf)
 ----------------------------------------------------------------------
 -----
 title
 -----
 Symbolic Z-matrix:
 Charge =  0 Multiplicity = 1

 SCF Done:  E(RHF) =  -355.965266562     A.U. after   13 cycles
 Normal termination of Gaussian 16 at Wed Apr  9 19:15:58 2025.
 Gaussian 16:  ES64L-G16RevC.01  3-Jul-2019

 ----------------------------------------------------------------------
 #t hf aug-cc-pvdz iop(5/13=1,5/36=2,99/5=2) pseudo=read geom=check gue
 ss=(read,tcheck) scf=(maxcycle=1)
 ----------------------------------------------------------------------
 -----
 title
 -----
 Structure from the checkpoint file:  "Grambow2020_wb97xd3_008992_forward_mol2.chk"
 Charge =  0 Multiplicity = 1

                         Standard orientation:
 ---------------------------------------------------------------------
 Center     Atomic      Atomic             Coordinates (Angstroms)
 Number     Number       Type             X           Y           Z
 ---------------------------------------------------------------------
      1          6           0       -2.854148   -0.170399    0.036886
      2          7           0       -1.502335   -0.675547   -0.053083
      3          6           0       -0.440899    0.177081   -0.020314
      4          8           0       -0.547966    1.384666   -0.021329
      5          7           0        0.793155   -0.461083   -0.007008
      6          6           0        1.986796    0.225273    0.027395
      7          7           0        3.082454   -0.405793    0.001953
      8          1           0       -2.911311    0.772257   -0.502745
      9          1           0       -3.163877    0.007317    1.070475
     10          1           0       -3.536681   -0.883955   -0.423380
     11          1           0       -1.347476   -1.648714    0.137888
     12          1           0        0.865897   -1.462875   -0.079655
     13          1           0        1.850046    1.305252    0.075827
     14          1           0        3.863720    0.238628    0.035387
 ---------------------------------------------------------------------

 SCF Done:  E(RHF) =  -356.328486593     A.U. after    2 cycles

 The electronic state is 1-A.
 Alpha  occ. eigenvalues --  -20.51305 -15.54489 -15.53662 -15.48282 -11.39760
 Alpha  occ. eigenvalues --  -11.32737 -11.27681  -1.48047  -1.29750  -1.24981
 Alpha  occ. eigenvalues --   -1.18223  -0.98988  -0.88558  -0.84864  -0.82195
 Alpha  occ. eigenvalues --   -0.71153  -0.69698  -0.67494  -0.65474  -0.63073
 Alpha  occ. eigenvalues --   -0.60848  -0.56941  -0.52800  -0.48641  -0.45200
 Alpha  occ. eigenvalues --   -0.43439  -0.42156
 Alpha virt. eigenvalues --    0.02570   0.04333   0.04662   0.05084   0.06040
 Alpha virt. eigenvalues --    0.06792   0.08184   0.09293   0.09735   0.12620
 Alpha virt. eigenvalues --    0.12862   0.13116   0.13728   0.14258   0.14575

 Mulliken charges:
               1
     1  C   -0.219038
     2  N    0.582837
     3  C    0.073426
     4  O   -1.217703
     5  N    0.380043
     6  C   -0.764018
     7  N    0.609139
     8  H    0.133494
     9  H    0.161613
    10  H    0.085528
    11  H    0.071779
    12  H    0.111386
    13  H   -0.202523
    14  H    0.194036
 Sum of Mulliken charges =  -0.00000

 Dipole moment (field-independent basis, Debye):
    X=             -2.2496    Y=             -1.7505    Z=              0.3682  Tot=              2.8741

 Test job not archived.
 1\1\GINC-SE035\SP\RHF\Aug-CC-pVDZ\C3H7N3O1\OHZDE\09-Apr-2025\0\\#t hf
 aug-cc-pvdz iop(5/13=1,5/36=2,99/5=2) pseudo=read geom=check guess=(re
 ad,tcheck) scf=(maxcycle=1)\\title\\0,1\C,0,2.56940005,0.16209949,0.00
 440577\N,0,1.19234761,0.25319483,0.43579255\C,0,0.17593799,-0.0023504,
 -0.43386483\O,0,0.33955229,-0.21241161,-1.61658567\N,0,-1.08398347,0.0
 191141,0.15133393\C,0,-2.23997032,-0.21665724,-0.55940675\N,0,-3.36378
 601,-0.14939518,0.01667694\H,0,2.63963885,0.52520336,-1.01847859\H,0,2
 .94637191,-0.86408233,0.03020906\H,0,3.18980986,0.78728846,0.64556761\

 Normal termination of Gaussian 16 at Wed Apr  9 19:16:02 2025.
