 Gaussian 16, Revision C.01,

 ----------------------------------------------------------------------
 #t hf aug-cc-pvdz symm=none int=(grid=ultrafine) guess=(read,tcheck) s
 table=(opt,rrhf)
 ----------------------------------------------------------------------
 -----
 title
 -----
 Symbolic Z-matrix:
 Charge =  0 Multiplicity = 1

 SCF Done:  E(RHF) =  -307.792112327     A.U. after   14 cycles

 1\1\GINC-SE118\Stability\RHF\Aug-CC-pVDZ\C6H10O1\OHZDE\09-Apr-2025\0\\
 #t hf aug-cc-pvdz symm=none int=(grid=ultrafine) guess=(read,tcheck) s
 table=(opt,rrhf)\\title\\0,1\C,0,2.02811493,-0.46903209,0.23007385\C,0
 ,0.779875,0.31536293,0.57127458\C,0,-0.00741196,0.98702731,-0.58032823
 \C,0,-1.28636234,0.59558073,0.15586826\O,0,-2.46246577,0.19896543,-0.6
 1881261\C,0,-2.44857033,-0.73229187,-1.50357036\C,0,-0.50820258,-0.465
 67981,0.93010448\H,0,2.41456234,-0.99500026,1.1057746\H,0,2.81755771,0
 .18907829,-0.13952637\H,0,1.82005903,-1.2121698,-0.5438595\H,0,0.99665

 Normal termination of Gaussian 16 at Wed Apr  9 19:04:04 2025.
 Gaussian 16:  ES64L-G16RevC.01  3-Jul-2019

 ----------------------------------------------------------------------
 #t hf aug-cc-pvdz iop(5/13=1,5/36=2,99/5=2) pseudo=read geom=check gue
 ss=(read,tcheck) scf=(maxcycle=1)
 ----------------------------------------------------------------------
 -----
 title
 -----
 Structure from the checkpoint file:  "Grambow2020_wb97xd3_008509_reverse_mol2.chk"
 Charge =  0 Multiplicity = 1

                         Standard orientation:
 ---------------------------------------------------------------------
 Center     Atomic      Atomic             Coordinates (Angstroms)
 Number     Number       Type             X           Y           Z
 ---------------------------------------------------------------------
      1          6           0       -2.465705    0.666232   -0.009618
      2          6           0       -1.372880   -0.380335    0.005496
      3          6           0       -0.264530   -0.305532   -1.072979
      4          6           0        0.724415   -0.729264    0.010243
      5          8           0        2.076546   -0.170437   -0.000168
      6          6           0        2.323430    1.090156   -0.013639
      7          6           0       -0.264218   -0.275021    1.081464
      8          1           0       -3.106597    0.579353    0.870464
      9          1           0       -3.097583    0.562462   -0.894431
     10          1           0       -2.039293    1.672528   -0.017071
     11          1           0       -1.808931   -1.382016    0.018721
     12          1           0       -0.343291   -0.930302   -1.961240
     13          1           0       -0.093713    0.732005   -1.370316
     14          1           0        0.893750   -1.803812    0.026019
     15          1           0        1.339536    1.639188   -0.013565
     16          1           0       -0.096842    0.770941    1.349773
     17          1           0       -0.342476   -0.874269    1.987183
 ---------------------------------------------------------------------

 SCF Done:  E(RHF) =  -308.115307712     A.U. after    2 cycles

 The electronic state is 1-A.
 Alpha  occ. eigenvalues --  -20.60730 -11.30861 -11.29895 -11.25339 -11.24633
 Alpha  occ. eigenvalues --  -11.24625 -11.23659  -1.53148  -1.16990  -1.00829
 Alpha  occ. eigenvalues --   -0.92975  -0.92082  -0.81652  -0.75706  -0.71209
 Alpha  occ. eigenvalues --   -0.69037  -0.62427  -0.61804  -0.58365  -0.57017
 Alpha  occ. eigenvalues --   -0.56451  -0.56003  -0.49018  -0.47897  -0.46782
 Alpha  occ. eigenvalues --   -0.46616  -0.34907
 Alpha virt. eigenvalues --    0.02869   0.03270   0.03363   0.04482   0.05792
 Alpha virt. eigenvalues --    0.06105   0.06266   0.06586   0.07868   0.09811
 Alpha virt. eigenvalues --    0.10402   0.11422   0.12290   0.13262   0.13674

 Mulliken charges:
               1
     1  C   -0.311496
     2  C   -0.348802
     3  C   -0.159843
     4  C    1.329873
     5  O   -1.217164
     6  C   -0.108322
     7  C   -0.158950
     8  H    0.204322
     9  H    0.205077
    10  H    0.161976
    11  H   -0.017255
    12  H    0.047908
    13  H    0.097879
    14  H   -0.067918
    15  H    0.196621
    16  H    0.099627
    17  H    0.046468
 Sum of Mulliken charges =  -0.00000

 Dipole moment (field-independent basis, Debye):
    X=             -4.1724    Y=             -1.5095    Z=              0.0296  Tot=              4.4372

 Test job not archived.
 1\1\GINC-SE118\SP\RHF\Aug-CC-pVDZ\C6H10O1\OHZDE\09-Apr-2025\0\\#t hf a
 ug-cc-pvdz iop(5/13=1,5/36=2,99/5=2) pseudo=read geom=check guess=(rea
 d,tcheck) scf=(maxcycle=1)\\title\\0,1\C,0,2.02811493,-0.46903209,0.23
 007385\C,0,0.779875,0.31536293,0.57127458\C,0,-0.00741196,0.98702731,-
 0.58032823\C,0,-1.28636234,0.59558073,0.15586826\O,0,-2.46246577,0.198
 96543,-0.61881261\C,0,-2.44857033,-0.73229187,-1.50357036\C,0,-0.50820
 258,-0.46567981,0.93010448\H,0,2.41456234,-0.99500026,1.1057746\H,0,2.
 81755771,0.18907829,-0.13952637\H,0,1.82005903,-1.2121698,-0.5438595\H

 Normal termination of Gaussian 16 at Wed Apr  9 19:04:10 2025.
