 Gaussian 16, Revision C.01,

 ----------------------------------------------------------------------
 #t hf aug-cc-pvdz symm=none int=(grid=ultrafine) guess=(read,tcheck) s
 table=(opt,rrhf)
 ----------------------------------------------------------------------
 -----
 title
 -----
 Symbolic Z-matrix:
 Charge =  0 Multiplicity = 1

 SCF Done:  E(RHF) =  -343.562339805     A.U. after   14 cycles
 Normal termination of Gaussian 16 at Wed Apr  9 04:04:53 2025.
 Gaussian 16:  ES64L-G16RevC.01  3-Jul-2019

 ----------------------------------------------------------------------
 #t hf aug-cc-pvdz iop(5/13=1,5/36=2,99/5=2) pseudo=read geom=check gue
 ss=(read,tcheck) scf=(maxcycle=1)
 ----------------------------------------------------------------------
 -----
 title
 -----
 Structure from the checkpoint file:  "Grambow2020_wb97xd3_009124_reverse_mol1.chk"
 Charge =  0 Multiplicity = 1

                         Standard orientation:
 ---------------------------------------------------------------------
 Center     Atomic      Atomic             Coordinates (Angstroms)
 Number     Number       Type             X           Y           Z
 ---------------------------------------------------------------------
      1          6           0       -1.471390   -1.406539   -0.223194
      2          6           0       -1.168261   -0.100535    0.092403
      3          8           0       -1.773122    0.939436    0.270692
      4          6           0        0.512607    0.209825   -0.094420
      5          8           0        0.656899    1.538278   -0.386843
      6          6           0        1.665781   -0.703020   -0.499717
      7          6           0        1.405613   -0.430060    0.939245
      8          1           0       -0.334433   -0.477470   -0.930089
      9          1           0       -0.698476   -2.161440   -0.171849
     10          1           0       -2.501600   -1.732545   -0.282054
     11          1           0       -0.176435    1.943682   -0.081213
     12          1           0        2.474987   -0.176778   -0.987920
     13          1           0        1.448833   -1.686538   -0.898003
     14          1           0        0.991303   -1.218968    1.552437
     15          1           0        2.059507    0.270323    1.442000
 ---------------------------------------------------------------------

 SCF Done:  E(RHF) =  -343.918227255     A.U. after    2 cycles

 The electronic state is 1-A.
 Alpha  occ. eigenvalues --  -20.56411 -20.51560 -11.36736 -11.34130 -11.28455
 Alpha  occ. eigenvalues --  -11.27243 -11.25486  -1.49765  -1.45347  -1.18819
 Alpha  occ. eigenvalues --   -1.07260  -0.87797  -0.87252  -0.78487  -0.72873
 Alpha  occ. eigenvalues --   -0.69276  -0.66367  -0.65660  -0.61917  -0.60715
 Alpha  occ. eigenvalues --   -0.57278  -0.54252  -0.53556  -0.50135  -0.43930
 Alpha  occ. eigenvalues --   -0.41080  -0.33749
 Alpha virt. eigenvalues --    0.02963   0.03493   0.03821   0.04895   0.06272
 Alpha virt. eigenvalues --    0.06356   0.07094   0.07846   0.09481   0.10742
 Alpha virt. eigenvalues --    0.11803   0.13122   0.13478   0.14545   0.14706

 Mulliken charges:
               1
     1  C   -0.167246
     2  C    0.886295
     3  O   -1.485506
     4  C    0.782685
     5  O   -1.483188
     6  C    0.063760
     7  C    0.240450
     8  H    1.147173
     9  H   -0.047525
    10  H   -0.087726
    11  H    0.332660
    12  H   -0.033821
    13  H   -0.084930
    14  H   -0.046505
    15  H   -0.016574
 Sum of Mulliken charges =  -0.00000

 Dipole moment (field-independent basis, Debye):
    X=              2.7079    Y=             -3.2179    Z=             -0.1331  Tot=              4.2077

 Test job not archived.
 1\1\GINC-SE084\SP\RHF\Aug-CC-pVDZ\C5H8O2\OHZDE\09-Apr-2025\0\\#t hf au
 g-cc-pvdz iop(5/13=1,5/36=2,99/5=2) pseudo=read geom=check guess=(read
 ,tcheck) scf=(maxcycle=1)\\title\\0,1\C,0,1.63744212,0.33909189,-1.072
 64603\C,0,1.371691,-0.14662773,0.18853965\O,0,1.99773857,-0.64346115,1
 .10527482\C,0,-0.3160174,-0.37777449,0.42253174\O,0,-0.47186463,-1.379
 24575,1.3411641\C,0,-1.50566547,-0.10609386,-0.49304934\C,0,-1.1289599
 1,0.88656159,0.54884004\H,0,0.455592,-0.70653985,-0.66591926\H,0,0.864
 68194,0.8664025,-1.61550316\H,0,2.65682315,0.41915799,-1.42694513\H,0,

 Normal termination of Gaussian 16 at Wed Apr  9 04:04:59 2025.
