 Gaussian 16, Revision C.01,

 ----------------------------------------------------------------------
 #t hf aug-cc-pvdz symm=none int=(grid=ultrafine) guess=(read,tcheck) s
 table=(opt,rrhf)
 ----------------------------------------------------------------------
 -----
 title
 -----
 Symbolic Z-matrix:
 Charge =  0 Multiplicity = 1

 SCF Done:  E(RHF) =  -264.975071438     A.U. after   16 cycles
 Normal termination of Gaussian 16 at Wed Apr  9 15:51:53 2025.
 Gaussian 16:  ES64L-G16RevC.01  3-Jul-2019

 ----------------------------------------------------------------------
 #t hf aug-cc-pvdz iop(5/13=1,5/36=2,99/5=2) pseudo=read geom=check gue
 ss=(read,tcheck) scf=(maxcycle=1)
 ----------------------------------------------------------------------
 -----
 title
 -----
 Structure from the checkpoint file:  "Grambow2020_b97d3_006847_reverse_mol2.chk"
 Charge =  0 Multiplicity = 1

                         Standard orientation:
 ---------------------------------------------------------------------
 Center     Atomic      Atomic             Coordinates (Angstroms)
 Number     Number       Type             X           Y           Z
 ---------------------------------------------------------------------
      1          6           0        1.576887   -1.624506    0.036187
      2          7           0        0.263963   -1.070276   -0.294858
      3          6           0       -0.499363   -0.481110    0.598673
      4          6           0        1.571961    2.274793   -0.025713
      5          6           0       -1.723734    0.028943    0.089398
      6          7           0       -2.770459    0.518831   -0.155924
      7          1           0        1.739001   -1.470148    1.105931
      8          1           0        2.353761   -1.105824   -0.541943
      9          1           0        1.604420   -2.696223   -0.204188
     10          1           0        0.007940   -1.158801   -1.289217
     11          1           0        1.114687    1.704980    0.792064
     12          1           0        1.872597    3.264984    0.336729
     13          1           0        2.456215    1.741748   -0.398643
     14          1           0        0.842342    2.390687   -0.836537
 ---------------------------------------------------------------------

 SCF Done:  E(RHF) =  -265.245287860     A.U. after    2 cycles

 The electronic state is 1-A.
 Alpha  occ. eigenvalues --  -15.59703 -15.53206 -11.31274 -11.30158 -11.28880
 Alpha  occ. eigenvalues --  -11.22626  -1.30398  -1.22260  -1.03564  -0.94743
 Alpha  occ. eigenvalues --   -0.90551  -0.82202  -0.69165  -0.66295  -0.61746
 Alpha  occ. eigenvalues --   -0.59457  -0.55898  -0.55261  -0.55147  -0.53896
 Alpha  occ. eigenvalues --   -0.52716  -0.47874  -0.39748
 Alpha virt. eigenvalues --    0.02366   0.03396   0.03890   0.04156   0.04840
 Alpha virt. eigenvalues --    0.05630   0.06913   0.07617   0.08783   0.09287
 Alpha virt. eigenvalues --    0.10387   0.11559   0.13230   0.13963   0.14628

 Mulliken charges:
               1
     1  C   -0.398569
     2  N    0.798034
     3  C   -0.471933
     4  C   -0.344538
     5  C   -1.122698
     6  N    0.696462
     7  H    0.098674
     8  H    0.177363
     9  H    0.136710
    10  H    0.057769
    11  H    0.120856
    12  H    0.043562
    13  H    0.109692
    14  H    0.098616
 Sum of Mulliken charges =  -0.00000

 Dipole moment (field-independent basis, Debye):
    X=              5.0546    Y=             -2.8683    Z=             -1.6807  Tot=              6.0498

 Test job not archived.
 1\1\GINC-SE009\SP\RHF\Aug-CC-pVDZ\C4H8N2\OHZDE\09-Apr-2025\0\\#t hf au
 g-cc-pvdz iop(5/13=1,5/36=2,99/5=2) pseudo=read geom=check guess=(read
 ,tcheck) scf=(maxcycle=1)\\title\\0,1\C,0,1.92825985,-0.36248183,0.234
 85913\N,0,0.93945314,0.59085633,0.73878274\C,0,0.36579615,1.48726129,-
 0.03294064\C,0,-1.69215096,-1.19535435,-0.9514535\C,0,-0.59583668,2.30
 423442,0.62006514\N,0,-1.42431357,3.06106233,0.98971989\H,0,2.07935001
 ,-0.14976402,-0.8264535\H,0,1.55391162,-1.38706429,0.36482834\H,0,2.87
 253799,-0.25161148,0.78545971\H,0,0.71604713,0.47715182,1.73842985\H,0

 Normal termination of Gaussian 16 at Wed Apr  9 15:51:57 2025.
