 Gaussian 16, Revision C.01,

 ----------------------------------------------------------------------
 #t hf aug-cc-pvdz symm=none int=(grid=ultrafine) guess=(read,tcheck) s
 table=(opt,rrhf)
 ----------------------------------------------------------------------
 -----
 title
 -----
 Symbolic Z-matrix:
 Charge =  0 Multiplicity = 1

 SCF Done:  E(RHF) =  -307.019436876     A.U. after   12 cycles

 1\1\GINC-SE168\Stability\RHF\Aug-CC-pVDZ\C4H10O2\OHZDE\09-Apr-2025\0\\
 #t hf aug-cc-pvdz symm=none int=(grid=ultrafine) guess=(read,tcheck) s
 table=(opt,rrhf)\\title\\0,1\C,0,-2.02438134,-0.55197625,0.28800299\C,
 0,-0.64948683,0.02179656,-0.02368957\C,0,0.49645436,-0.94972026,-0.376
 9606\O,0,2.01631943,1.68008162,-1.28972807\C,0,0.2659365,0.43661643,1.
 14852253\O,0,1.39564247,-0.30829764,0.58481032\H,0,-2.49136243,-0.9696
 2184,-0.61581056\H,0,-1.95559179,-1.35509163,1.03685683\H,0,-2.6963096
 2,0.22395532,0.68251471\H,0,-0.70772979,0.82707756,-0.76627396\H,0,0.8

 Normal termination of Gaussian 16 at Wed Apr  9 16:05:00 2025.
 Gaussian 16:  ES64L-G16RevC.01  3-Jul-2019

 ----------------------------------------------------------------------
 #t hf aug-cc-pvdz iop(5/13=1,5/36=2,99/5=2) pseudo=read geom=check gue
 ss=(read,tcheck) scf=(maxcycle=1)
 ----------------------------------------------------------------------
 -----
 title
 -----
 Structure from the checkpoint file:  "Grambow2020_b97d3_007112_reverse_mol2.chk"
 Charge =  0 Multiplicity = 1

                         Standard orientation:
 ---------------------------------------------------------------------
 Center     Atomic      Atomic             Coordinates (Angstroms)
 Number     Number       Type             X           Y           Z
 ---------------------------------------------------------------------
      1          6           0       -2.326085   -0.642616   -0.078259
      2          6           0       -0.816594   -0.449939   -0.110119
      3          6           0       -0.130070    0.226485    1.095269
      4          8           0        2.546229   -0.810380   -0.254297
      5          6           0       -0.235217    0.733832   -0.913140
      6          8           0        0.598126    1.147420    0.219727
      7          1           0       -2.611180   -1.399799    0.666572
      8          1           0       -2.837795    0.296710    0.179284
      9          1           0       -2.702467   -0.977798   -1.055595
     10          1           0       -0.296977   -1.380171   -0.370825
     11          1           0        0.557037   -0.389305    1.690500
     12          1           0       -0.819376    0.775209    1.757020
     13          1           0        3.141889   -0.871873    0.512070
     14          1           0        0.373385    0.496394   -1.795542
     15          1           0       -0.973006    1.513919   -1.161914
     16          1           0        2.061445    0.033821   -0.107519
 ---------------------------------------------------------------------

 SCF Done:  E(RHF) =  -307.344063084     A.U. after    2 cycles

 The electronic state is 1-A.
 Alpha  occ. eigenvalues --  -20.55222 -20.53291 -11.29457 -11.29374 -11.24716
 Alpha  occ. eigenvalues --  -11.24006  -1.46298  -1.40679  -1.06747  -0.93971
 Alpha  occ. eigenvalues --   -0.92459  -0.77242  -0.71239  -0.67023  -0.65023
 Alpha  occ. eigenvalues --   -0.61989  -0.58450  -0.57589  -0.55972  -0.55310
 Alpha  occ. eigenvalues --   -0.51386  -0.47419  -0.46574  -0.46321  -0.42168
 Alpha virt. eigenvalues --    0.03475   0.03723   0.04087   0.04424   0.06194
 Alpha virt. eigenvalues --    0.06856   0.06881   0.07053   0.08430   0.09718
 Alpha virt. eigenvalues --    0.11818   0.13527   0.14105   0.14548   0.15074

 Mulliken charges:
               1
     1  C   -0.517688
     2  C   -0.649377
     3  C    0.855828
     4  O   -0.961319
     5  C    0.802443
     6  O   -1.292951
     7  H    0.203908
     8  H    0.167374
     9  H    0.201852
    10  H    0.032184
    11  H    0.103341
    12  H   -0.001167
    13  H    0.351922
    14  H    0.112596
    15  H   -0.004880
    16  H    0.595935
 Sum of Mulliken charges =   0.00000

 Dipole moment (field-independent basis, Debye):
    X=             -2.0208    Y=             -0.1486    Z=              1.1334  Tot=              2.3217

 Test job not archived.
 1\1\GINC-SE168\SP\RHF\Aug-CC-pVDZ\C4H10O2\OHZDE\09-Apr-2025\0\\#t hf a
 ug-cc-pvdz iop(5/13=1,5/36=2,99/5=2) pseudo=read geom=check guess=(rea
 d,tcheck) scf=(maxcycle=1)\\title\\0,1\C,0,-2.02438134,-0.55197625,0.2
 8800299\C,0,-0.64948683,0.02179656,-0.02368957\C,0,0.49645436,-0.94972
 026,-0.3769606\O,0,2.01631943,1.68008162,-1.28972807\C,0,0.2659365,0.4
 3661643,1.14852253\O,0,1.39564247,-0.30829764,0.58481032\H,0,-2.491362
 43,-0.96962184,-0.61581056\H,0,-1.95559179,-1.35509163,1.03685683\H,0,
 -2.69630962,0.22395532,0.68251471\H,0,-0.70772979,0.82707756,-0.766273

 Normal termination of Gaussian 16 at Wed Apr  9 16:05:05 2025.
