 Gaussian 16, Revision C.01,

 ----------------------------------------------------------------------
 #t hf aug-cc-pvdz symm=none int=(grid=ultrafine) guess=(read,tcheck) s
 table=(opt,rrhf)
 ----------------------------------------------------------------------
 -----
 title
 -----
 Symbolic Z-matrix:
 Charge =  0 Multiplicity = 1

 SCF Done:  E(RHF) =  -284.730397093     A.U. after   15 cycles
 Normal termination of Gaussian 16 at Wed Apr  9 03:06:51 2025.
 Gaussian 16:  ES64L-G16RevC.01  3-Jul-2019

 ----------------------------------------------------------------------
 #t hf aug-cc-pvdz iop(5/13=1,5/36=2,99/5=2) pseudo=read geom=check gue
 ss=(read,tcheck) scf=(maxcycle=1)
 ----------------------------------------------------------------------
 -----
 title
 -----
 Structure from the checkpoint file:  "Grambow2020_b97d3_006544_reverse_mol1.chk"
 Charge =  0 Multiplicity = 1

                         Standard orientation:
 ---------------------------------------------------------------------
 Center     Atomic      Atomic             Coordinates (Angstroms)
 Number     Number       Type             X           Y           Z
 ---------------------------------------------------------------------
      1          6           0       -0.008015   -1.303351   -0.279958
      2          6           0        1.201335   -0.575456    0.370583
      3          8           0        1.470582    0.645941   -0.263635
      4          6           0       -0.332369    1.570855   -0.039757
      5          7           0       -1.273358    0.830965    0.096033
      6          6           0       -1.350026   -0.642472    0.045593
      7          1           0        0.158521   -1.304512   -1.365477
      8          1           0       -0.056843   -2.349923    0.057023
      9          1           0        1.014591   -0.468771    1.461690
     10          1           0        2.091403   -1.222208    0.266198
     11          1           0        0.731352    1.902698    0.090969
     12          1           0       -2.129641   -0.892910   -0.685157
     13          1           0       -1.726087   -0.946113    1.032829
 ---------------------------------------------------------------------

 SCF Done:  E(RHF) =  -285.024105666     A.U. after    2 cycles

 The electronic state is 1-A.
 Alpha  occ. eigenvalues --  -20.47748 -15.57079 -11.37433 -11.31285 -11.26633
 Alpha  occ. eigenvalues --  -11.23934  -1.35778  -1.29677  -1.07291  -0.94957
 Alpha  occ. eigenvalues --   -0.86004  -0.77247  -0.71376  -0.67467  -0.66061
 Alpha  occ. eigenvalues --   -0.59303  -0.56688  -0.55357  -0.52059  -0.49974
 Alpha  occ. eigenvalues --   -0.49041  -0.38108  -0.35338
 Alpha virt. eigenvalues --    0.03222   0.04169   0.04473   0.04908   0.06073
 Alpha virt. eigenvalues --    0.06597   0.07012   0.07459   0.09018   0.10421
 Alpha virt. eigenvalues --    0.12153   0.12743   0.13990   0.14383   0.15014

 Mulliken charges:
               1
     1  C   -0.355243
     2  C    0.597918
     3  O   -1.328442
     4  C   -0.463757
     5  N    0.793089
     6  C   -0.555580
     7  H    0.154895
     8  H    0.216117
     9  H    0.163598
    10  H    0.016651
    11  H    0.464430
    12  H    0.156915
    13  H    0.139408
 Sum of Mulliken charges =   0.00000

 Dipole moment (field-independent basis, Debye):
    X=             -2.3625    Y=             -1.0186    Z=              0.7559  Tot=              2.6815

 Test job not archived.
 1\1\GINC-SE249\SP\RHF\Aug-CC-pVDZ\C4H7N1O1\OHZDE\09-Apr-2025\0\\#t hf
 aug-cc-pvdz iop(5/13=1,5/36=2,99/5=2) pseudo=read geom=check guess=(re
 ad,tcheck) scf=(maxcycle=1)\\title\\0,1\C,0,0.51870367,-0.69088671,0.4
 9879889\C,0,-0.91909752,-0.88098086,-0.05990667\O,0,-1.78229934,0.1323
 9382,0.38110779\C,0,-0.78640778,1.77426622,-0.30348913\N,0,0.39874781,
 1.62514835,-0.46003311\C,0,1.26804579,0.47029959,-0.15988998\H,0,0.427
 47357,-0.51658715,1.57925488\H,0,1.11510308,-1.60404879,0.35150695\H,0
 ,-0.86869319,-0.9596753,-1.16807434\H,0,-1.3073989,-1.84876255,0.30618

 Normal termination of Gaussian 16 at Wed Apr  9 03:06:56 2025.
