 Gaussian 16, Revision C.01,

 ----------------------------------------------------------------------
 #t hf aug-cc-pvdz symm=none int=(grid=ultrafine) guess=(read,tcheck) s
 table=(opt,rrhf)
 ----------------------------------------------------------------------
 -----
 title
 -----
 Symbolic Z-matrix:
 Charge =  0 Multiplicity = 1

 SCF Done:  E(RHF) =  -373.189497187     A.U. after   18 cycles
 Normal termination of Gaussian 16 at Wed Apr  9 03:27:58 2025.
 Gaussian 16:  ES64L-G16RevC.01  3-Jul-2019

 ----------------------------------------------------------------------
 #t hf aug-cc-pvdz iop(5/13=1,5/36=2,99/5=2) pseudo=read geom=check gue
 ss=(read,tcheck) scf=(maxcycle=1)
 ----------------------------------------------------------------------
 -----
 title
 -----
 Structure from the checkpoint file:  "Grambow2020_wb97xd3_006700_reverse_mol1.chk"
 Charge =  0 Multiplicity = 1

                         Standard orientation:
 ---------------------------------------------------------------------
 Center     Atomic      Atomic             Coordinates (Angstroms)
 Number     Number       Type             X           Y           Z
 ---------------------------------------------------------------------
      1          8           0        2.755009    0.413620   -0.144966
      2          6           0        1.727734   -0.141796    0.004322
      3          6           0        0.508630   -0.521659    0.237025
      4          7           0       -0.569000   -1.198836   -0.001135
      5          6           0       -1.726934   -0.660838   -0.144205
      6          7           0       -1.903342    0.731534   -0.012318
      7          8           0       -0.847690    1.322383    0.077553
      8          1           0        1.603568   -1.409001    0.337347
      9          1           0       -2.612304   -1.262142   -0.286731
 ---------------------------------------------------------------------

 SCF Done:  E(RHF) =  -373.550275812     A.U. after    2 cycles

 The electronic state is 1-A.
 Alpha  occ. eigenvalues --  -20.64378 -20.58838 -15.66381 -15.60680 -11.42147
 Alpha  occ. eigenvalues --  -11.36033 -11.34306  -1.62242  -1.53371  -1.34108
 Alpha  occ. eigenvalues --   -1.15592  -1.08782  -0.94712  -0.81874  -0.77905
 Alpha  occ. eigenvalues --   -0.71962  -0.69447  -0.68502  -0.65742  -0.62829
 Alpha  occ. eigenvalues --   -0.59618  -0.56157  -0.49012  -0.42320  -0.37447
 Alpha virt. eigenvalues --   -0.02184   0.02711   0.04273   0.07394   0.07926
 Alpha virt. eigenvalues --    0.08283   0.09037   0.10161   0.12227   0.12479
 Alpha virt. eigenvalues --    0.13066   0.13775   0.14366   0.15039   0.16462

 Mulliken charges:
               1
     1  O   -0.986790
     2  C    0.873565
     3  C   -0.807495
     4  N    1.058683
     5  C   -0.560256
     6  N    1.183159
     7  O   -1.034082
     8  H    0.316380
     9  H   -0.043163
 Sum of Mulliken charges =  -0.00000

 Dipole moment (field-independent basis, Debye):
    X=             -1.5404    Y=             -2.4369    Z=             -0.1762  Tot=              2.8883

 Test job not archived.
 1\1\GINC-SE342\SP\RHF\Aug-CC-pVDZ\C3H2N2O2\OHZDE\09-Apr-2025\0\\#t hf
 aug-cc-pvdz iop(5/13=1,5/36=2,99/5=2) pseudo=read geom=check guess=(re
 ad,tcheck) scf=(maxcycle=1)\\title\\0,1\O,0,-2.88379312,-0.4766671,-0.
 46815632\C,0,-1.83971659,-0.02060951,-0.17153544\C,0,-0.62393076,0.237
 67228,0.20238353\N,0,0.5126985,0.85409703,0.13404651\C,0,1.64100759,0.
 24978234,0.02248452\N,0,1.71330609,-1.15790627,0.00247937\O,0,0.617392
 54,-1.67379649,-0.06394436\H,0,-1.66291976,1.1881681,0.31808731\H,0,2.
 57306052,0.79478961,0.02425388\\Version=ES64L-G16RevC.01\State=1-A\HF=

 Normal termination of Gaussian 16 at Wed Apr  9 03:28:01 2025.
