 Gaussian 16, Revision C.01,

 ----------------------------------------------------------------------
 #t hf aug-cc-pvdz symm=none int=(grid=ultrafine) guess=(read,tcheck) s
 table=(opt,rrhf)
 ----------------------------------------------------------------------
 -----
 title
 -----
 Symbolic Z-matrix:
 Charge =  0 Multiplicity = 1

 SCF Done:  E(RHF) =  -286.629352309     A.U. after   15 cycles
 Normal termination of Gaussian 16 at Wed Apr  9 19:19:11 2025.
 Gaussian 16:  ES64L-G16RevC.01  3-Jul-2019

 ----------------------------------------------------------------------
 #t hf aug-cc-pvdz iop(5/13=1,5/36=2,99/5=2) pseudo=read geom=check gue
 ss=(read,tcheck) scf=(maxcycle=1)
 ----------------------------------------------------------------------
 -----
 title
 -----
 Structure from the checkpoint file:  "Grambow2020_wb97xd3_009268_forward_mol1.chk"
 Charge =  0 Multiplicity = 1

                         Standard orientation:
 ---------------------------------------------------------------------
 Center     Atomic      Atomic             Coordinates (Angstroms)
 Number     Number       Type             X           Y           Z
 ---------------------------------------------------------------------
      1          6           0        2.154479   -0.076153   -0.267281
      2          6           0        0.767630    0.109167   -0.090953
      3          6           0       -0.123408    0.700706    0.935773
      4          6           0       -0.960742    1.221573   -0.217348
      5          7           0       -0.426793    0.069328   -1.039038
      6          6           0       -1.076584   -1.078018   -0.345356
      7          6           0       -0.385119   -0.815123    0.965720
      8          1           0        2.484269   -0.699113   -1.084807
      9          1           0        1.189852   -0.988199    0.462679
     10          1           0        2.852044    0.580181    0.231807
     11          1           0        0.188721    1.224506    1.831376
     12          1           0       -2.047767    1.243462   -0.125701
     13          1           0       -0.595716    2.163262   -0.624011
     14          1           0       -0.781552   -2.018313   -0.812286
     15          1           0       -2.165875   -0.990669   -0.383453
     16          1           0       -0.393962   -1.373321    1.894330
 ---------------------------------------------------------------------

 SCF Done:  E(RHF) =  -286.936449012     A.U. after    2 cycles

 The electronic state is 1-A.
 Alpha  occ. eigenvalues --  -15.51370 -11.33662 -11.27475 -11.26959 -11.26303
 Alpha  occ. eigenvalues --  -11.24747 -11.20515  -1.32411  -1.07277  -1.01205
 Alpha  occ. eigenvalues --   -0.99913  -0.87752  -0.78137  -0.73399  -0.70807
 Alpha  occ. eigenvalues --   -0.68336  -0.65133  -0.60918  -0.57125  -0.55512
 Alpha  occ. eigenvalues --   -0.54026  -0.51956  -0.48232  -0.46392  -0.42387
 Alpha  occ. eigenvalues --   -0.25244
 Alpha virt. eigenvalues --    0.03267   0.03767   0.03925   0.04240   0.05375
 Alpha virt. eigenvalues --    0.05555   0.05866   0.07233   0.08859   0.10078
 Alpha virt. eigenvalues --    0.11834   0.12234   0.12867   0.13423   0.13994

 Mulliken charges:
               1
     1  C    0.253747
     2  C   -1.510981
     3  C    0.700626
     4  C   -0.054921
     5  N    0.567420
     6  C   -0.016948
     7  C    0.049726
     8  H   -0.089453
     9  H    0.643335
    10  H   -0.174469
    11  H   -0.200366
    12  H    0.028346
    13  H   -0.024905
    14  H    0.008069
    15  H    0.029852
    16  H   -0.209079
 Sum of Mulliken charges =  -0.00000

 Dipole moment (field-independent basis, Debye):
    X=             -1.4563    Y=              0.0740    Z=              2.3538  Tot=              2.7689

 Test job not archived.
 1\1\GINC-SE045\SP\RHF\Aug-CC-pVDZ\C6H9N1\OHZDE\09-Apr-2025\0\\#t hf au
 g-cc-pvdz iop(5/13=1,5/36=2,99/5=2) pseudo=read geom=check guess=(read
 ,tcheck) scf=(maxcycle=1)\\title\\0,1\C,0,2.12285855,0.26724387,-0.045
 77788\C,0,0.7126512,0.26308954,-0.03670227\C,0,-0.3642115,0.53248707,0
 .94606294\C,0,-1.12121039,1.18649696,-0.1947003\N,0,-0.34536093,0.2913
 5526,-1.13529685\C,0,-0.91409211,-1.03672135,-0.77117684\C,0,-0.423587
 18,-0.97628692,0.65076292\H,0,2.62688974,-0.13566776,-0.91111237\H,0,1
 .20872043,-0.87302426,0.35336317\H,0,2.66297464,0.8778208,0.66269236\H

 Normal termination of Gaussian 16 at Wed Apr  9 19:19:17 2025.
