 Gaussian 16, Revision C.01,

 ----------------------------------------------------------------------
 #t hf aug-cc-pvdz symm=none int=(grid=ultrafine) guess=(read,tcheck) s
 table=(opt,rrhf)
 ----------------------------------------------------------------------
 -----
 title
 -----
 Symbolic Z-matrix:
 Charge =  0 Multiplicity = 1

 SCF Done:  E(RHF) =  -283.538902609     A.U. after   15 cycles
 Normal termination of Gaussian 16 at Wed Apr  9 15:44:39 2025.
 Gaussian 16:  ES64L-G16RevC.01  3-Jul-2019

 ----------------------------------------------------------------------
 #t hf aug-cc-pvdz iop(5/13=1,5/36=2,99/5=2) pseudo=read geom=check gue
 ss=(read,tcheck) scf=(maxcycle=1)
 ----------------------------------------------------------------------
 -----
 title
 -----
 Structure from the checkpoint file:  "Grambow2020_b97d3_006729_forward_mol1.chk"
 Charge =  0 Multiplicity = 1

                         Standard orientation:
 ---------------------------------------------------------------------
 Center     Atomic      Atomic             Coordinates (Angstroms)
 Number     Number       Type             X           Y           Z
 ---------------------------------------------------------------------
      1          6           0       -1.399806   -0.059450    0.613573
      2          6           0       -0.642682    0.714417   -0.416306
      3          8           0        0.662672    1.159424    0.014041
      4          6           0        1.470147    0.068606    0.183186
      5          7           0        0.824913   -1.088635   -0.100159
      6          6           0       -0.570263   -0.798581   -0.419379
      7          1           0       -1.053981   -0.020027    1.646936
      8          1           0       -2.479341   -0.135305    0.487928
      9          1           0       -1.086530    1.344650   -1.181212
     10          1           0        1.445541   -0.939990    1.013876
     11          1           0       -1.045820   -1.454224   -1.145187
 ---------------------------------------------------------------------

 SCF Done:  E(RHF) =  -283.824516176     A.U. after    2 cycles

 The electronic state is 1-A.
 Alpha  occ. eigenvalues --  -20.59525 -15.55474 -11.32697 -11.31978 -11.29698
 Alpha  occ. eigenvalues --  -11.26974  -1.52100  -1.26423  -1.15368  -0.90570
 Alpha  occ. eigenvalues --   -0.86564  -0.79209  -0.74566  -0.69154  -0.63884
 Alpha  occ. eigenvalues --   -0.60751  -0.57519  -0.56107  -0.52723  -0.45190
 Alpha  occ. eigenvalues --   -0.42686  -0.39484
 Alpha virt. eigenvalues --    0.03020   0.03951   0.04286   0.04642   0.06716
 Alpha virt. eigenvalues --    0.08793   0.09338   0.10107   0.10567   0.11148
 Alpha virt. eigenvalues --    0.13439   0.13864   0.14871   0.15179   0.15570

 Mulliken charges:
               1
     1  C    0.140557
     2  C    1.460036
     3  O   -1.277139
     4  C   -0.290344
     5  N    0.417383
     6  C   -0.575403
     7  H   -0.099540
     8  H   -0.058930
     9  H   -0.087495
    10  H    0.525356
    11  H   -0.154480
 Sum of Mulliken charges =  -0.00000

 Dipole moment (field-independent basis, Debye):
    X=             -3.6135    Y=             -0.3283    Z=              0.1438  Tot=              3.6312

 Test job not archived.
 1\1\GINC-SE009\SP\RHF\Aug-CC-pVDZ\C4H5N1O1\OHZDE\09-Apr-2025\0\\#t hf
 aug-cc-pvdz iop(5/13=1,5/36=2,99/5=2) pseudo=read geom=check guess=(re
 ad,tcheck) scf=(maxcycle=1)\\title\\0,1\C,0,-1.10293829,0.43326569,-0.
 0244724\C,0,-0.29020995,-0.59824005,-0.73737077\O,0,0.93020975,-0.0939
 5339,-1.32341733\C,0,1.78264154,0.27962779,-0.32126639\N,0,1.24671676,
 0.06866387,0.90515049\C,0,-0.12161999,-0.41954329,0.75730685\H,0,-0.87
 357914,1.48450998,-0.20129931\H,0,-2.1556348,0.21007979,0.14568698\H,0
 ,-0.6883913,-1.47119045,-1.24598289\H,0,1.7330765,1.21446994,0.5906169

 Normal termination of Gaussian 16 at Wed Apr  9 15:44:43 2025.
