 Gaussian 16, Revision C.01,

 ----------------------------------------------------------------------
 #t hf aug-cc-pvdz symm=none int=(grid=ultrafine) guess=(read,tcheck) s
 table=(opt,rrhf)
 ----------------------------------------------------------------------
 -----
 title
 -----
 Symbolic Z-matrix:
 Charge =  0 Multiplicity = 1

 SCF Done:  E(RHF) =  -306.528295022     A.U. after   15 cycles
 Normal termination of Gaussian 16 at Wed Apr  9 19:01:57 2025.
 Gaussian 16:  ES64L-G16RevC.01  3-Jul-2019

 ----------------------------------------------------------------------
 #t hf aug-cc-pvdz iop(5/13=1,5/36=2,99/5=2) pseudo=read geom=check gue
 ss=(read,tcheck) scf=(maxcycle=1)
 ----------------------------------------------------------------------
 -----
 title
 -----
 Structure from the checkpoint file:  "Grambow2020_wb97xd3_008457_forward_mol1.chk"
 Charge =  0 Multiplicity = 1

                         Standard orientation:
 ---------------------------------------------------------------------
 Center     Atomic      Atomic             Coordinates (Angstroms)
 Number     Number       Type             X           Y           Z
 ---------------------------------------------------------------------
      1          6           0        1.346281   -0.813648   -0.939644
      2          6           0        1.335632    0.471855   -0.127345
      3          6           0        0.019956    1.180567    0.055694
      4          8           0       -1.121495    0.751937   -0.638691
      5          6           0       -1.528367   -0.488680   -0.085185
      6          6           0       -0.258694   -1.071640    0.508998
      7          6           0        0.470337    0.165571    1.050672
      8          1           0        0.250184   -1.447248   -0.541019
      9          1           0        2.082016   -1.459646   -0.423798
     10          1           0        2.255663    1.040640   -0.065091
     11          1           0        0.018821    2.236525    0.292348
     12          1           0       -1.963687   -1.095329   -0.880530
     13          1           0       -2.277699   -0.335981    0.705020
     14          1           0       -0.340786   -1.954254    1.137120
     15          1           0        0.636577    0.335653    2.106337
 ---------------------------------------------------------------------

 SCF Done:  E(RHF) =  -306.845480564     A.U. after    2 cycles

 The electronic state is 1-A.
 Alpha  occ. eigenvalues --  -20.55010 -11.29834 -11.29149 -11.28908 -11.25742
 Alpha  occ. eigenvalues --  -11.25025 -11.24947  -1.48078  -1.19018  -1.04844
 Alpha  occ. eigenvalues --   -0.94100  -0.87396  -0.80861  -0.74164  -0.73297
 Alpha  occ. eigenvalues --   -0.68606  -0.63010  -0.61908  -0.56835  -0.54911
 Alpha  occ. eigenvalues --   -0.53674  -0.51524  -0.48635  -0.46109  -0.38372
 Alpha  occ. eigenvalues --   -0.31437
 Alpha virt. eigenvalues --    0.02683   0.03317   0.03758   0.04438   0.05629
 Alpha virt. eigenvalues --    0.06160   0.06210   0.08554   0.09219   0.10667
 Alpha virt. eigenvalues --    0.11787   0.12478   0.12940   0.13428   0.14023

 Mulliken charges:
               1
     1  C   -0.779688
     2  C    0.352456
     3  C    1.504048
     4  O   -1.517323
     5  C    0.468035
     6  C   -0.589954
     7  C    0.226617
     8  H    0.507661
     9  H    0.206726
    10  H   -0.187054
    11  H   -0.124613
    12  H    0.059570
    13  H    0.091648
    14  H   -0.003778
    15  H   -0.214350
 Sum of Mulliken charges =  -0.00000

 Dipole moment (field-independent basis, Debye):
    X=             -0.0538    Y=             -0.6066    Z=              3.7008  Tot=              3.7505

 Test job not archived.
 1\1\GINC-SE097\SP\RHF\Aug-CC-pVDZ\C6H8O1\OHZDE\09-Apr-2025\0\\#t hf au
 g-cc-pvdz iop(5/13=1,5/36=2,99/5=2) pseudo=read geom=check guess=(read
 ,tcheck) scf=(maxcycle=1)\\title\\0,1\C,0,1.24856481,1.17625587,0.5067
 7586\C,0,1.42123359,-0.2065226,-0.10197046\C,0,0.40571985,-1.26254847,
 0.24490074\O,0,-0.56878619,-1.01781058,1.22431124\C,0,-1.48907989,-0.0
 7596259,0.69798044\C,0,-0.69362393,0.68600816,-0.34682348\C,0,0.209040
 65,-0.39710547,-0.95316645\H,0,-0.05784125,1.39592269,0.42413436\H,0,1
 .56277335,1.87156615,-0.29480575\H,0,2.41797832,-0.50915516,-0.3999027

 Normal termination of Gaussian 16 at Wed Apr  9 19:02:02 2025.
