 Gaussian 16, Revision C.01,

 ----------------------------------------------------------------------
 #t hf aug-cc-pvdz symm=none int=(grid=ultrafine) guess=(read,tcheck) s
 table=(opt,rrhf)
 ----------------------------------------------------------------------
 -----
 title
 -----
 Symbolic Z-matrix:
 Charge =  0 Multiplicity = 1

 SCF Done:  E(RHF) =  -317.629465517     A.U. after   15 cycles
 Normal termination of Gaussian 16 at Wed Apr  9 18:46:24 2025.
 Gaussian 16:  ES64L-G16RevC.01  3-Jul-2019

 ----------------------------------------------------------------------
 #t hf aug-cc-pvdz iop(5/13=1,5/36=2,99/5=2) pseudo=read geom=check gue
 ss=(read,tcheck) scf=(maxcycle=1)
 ----------------------------------------------------------------------
 -----
 title
 -----
 Structure from the checkpoint file:  "Grambow2020_wb97xd3_008055_reverse_mol1.chk"
 Charge =  0 Multiplicity = 1

                         Standard orientation:
 ---------------------------------------------------------------------
 Center     Atomic      Atomic             Coordinates (Angstroms)
 Number     Number       Type             X           Y           Z
 ---------------------------------------------------------------------
      1          7           0        2.626920    0.223446   -0.626366
      2          6           0        1.785938   -0.307369   -0.032575
      3          6           0       -1.104065    1.085262   -0.127621
      4          6           0       -1.501067   -0.178044   -0.806707
      5          7           0       -0.954417   -1.220532    0.010440
      6          6           0       -0.060616   -0.685177    0.769556
      7          7           0       -0.293750    0.784076    0.806739
      8          1           0       -1.351741    2.108435   -0.378233
      9          1           0       -2.579585   -0.262166   -0.963351
     10          1           0       -1.033311   -0.135971   -1.810088
     11          1           0        0.324782   -1.146370    1.664943
     12          1           0        0.267440    1.439107    1.335130
 ---------------------------------------------------------------------

 SCF Done:  E(RHF) =  -317.949545064     A.U. after    2 cycles

 The electronic state is 1-A.
 Alpha  occ. eigenvalues --  -15.64473 -15.47983 -15.43691 -11.40016 -11.38090
 Alpha  occ. eigenvalues --  -11.31321 -11.18086  -1.40642  -1.22989  -1.15471
 Alpha  occ. eigenvalues --   -1.08044  -0.92669  -0.89999  -0.85190  -0.72376
 Alpha  occ. eigenvalues --   -0.71137  -0.67108  -0.61878  -0.60635  -0.57235
 Alpha  occ. eigenvalues --   -0.51848  -0.48936  -0.43716  -0.43676  -0.37751
 Alpha virt. eigenvalues --    0.00944   0.01767   0.02994   0.03455   0.04606
 Alpha virt. eigenvalues --    0.05439   0.07796   0.08946   0.10113   0.10457
 Alpha virt. eigenvalues --    0.11115   0.12016   0.12757   0.13606   0.14359

 Mulliken charges:
               1
     1  N    0.651942
     2  C   -1.267245
     3  C   -0.376015
     4  C   -0.073637
     5  N    0.688724
     6  C   -0.975754
     7  N    0.942082
     8  H   -0.053655
     9  H    0.123499
    10  H    0.278320
    11  H   -0.016512
    12  H    0.078251
 Sum of Mulliken charges =   0.00000

 Dipole moment (field-independent basis, Debye):
    X=             -7.6837    Y=              4.9855    Z=              2.6661  Tot=              9.5395

 Test job not archived.
 1\1\GINC-SE113\SP\RHF\Aug-CC-pVDZ\C4H5N3\OHZDE\09-Apr-2025\0\\#t hf au
 g-cc-pvdz iop(5/13=1,5/36=2,99/5=2) pseudo=read geom=check guess=(read
 ,tcheck) scf=(maxcycle=1)\\title\\0,1\N,0,1.90396437,-0.39096972,2.306
 8563\C,0,0.91756656,0.0970427,1.9456533\C,0,0.30878535,-0.11086758,-1.
 19866359\C,0,-0.86204024,-0.90968869,-0.74505272\N,0,-1.44983713,-0.13
 347004,0.30628713\C,0,-0.56951378,0.7281716,0.68621613\N,0,0.45572463,
 0.85669776,-0.38467433\H,0,1.00065359,-0.30272453,-2.00831927\H,0,-1.5
 5675878,-1.15258803,-1.55324816\H,0,-0.44445788,-1.86926609,-0.3814928

 Normal termination of Gaussian 16 at Wed Apr  9 18:46:28 2025.
