 Gaussian 16, Revision C.01,

 ----------------------------------------------------------------------
 #t hf aug-cc-pvdz symm=none int=(grid=ultrafine) guess=(read,tcheck) s
 table=(opt,rrhf)
 ----------------------------------------------------------------------
 -----
 title
 -----
 Symbolic Z-matrix:
 Charge =  0 Multiplicity = 1

 SCF Done:  E(RHF) =  -260.103539614     A.U. after   14 cycles
 Normal termination of Gaussian 16 at Wed Apr  9 03:05:10 2025.
 Gaussian 16:  ES64L-G16RevC.01  3-Jul-2019

 ----------------------------------------------------------------------
 #t hf aug-cc-pvdz iop(5/13=1,5/36=2,99/5=2) pseudo=read geom=check gue
 ss=(read,tcheck) scf=(maxcycle=1)
 ----------------------------------------------------------------------
 -----
 title
 -----
 Structure from the checkpoint file:  "Grambow2020_b97d3_006466_reverse_mol2.chk"
 Charge =  0 Multiplicity = 1

                         Standard orientation:
 ---------------------------------------------------------------------
 Center     Atomic      Atomic             Coordinates (Angstroms)
 Number     Number       Type             X           Y           Z
 ---------------------------------------------------------------------
      1          6           0       -0.725043    0.001734    0.000522
      2          6           0       -2.031739    0.000113    0.000468
      3          6           0       -3.328262   -0.002718   -0.000470
      4          7           0        2.953302   -0.002942    0.000066
      5          6           0        0.542107    0.004108   -0.000485
      6          7           0        1.797786    0.000167   -0.000095
 ---------------------------------------------------------------------

 SCF Done:  E(RHF) =  -260.342583777     A.U. after    2 cycles

 The electronic state is 1-A.
 Alpha  occ. eigenvalues --  -15.77533 -15.69728 -11.39955 -11.33414 -11.31449
 Alpha  occ. eigenvalues --  -11.24172  -1.54134  -1.24406  -1.11054  -1.00425
 Alpha  occ. eigenvalues --   -0.87332  -0.79418  -0.77909  -0.77909  -0.53010
 Alpha  occ. eigenvalues --   -0.53010  -0.46964  -0.37495  -0.37495
 Alpha virt. eigenvalues --   -0.05296  -0.05296   0.03377   0.07025   0.08135
 Alpha virt. eigenvalues --    0.08135   0.09189   0.10962   0.11760   0.11760
 Alpha virt. eigenvalues --    0.12990   0.12990   0.15650   0.18276   0.18277

 Mulliken charges:
               1
     1  C    2.455612
     2  C   -0.216624
     3  C   -0.888460
     4  N    0.401098
     5  C   -1.418490
     6  N   -0.333136
 Sum of Mulliken charges =  -0.00000

 Dipole moment (field-independent basis, Debye):
    X=              3.0034    Y=              0.0034    Z=              0.0016  Tot=              3.0034

 Test job not archived.
 1\1\GINC-SE109\SP\RHF\Aug-CC-pVDZ\C4N2\OHZDE\09-Apr-2025\0\\#t hf aug-
 cc-pvdz iop(5/13=1,5/36=2,99/5=2) pseudo=read geom=check guess=(read,t
 check) scf=(maxcycle=1)\\title\\0,1\C,0,0.31286224,-0.1545556,0.500265
 42\C,0,0.99545857,-0.48296278,1.56500447\C,0,1.67177835,-0.80803121,2.
 62231366\N,0,-1.61642821,0.76994338,-2.49195524\C,0,-0.34830752,0.1649
 8355,-0.53241318\N,0,-1.00894442,0.47991266,-1.55276714\\Version=ES64L
 -G16RevC.01\State=1-A\HF=-260.3425838\RMSD=1.192e-01\Dipole=-0.6174039
 ,0.2964215,-0.962911\Quadrupole=0.6796986,3.0705672,-3.7502658,1.49193

 Normal termination of Gaussian 16 at Wed Apr  9 03:05:12 2025.
