 Gaussian 16, Revision C.01,

 ----------------------------------------------------------------------
 #t hf aug-cc-pvdz symm=none int=(grid=ultrafine) guess=(read,tcheck) s
 table=(opt,rrhf)
 ----------------------------------------------------------------------
 -----
 title
 -----
 Symbolic Z-matrix:
 Charge =  0 Multiplicity = 1

 SCF Done:  E(RHF) =  -308.794596850     A.U. after   16 cycles

 1\1\GINC-SE030\Stability\RHF\Aug-CC-pVDZ\C6H12O1\OHZDE\09-Apr-2025\0\\
 #t hf aug-cc-pvdz symm=none int=(grid=ultrafine) guess=(read,tcheck) s
 table=(opt,rrhf)\\title\\0,1\C,0,-0.13370135,-1.38208393,-0.5809389\C,
 0,-0.62600636,0.02004948,-0.52348265\C,0,-1.05809768,0.51804346,0.8603
 5562\C,0,-0.53334855,1.94857708,0.88846878\O,0,0.56521696,1.97115515,-
 0.07130413\C,0,0.52912359,0.86658558,-0.77126802\C,0,1.65964341,-1.117
 28833,0.02754812\H,0,-1.7372385,-1.75135086,-1.12960503\H,0,0.10335057
 ,-1.78733871,-1.55297401\H,0,-0.43299966,-2.04731904,0.21332305\H,0,-1

 Normal termination of Gaussian 16 at Wed Apr  9 17:35:05 2025.
 Gaussian 16:  ES64L-G16RevC.01  3-Jul-2019

 ----------------------------------------------------------------------
 #t hf aug-cc-pvdz iop(5/13=1,5/36=2,99/5=2) pseudo=read geom=check gue
 ss=(read,tcheck) scf=(maxcycle=1)
 ----------------------------------------------------------------------
 -----
 title
 -----
 Structure from the checkpoint file:  "Grambow2020_wb97xd3_006726_forward_mol1.chk"
 Charge =  0 Multiplicity = 1

                         Standard orientation:
 ---------------------------------------------------------------------
 Center     Atomic      Atomic             Coordinates (Angstroms)
 Number     Number       Type             X           Y           Z
 ---------------------------------------------------------------------
      1          6           0       -1.651062    0.702241   -0.199038
      2          6           0       -0.206624    0.681777   -0.552340
      3          6           0        0.759666    1.070914    0.572189
      4          6           0        1.911655    0.090294    0.388114
      5          8           0        1.333264   -1.050810   -0.313219
      6          6           0        0.144725   -0.715329   -0.744675
      7          6           0       -1.789463   -0.989144    0.682167
      8          1           0       -1.649379    2.259955   -0.962090
      9          1           0       -2.360091    0.509979   -0.989981
     10          1           0       -1.947975    1.302625    0.646155
     11          1           0       -0.034510    1.323306   -1.445187
     12          1           0        0.279452    0.922689    1.540335
     13          1           0        1.073500    2.110509    0.496685
     14          1           0        2.346068   -0.288983    1.310423
     15          1           0        2.704725    0.476311   -0.254002
     16          1           0       -0.313528   -1.412646   -1.432124
     17          1           0       -1.094542   -1.193129    1.499585
     18          1           0       -2.757057   -0.750885    1.122326
     19          1           0       -1.926153   -1.897773    0.095120
 ---------------------------------------------------------------------

 SCF Done:  E(RHF) =  -309.124989811     A.U. after    2 cycles

 The electronic state is 1-A.
 Alpha  occ. eigenvalues --  -20.65674 -11.40438 -11.33700 -11.26647 -11.26533
 Alpha  occ. eigenvalues --  -11.26470 -11.21513  -1.58981  -1.14415  -1.06966
 Alpha  occ. eigenvalues --   -0.95865  -0.89870  -0.87155  -0.81891  -0.75699
 Alpha  occ. eigenvalues --   -0.73543  -0.67178  -0.64183  -0.60734  -0.60033
 Alpha  occ. eigenvalues --   -0.57357  -0.56723  -0.54438  -0.51986  -0.51646
 Alpha  occ. eigenvalues --   -0.49817  -0.40049  -0.21776
 Alpha virt. eigenvalues --    0.02293   0.02682   0.03401   0.04504   0.04624
 Alpha virt. eigenvalues --    0.05680   0.05991   0.06261   0.06719   0.08027
 Alpha virt. eigenvalues --    0.08904   0.09431   0.10552   0.11565   0.12215

 Mulliken charges:
               1
     1  C   -0.027641
     2  C   -0.268777
     3  C   -0.232107
     4  C    0.498305
     5  O   -1.484583
     6  C    1.599721
     7  C   -0.567234
     8  H   -0.192869
     9  H    0.026108
    10  H   -0.023506
    11  H    0.113790
    12  H    0.126570
    13  H    0.190869
    14  H    0.082125
    15  H    0.103466
    16  H   -0.065948
    17  H    0.066623
    18  H   -0.031387
    19  H    0.086476
 Sum of Mulliken charges =   0.00000

 Dipole moment (field-independent basis, Debye):
    X=              4.7358    Y=             -3.8322    Z=              1.0855  Tot=              6.1880

 Test job not archived.
 1\1\GINC-SE030\SP\RHF\Aug-CC-pVDZ\C6H12O1\OHZDE\09-Apr-2025\0\\#t hf a
 ug-cc-pvdz iop(5/13=1,5/36=2,99/5=2) pseudo=read geom=check guess=(rea
 d,tcheck) scf=(maxcycle=1)\\title\\0,1\C,0,-0.13370135,-1.38208393,-0.
 5809389\C,0,-0.62600636,0.02004948,-0.52348265\C,0,-1.05809768,0.51804
 346,0.86035562\C,0,-0.53334855,1.94857708,0.88846878\O,0,0.56521696,1.
 97115515,-0.07130413\C,0,0.52912359,0.86658558,-0.77126802\C,0,1.65964
 341,-1.11728833,0.02754812\H,0,-1.7372385,-1.75135086,-1.12960503\H,0,
 0.10335057,-1.78733871,-1.55297401\H,0,-0.43299966,-2.04731904,0.21332

 Normal termination of Gaussian 16 at Wed Apr  9 17:35:13 2025.
