 Gaussian 16, Revision C.01,

 ----------------------------------------------------------------------
 #t hf aug-cc-pvdz symm=none int=(grid=ultrafine) guess=(read,tcheck) s
 table=(opt,rrhf)
 ----------------------------------------------------------------------
 -----
 title
 -----
 Symbolic Z-matrix:
 Charge =  0 Multiplicity = 1

 SCF Done:  E(RHF) =  -281.159439080     A.U. after   18 cycles
 Normal termination of Gaussian 16 at Wed Apr  9 03:05:36 2025.
 Gaussian 16:  ES64L-G16RevC.01  3-Jul-2019

 ----------------------------------------------------------------------
 #t hf aug-cc-pvdz iop(5/13=1,5/36=2,99/5=2) pseudo=read geom=check gue
 ss=(read,tcheck) scf=(maxcycle=1)
 ----------------------------------------------------------------------
 -----
 title
 -----
 Structure from the checkpoint file:  "Grambow2020_b97d3_006498_forward_mol1.chk"
 Charge =  0 Multiplicity = 1

                         Standard orientation:
 ---------------------------------------------------------------------
 Center     Atomic      Atomic             Coordinates (Angstroms)
 Number     Number       Type             X           Y           Z
 ---------------------------------------------------------------------
      1          8           0       -0.943491   -1.089190   -0.243828
      2          6           0       -0.073835    0.257704   -0.311438
      3          6           0       -1.031478    1.248769   -0.175569
      4          6           0       -1.476474   -0.010336    0.387460
      5          6           0        1.300026    0.063792   -0.027776
      6          7           0        2.445421   -0.072071    0.187819
      7          1           0       -1.879450   -0.141562    1.399829
 ---------------------------------------------------------------------

 SCF Done:  E(RHF) =  -281.424000151     A.U. after    2 cycles

 The electronic state is 1-A.
 Alpha  occ. eigenvalues --  -20.65910 -15.57508 -11.42729 -11.42244 -11.33773
 Alpha  occ. eigenvalues --  -11.31400  -1.57357  -1.26924  -1.19159  -1.00021
 Alpha  occ. eigenvalues --   -0.86837  -0.73691  -0.67668  -0.66650  -0.64930
 Alpha  occ. eigenvalues --   -0.58450  -0.55166  -0.53349  -0.47412  -0.41973
 Alpha virt. eigenvalues --    0.01341   0.02905   0.05036   0.06081   0.06980
 Alpha virt. eigenvalues --    0.08019   0.09603   0.10837   0.11124   0.11540
 Alpha virt. eigenvalues --    0.12565   0.13721   0.14067   0.16082   0.16638

 Mulliken charges:
               1
     1  O   -1.116563
     2  C    1.418285
     3  C   -0.326073
     4  C    1.053352
     5  C   -1.854869
     6  N    0.776244
     7  H    0.049624
 Sum of Mulliken charges =  -0.00000

 Dipole moment (field-independent basis, Debye):
    X=             -3.6263    Y=             -1.0988    Z=              0.9864  Tot=              3.9154

 Test job not archived.
 1\1\GINC-SE126\SP\RHF\Aug-CC-pVDZ\C4H1N1O1\OHZDE\09-Apr-2025\0\\#t hf
 aug-cc-pvdz iop(5/13=1,5/36=2,99/5=2) pseudo=read geom=check guess=(re
 ad,tcheck) scf=(maxcycle=1)\\title\\0,1\O,0,0.09471378,-1.18164654,-0.
 74878128\C,0,-0.33620721,-0.16762079,0.41786192\C,0,0.75443954,-0.1992
 3484,1.27064587\C,0,1.1152955,-0.58470546,-0.07900744\C,0,-1.36198862,
 0.73276382,0.04018414\N,0,-2.22196638,1.47951995,-0.24206346\H,0,1.941
 72737,-0.15400413,-0.65866977\\Version=ES64L-G16RevC.01\State=1-A\HF=-
 281.4240002\RMSD=2.137e-02\Dipole=1.2707489,-0.7195225,-0.4903401\Quad

 Normal termination of Gaussian 16 at Wed Apr  9 03:05:39 2025.
