 Gaussian 16, Revision C.01,

 ----------------------------------------------------------------------
 #t hf aug-cc-pvdz symm=none int=(grid=ultrafine) guess=(read,tcheck) s
 table=(opt,rrhf)
 ----------------------------------------------------------------------
 -----
 title
 -----
 Symbolic Z-matrix:
 Charge =  0 Multiplicity = 1

 SCF Done:  E(RHF) =  -270.879547047     A.U. after   14 cycles
 Normal termination of Gaussian 16 at Wed Apr  9 18:57:58 2025.
 Gaussian 16:  ES64L-G16RevC.01  3-Jul-2019

 ----------------------------------------------------------------------
 #t hf aug-cc-pvdz iop(5/13=1,5/36=2,99/5=2) pseudo=read geom=check gue
 ss=(read,tcheck) scf=(maxcycle=1)
 ----------------------------------------------------------------------
 -----
 title
 -----
 Structure from the checkpoint file:  "Grambow2020_wb97xd3_008385_reverse_mol2.chk"
 Charge =  0 Multiplicity = 1

                         Standard orientation:
 ---------------------------------------------------------------------
 Center     Atomic      Atomic             Coordinates (Angstroms)
 Number     Number       Type             X           Y           Z
 ---------------------------------------------------------------------
      1          6           0       -2.472338   -0.055734    0.224950
      2          6           0       -1.007382   -0.075699   -0.056917
      3          6           0        1.829500   -0.076543    0.784066
      4          6           0        1.228648    0.734956   -0.322813
      5          6           0       -0.207673    1.205084   -0.169796
      6          6           0        1.202958   -0.773567   -0.395409
      7          6           0       -0.227847   -1.142236   -0.220761
      8          1           0       -3.004528    0.546078   -0.517559
      9          1           0       -2.893868   -1.061203    0.217022
     10          1           0       -2.676673    0.391438    1.201969
     11          1           0        1.307920   -0.132706    1.732559
     12          1           0        2.910027   -0.080390    0.855885
     13          1           0        1.901305    1.303939   -0.950558
     14          1           0       -0.533527    1.786574   -1.039271
     15          1           0       -0.347487    1.848125    0.705875
     16          1           0        1.836186   -1.330742   -1.073966
     17          1           0       -0.574552   -2.168684   -0.191876
 ---------------------------------------------------------------------

 SCF Done:  E(RHF) =  -271.173409699     A.U. after    2 cycles

 The electronic state is 1-A.
 Alpha  occ. eigenvalues --  -11.22964 -11.22918 -11.22889 -11.22877 -11.22828
 Alpha  occ. eigenvalues --  -11.22632 -11.21918  -1.18479  -1.06031  -0.95724
 Alpha  occ. eigenvalues --   -0.94493  -0.81281  -0.77031  -0.71981  -0.69076
 Alpha  occ. eigenvalues --   -0.62209  -0.58973  -0.58465  -0.56621  -0.55065
 Alpha  occ. eigenvalues --   -0.51842  -0.50292  -0.47558  -0.44792  -0.40640
 Alpha  occ. eigenvalues --   -0.32727
 Alpha virt. eigenvalues --    0.03524   0.03787   0.03890   0.04064   0.05488
 Alpha virt. eigenvalues --    0.05776   0.06088   0.06827   0.08442   0.09097
 Alpha virt. eigenvalues --    0.10544   0.12197   0.13352   0.13958   0.14403

 Mulliken charges:
               1
     1  C   -0.620721
     2  C    0.241804
     3  C    0.268633
     4  C    0.693996
     5  C   -0.959316
     6  C    0.017397
     7  C    0.242986
     8  H    0.232883
     9  H    0.114165
    10  H    0.231813
    11  H   -0.102863
    12  H   -0.157137
    13  H   -0.190210
    14  H    0.175875
    15  H    0.192202
    16  H   -0.194922
    17  H   -0.186586
 Sum of Mulliken charges =   0.00000

 Dipole moment (field-independent basis, Debye):
    X=             -0.1290    Y=              0.2581    Z=             -0.0297  Tot=              0.2901

 Test job not archived.
 1\1\GINC-SE131\SP\RHF\Aug-CC-pVDZ\C7H10\OHZDE\09-Apr-2025\0\\#t hf aug
 -cc-pvdz iop(5/13=1,5/36=2,99/5=2) pseudo=read geom=check guess=(read,
 tcheck) scf=(maxcycle=1)\\title\\0,1\C,0,2.29307636,0.32796844,-0.5305
 3507\C,0,0.82428379,0.29815362,-0.2703344\C,0,-1.56210184,-0.62802386,
 1.21375146\C,0,-1.43018832,-0.50498898,-0.27359367\C,0,-0.06710087,-0.
 75373799,-0.89614408\C,0,-1.30964372,0.72322327,0.59734609\C,0,0.12247
 021,1.11698805,0.51004242\H,0,2.49832639,0.3845794,-1.60356363\H,0,2.7
 6691357,1.18173923,-0.04548687\H,0,2.77411082,-0.58282334,-0.16264258\

 Normal termination of Gaussian 16 at Wed Apr  9 18:58:04 2025.
