 Gaussian 16, Revision C.01,

 ----------------------------------------------------------------------
 #t hf aug-cc-pvdz symm=none int=(grid=ultrafine) guess=(read,tcheck) s
 table=(opt,rrhf)
 ----------------------------------------------------------------------
 -----
 title
 -----
 Symbolic Z-matrix:
 Charge =  0 Multiplicity = 1

 SCF Done:  E(RHF) =  -344.805859755     A.U. after   14 cycles

 1\1\GINC-SE250\Stability\RHF\Aug-CC-pVDZ\C5H10O2\OHZDE\09-Apr-2025\0\\
 #t hf aug-cc-pvdz symm=none int=(grid=ultrafine) guess=(read,tcheck) s
 table=(opt,rrhf)\\title\\0,1\C,0,-2.77734661,-0.9891402,0.24477928\C,0
 ,-0.20847896,1.58169922,-0.82398592\O,0,-0.50466644,2.10120839,0.32150
 117\C,0,0.44913138,0.24606823,-0.61375116\C,0,1.96915152,0.26136822,-0
 .85030283\C,0,2.06186706,-0.16688496,0.61807016\O,0,0.62882386,-0.1252
 4483,0.78007105\H,0,-3.65121979,-1.02070693,0.89355656\H,0,-2.79163257
 ,-1.85118544,-0.4210916\H,0,-1.87211568,-1.01383326,0.85103079\H,0,-2.

 Normal termination of Gaussian 16 at Wed Apr  9 03:34:31 2025.
 Gaussian 16:  ES64L-G16RevC.01  3-Jul-2019

 ----------------------------------------------------------------------
 #t hf aug-cc-pvdz iop(5/13=1,5/36=2,99/5=2) pseudo=read geom=check gue
 ss=(read,tcheck) scf=(maxcycle=1)
 ----------------------------------------------------------------------
 -----
 title
 -----
 Structure from the checkpoint file:  "Grambow2020_wb97xd3_007050_reverse_mol2.chk"
 Charge =  0 Multiplicity = 1

                         Standard orientation:
 ---------------------------------------------------------------------
 Center     Atomic      Atomic             Coordinates (Angstroms)
 Number     Number       Type             X           Y           Z
 ---------------------------------------------------------------------
      1          6           0        3.108300   -0.817427    0.138106
      2          6           0        0.086959    1.421034    0.597832
      3          8           0        0.377202    1.771023   -0.611724
      4          6           0       -0.328993   -0.023691    0.615576
      5          6           0       -1.844535   -0.228619    0.782275
      6          6           0       -1.760391   -0.921393   -0.581947
      7          8           0       -0.345049   -0.662995   -0.689773
      8          1           0        4.020339   -0.813140   -0.456645
      9          1           0        3.213691   -1.531298    0.954188
     10          1           0        2.265197   -1.105488   -0.489422
     11          1           0        2.942044    0.179320    0.546028
     12          1           0        0.258475    1.000457   -1.222545
     13          1           0        0.307387   -0.566146    1.319537
     14          1           0       -2.140033   -0.856793    1.618221
     15          1           0       -2.415751    0.697953    0.801172
     16          1           0       -2.320534   -0.453451   -1.394138
     17          1           0       -1.956083   -1.995070   -0.575464
 ---------------------------------------------------------------------

 SCF Done:  E(RHF) =  -345.163087292     A.U. after    2 cycles

 The electronic state is 1-A.
 Alpha  occ. eigenvalues --  -20.60915 -20.56675 -11.30957 -11.30324 -11.30257
 Alpha  occ. eigenvalues --  -11.26065 -11.21674  -1.54122  -1.48466  -1.05859
 Alpha  occ. eigenvalues --   -0.98910  -0.94431  -0.86159  -0.79259  -0.75418
 Alpha  occ. eigenvalues --   -0.71192  -0.65350  -0.63646  -0.58419  -0.57225
 Alpha  occ. eigenvalues --   -0.55034  -0.54838  -0.54710  -0.54394  -0.50676
 Alpha  occ. eigenvalues --   -0.49281  -0.44838  -0.36489
 Alpha virt. eigenvalues --    0.03054   0.03566   0.04025   0.04597   0.05715
 Alpha virt. eigenvalues --    0.06271   0.06756   0.07328   0.08606   0.09488
 Alpha virt. eigenvalues --    0.10577   0.11307   0.11910   0.12081   0.13554

 Mulliken charges:
               1
     1  C   -0.264499
     2  C    0.521125
     3  O   -0.969194
     4  C    0.819967
     5  C   -0.305003
     6  C    0.677923
     7  O   -1.431207
     8  H    0.013443
     9  H    0.091743
    10  H    0.066957
    11  H    0.088831
    12  H    0.487376
    13  H    0.082977
    14  H    0.046485
    15  H    0.055561
    16  H    0.024482
    17  H   -0.006966
 Sum of Mulliken charges =  -0.00000

 Dipole moment (field-independent basis, Debye):
    X=             -2.2184    Y=             -2.7926    Z=             -0.6737  Tot=              3.6296

 Test job not archived.
 1\1\GINC-SE250\SP\RHF\Aug-CC-pVDZ\C5H10O2\OHZDE\09-Apr-2025\0\\#t hf a
 ug-cc-pvdz iop(5/13=1,5/36=2,99/5=2) pseudo=read geom=check guess=(rea
 d,tcheck) scf=(maxcycle=1)\\title\\0,1\C,0,-2.77734661,-0.9891402,0.24
 477928\C,0,-0.20847896,1.58169922,-0.82398592\O,0,-0.50466644,2.101208
 39,0.32150117\C,0,0.44913138,0.24606823,-0.61375116\C,0,1.96915152,0.2
 6136822,-0.85030283\C,0,2.06186706,-0.16688496,0.61807016\O,0,0.628823
 86,-0.12524483,0.78007105\H,0,-3.65121979,-1.02070693,0.89355656\H,0,-
 2.79163257,-1.85118544,-0.4210916\H,0,-1.87211568,-1.01383326,0.851030

 Normal termination of Gaussian 16 at Wed Apr  9 03:34:37 2025.
