 Gaussian 16, Revision C.01,

 ----------------------------------------------------------------------
 #t hf aug-cc-pvdz symm=none int=(grid=ultrafine) guess=(read,tcheck) s
 table=(opt,rrhf)
 ----------------------------------------------------------------------
 -----
 title
 -----
 Symbolic Z-matrix:
 Charge =  0 Multiplicity = 1

 SCF Done:  E(RHF) =  -360.653492805     A.U. after   16 cycles
 Normal termination of Gaussian 16 at Wed Apr  9 18:30:56 2025.
 Gaussian 16:  ES64L-G16RevC.01  3-Jul-2019

 ----------------------------------------------------------------------
 #t hf aug-cc-pvdz iop(5/13=1,5/36=2,99/5=2) pseudo=read geom=check gue
 ss=(read,tcheck) scf=(maxcycle=1)
 ----------------------------------------------------------------------
 -----
 title
 -----
 Structure from the checkpoint file:  "Grambow2020_wb97xd3_007660_forward_mol1.chk"
 Charge =  0 Multiplicity = 1

                         Standard orientation:
 ---------------------------------------------------------------------
 Center     Atomic      Atomic             Coordinates (Angstroms)
 Number     Number       Type             X           Y           Z
 ---------------------------------------------------------------------
      1          6           0        1.461468   -1.144700   -0.676784
      2          8           0       -0.351502   -1.293510    0.049463
      3          6           0       -0.466299   -0.523879    1.263213
      4          6           0       -0.630466    0.219912    0.020734
      5          7           0        0.456234    0.849733   -0.547418
      6          8           0        1.318294    1.361874    0.476252
      7          6           0       -1.980897    0.508549   -0.567286
      8          1           0        1.470322   -2.194432   -0.402831
      9          1           0        1.419844   -0.968395   -1.740868
     10          1           0        2.165422   -0.527869   -0.131376
     11          1           0        0.454708   -0.391517    1.818141
     12          1           0       -1.331243   -0.803788    1.857242
     13          1           0        1.525001    2.238783    0.150509
     14          1           0       -2.293818    1.508039   -0.261939
     15          1           0       -2.732472   -0.212935   -0.246824
     16          1           0       -1.908572    0.497782   -1.655107
 ---------------------------------------------------------------------

 SCF Done:  E(RHF) =  -361.021594843     A.U. after    2 cycles

 The electronic state is 1-A.
 Alpha  occ. eigenvalues --  -20.57242 -20.53866 -15.46622 -11.34399 -11.30961
 Alpha  occ. eigenvalues --  -11.29406 -11.22717  -1.48983  -1.43502  -1.09841
 Alpha  occ. eigenvalues --   -0.99734  -0.95587  -0.91863  -0.76987  -0.69470
 Alpha  occ. eigenvalues --   -0.69071  -0.64125  -0.62515  -0.62181  -0.58625
 Alpha  occ. eigenvalues --   -0.56579  -0.55380  -0.53860  -0.51915  -0.46098
 Alpha  occ. eigenvalues --   -0.45000  -0.40508  -0.32179
 Alpha virt. eigenvalues --    0.03398   0.04164   0.04369   0.04998   0.05826
 Alpha virt. eigenvalues --    0.06115   0.06443   0.06681   0.08933   0.09515
 Alpha virt. eigenvalues --    0.11460   0.12959   0.13989   0.14377   0.14547

 Mulliken charges:
               1
     1  C    0.008198
     2  O   -1.253607
     3  C    0.800022
     4  C   -0.391669
     5  N    1.203584
     6  O   -1.261464
     7  C   -0.683377
     8  H    0.102546
     9  H    0.182285
    10  H    0.296968
    11  H    0.010371
    12  H   -0.059294
    13  H    0.322255
    14  H    0.259222
    15  H    0.203431
    16  H    0.260529
 Sum of Mulliken charges =  -0.00000

 Dipole moment (field-independent basis, Debye):
    X=              0.3830    Y=             -1.8207    Z=              0.7164  Tot=              1.9937

 Test job not archived.
 1\1\GINC-SE168\SP\RHF\Aug-CC-pVDZ\C4H9N1O2\OHZDE\09-Apr-2025\0\\#t hf
 aug-cc-pvdz iop(5/13=1,5/36=2,99/5=2) pseudo=read geom=check guess=(re
 ad,tcheck) scf=(maxcycle=1)\\title\\0,1\C,0,1.68543415,0.73401385,-0.7
 1550275\O,0,1.00420148,-0.63734382,0.5058649\C,0,0.14054393,-0.0396633
 5,1.49357701\C,0,-0.47937576,-0.351442,0.21200548\N,0,-0.54804921,0.61
 629906,-0.76735563\O,0,-0.75829521,1.9031431,-0.17307768\C,0,-1.238304
 62,-1.62509316,-0.02162396\H,0,2.61371036,0.46428868,-0.22294035\H,0,1
 .61276203,0.38910322,-1.73572184\H,0,1.36217853,1.75400706,-0.5463267\

 Normal termination of Gaussian 16 at Wed Apr  9 18:31:01 2025.
