 Gaussian 16, Revision C.01,

 ----------------------------------------------------------------------
 #t hf aug-cc-pvdz symm=none int=(grid=ultrafine) guess=(read,tcheck) s
 table=(opt,rrhf)
 ----------------------------------------------------------------------
 -----
 title
 -----
 Symbolic Z-matrix:
 Charge =  0 Multiplicity = 1

 SCF Done:  E(RHF) =  -375.736124204     A.U. after   14 cycles
 Normal termination of Gaussian 16 at Wed Apr  9 03:46:27 2025.
 Gaussian 16:  ES64L-G16RevC.01  3-Jul-2019

 ----------------------------------------------------------------------
 #t hf aug-cc-pvdz iop(5/13=1,5/36=2,99/5=2) pseudo=read geom=check gue
 ss=(read,tcheck) scf=(maxcycle=1)
 ----------------------------------------------------------------------
 -----
 title
 -----
 Structure from the checkpoint file:  "Grambow2020_wb97xd3_007858_reverse_mol2.chk"
 Charge =  0 Multiplicity = 1

                         Standard orientation:
 ---------------------------------------------------------------------
 Center     Atomic      Atomic             Coordinates (Angstroms)
 Number     Number       Type             X           Y           Z
 ---------------------------------------------------------------------
      1          7           0        1.310495   -0.724626   -1.019139
      2          6           0        1.179311    0.055669    0.073348
      3          8           0        1.892571    1.004132    0.324726
      4          6           0        0.073325   -0.365431    1.036267
      5          8           0       -1.056110   -0.956128    0.392577
      6          6           0       -1.932868   -0.240009   -0.324068
      7          7           0       -1.648331    1.054021   -0.399407
      8          1           0        1.996125   -0.473727   -1.708592
      9          1           0        0.627553   -1.429798   -1.231966
     10          1           0       -0.200870    0.493048    1.651548
     11          1           0        0.470378   -1.137511    1.695780
     12          1           0       -2.285381    1.618856   -0.930814
     13          1           0       -0.853255    1.537954    0.002148
 ---------------------------------------------------------------------

 SCF Done:  E(RHF) =  -376.111092497     A.U. after    2 cycles

 The electronic state is 1-A.
 Alpha  occ. eigenvalues --  -20.59891 -20.52740 -15.54655 -15.54030 -11.37564
 Alpha  occ. eigenvalues --  -11.32118 -11.31674  -1.53070  -1.47841  -1.24579
 Alpha  occ. eigenvalues --   -1.24000  -1.03079  -0.88265  -0.84382  -0.79363
 Alpha  occ. eigenvalues --   -0.78523  -0.74173  -0.68105  -0.66317  -0.64039
 Alpha  occ. eigenvalues --   -0.59531  -0.57365  -0.53720  -0.49495  -0.45305
 Alpha  occ. eigenvalues --   -0.43646  -0.38173
 Alpha virt. eigenvalues --    0.02988   0.03934   0.04526   0.05702   0.06486
 Alpha virt. eigenvalues --    0.07374   0.08942   0.10180   0.11419   0.12688
 Alpha virt. eigenvalues --    0.13029   0.13104   0.14222   0.14542   0.15165

 Mulliken charges:
               1
     1  N    0.715460
     2  C    0.194661
     3  O   -1.273757
     4  C    0.457214
     5  O   -1.058636
     6  C   -0.354087
     7  N    0.636661
     8  H    0.125435
     9  H    0.104243
    10  H    0.229255
    11  H    0.063638
    12  H    0.133703
    13  H    0.026209
 Sum of Mulliken charges =  -0.00000

 Dipole moment (field-independent basis, Debye):
    X=              0.3663    Y=              0.2294    Z=             -0.6099  Tot=              0.7475

 Test job not archived.
 1\1\GINC-SE090\SP\RHF\Aug-CC-pVDZ\C3H6N2O2\OHZDE\09-Apr-2025\0\\#t hf
 aug-cc-pvdz iop(5/13=1,5/36=2,99/5=2) pseudo=read geom=check guess=(re
 ad,tcheck) scf=(maxcycle=1)\\title\\0,1\N,0,-1.56811903,0.92418573,-0.
 18979561\C,0,-1.16629659,-0.34961304,-0.00118794\O,0,-1.66613082,-1.31
 114262,-0.54629394\C,0,-0.03783565,-0.52565884,1.01040812\O,0,0.881145
 75,0.56671065,1.04335835\C,0,1.77149735,0.78868836,0.06708424\N,0,1.70
 922655,-0.07821602,-0.93578661\H,0,-2.28113007,1.10633294,-0.87303908\
 H,0,-1.05069985,1.68986667,0.20388446\H,0,0.45699663,-1.4795026,0.8205

 Normal termination of Gaussian 16 at Wed Apr  9 03:46:31 2025.
