 Gaussian 16, Revision C.01,

 ----------------------------------------------------------------------
 #t hf aug-cc-pvdz symm=none int=(grid=ultrafine) guess=(read,tcheck) s
 table=(opt,rrhf)
 ----------------------------------------------------------------------
 -----
 title
 -----
 Symbolic Z-matrix:
 Charge =  0 Multiplicity = 1

 SCF Done:  E(RHF) =  -338.472389783     A.U. after   17 cycles
 Normal termination of Gaussian 16 at Wed Apr  9 18:41:33 2025.
 Gaussian 16:  ES64L-G16RevC.01  3-Jul-2019

 ----------------------------------------------------------------------
 #t hf aug-cc-pvdz iop(5/13=1,5/36=2,99/5=2) pseudo=read geom=check gue
 ss=(read,tcheck) scf=(maxcycle=1)
 ----------------------------------------------------------------------
 -----
 title
 -----
 Structure from the checkpoint file:  "Grambow2020_wb97xd3_007971_reverse_mol1.chk"
 Charge =  0 Multiplicity = 1

                         Standard orientation:
 ---------------------------------------------------------------------
 Center     Atomic      Atomic             Coordinates (Angstroms)
 Number     Number       Type             X           Y           Z
 ---------------------------------------------------------------------
      1          7           0       -1.329587    1.282338    0.073241
      2          6           0       -0.753544    0.299155   -0.630424
      3          8           0       -1.377139   -0.920257   -0.360546
      4          6           0       -0.494236   -0.992843    0.740858
      5          6           0        0.514302   -0.079413    0.024770
      6          6           0        1.886306   -0.357513   -0.432773
      7          7           0        1.572687    0.731805    0.491111
      8          1           0       -2.345225    1.212743    0.002677
      9          1           0       -1.140870    0.521060    1.110321
     10          1           0       -0.232070   -2.020355    1.015386
     11          1           0        2.123436   -0.129535   -1.465612
     12          1           0        2.434926   -1.182536    0.004406
     13          1           0        1.558243    1.645368    0.052147
 ---------------------------------------------------------------------

 SCF Done:  E(RHF) =  -338.817772979     A.U. after    2 cycles

 The electronic state is 1-A.
 Alpha  occ. eigenvalues --  -20.60363 -15.53039 -15.52881 -11.35617 -11.32179
 Alpha  occ. eigenvalues --  -11.30615 -11.29690  -1.55139  -1.31140  -1.22546
 Alpha  occ. eigenvalues --   -1.01458  -0.92729  -0.89335  -0.79217  -0.73567
 Alpha  occ. eigenvalues --   -0.72558  -0.69405  -0.65122  -0.62265  -0.56879
 Alpha  occ. eigenvalues --   -0.53776  -0.52068  -0.50893  -0.47751  -0.44565
 Alpha  occ. eigenvalues --   -0.33409
 Alpha virt. eigenvalues --    0.01612   0.03664   0.04559   0.04694   0.05421
 Alpha virt. eigenvalues --    0.05715   0.07257   0.08990   0.09309   0.10055
 Alpha virt. eigenvalues --    0.12189   0.13542   0.14002   0.14485   0.14897

 Mulliken charges:
               1
     1  N    0.416946
     2  C   -0.426190
     3  O   -1.215505
     4  C    0.260471
     5  C   -0.777685
     6  C    0.313908
     7  N    0.537052
     8  H    0.291967
     9  H    0.467004
    10  H   -0.100449
    11  H   -0.040534
    12  H   -0.010248
    13  H    0.283263
 Sum of Mulliken charges =  -0.00000

 Dipole moment (field-independent basis, Debye):
    X=              1.1243    Y=             -1.1225    Z=             -1.5421  Tot=              2.2141

 Test job not archived.
 1\1\GINC-SE131\SP\RHF\Aug-CC-pVDZ\C4H6N2O1\OHZDE\09-Apr-2025\0\\#t hf
 aug-cc-pvdz iop(5/13=1,5/36=2,99/5=2) pseudo=read geom=check guess=(re
 ad,tcheck) scf=(maxcycle=1)\\title\\0,1\N,0,1.78696231,-0.88627978,-0.
 1038533\C,0,0.94321396,-0.17811313,-0.86556772\O,0,1.26849222,1.178561
 15,-0.8176299\C,0,0.47066292,1.2071494,0.34878673\C,0,-0.33152844,-0.0
 1029177,-0.13969294\C,0,-1.75758824,-0.12774958,-0.48845661\N,0,-1.127
 1594,-0.96607328,0.53051564\H,0,2.74811104,-0.59498384,-0.28464063\H,0
 ,1.48918624,-0.04446923,0.84133294\H,0,-0.01424561,2.17519652,0.514996

 Normal termination of Gaussian 16 at Wed Apr  9 18:41:37 2025.
