 Gaussian 16, Revision C.01,

 ----------------------------------------------------------------------
 #t hf aug-cc-pvdz symm=none int=(grid=ultrafine) guess=(read,tcheck) s
 table=(opt,rrhf)
 ----------------------------------------------------------------------
 -----
 title
 -----
 Symbolic Z-matrix:
 Charge =  0 Multiplicity = 1

 SCF Done:  E(RHF) =  -322.669040438     A.U. after   14 cycles
 Normal termination of Gaussian 16 at Wed Apr  9 18:03:14 2025.
 Gaussian 16:  ES64L-G16RevC.01  3-Jul-2019

 ----------------------------------------------------------------------
 #t hf aug-cc-pvdz iop(5/13=1,5/36=2,99/5=2) pseudo=read geom=check gue
 ss=(read,tcheck) scf=(maxcycle=1)
 ----------------------------------------------------------------------
 -----
 title
 -----
 Structure from the checkpoint file:  "Grambow2020_wb97xd3_006949_reverse_mol2.chk"
 Charge =  0 Multiplicity = 1

                         Standard orientation:
 ---------------------------------------------------------------------
 Center     Atomic      Atomic             Coordinates (Angstroms)
 Number     Number       Type             X           Y           Z
 ---------------------------------------------------------------------
      1          8           0       -2.062842   -1.417280    0.112855
      2          6           0       -1.510007   -0.408608   -0.068830
      3          7           0       -1.064433    0.696065   -0.212951
      4          6           0        0.153867    1.284066   -0.700463
      5          6           0        1.368154    0.916776    0.156256
      6          6           0        1.629444   -0.518860    0.156835
      7          6           0        1.798022   -1.703803    0.139246
      8          1           0       -1.131283    3.174480    2.121446
      9          1           0       -1.296205    2.576732    1.706392
     10          1           0        0.026933    2.366630   -0.687486
     11          1           0        0.321785    0.979686   -1.736108
     12          1           0        2.241201    1.450869   -0.227386
     13          1           0        1.204654    1.257354    1.181460
     14          1           0        1.949802   -2.757395    0.131230
 ---------------------------------------------------------------------

 SCF Done:  E(RHF) =  -323.000472727     A.U. after    2 cycles

 The electronic state is 1-A.
 Alpha  occ. eigenvalues --  -20.58996 -15.52309 -11.40534 -11.31151 -11.28049
 Alpha  occ. eigenvalues --  -11.25317 -11.24493  -1.53978  -1.28419  -1.10571
 Alpha  occ. eigenvalues --   -1.02841  -0.93905  -0.76330  -0.73802  -0.71890
 Alpha  occ. eigenvalues --   -0.70061  -0.67651  -0.64607  -0.61396  -0.59598
 Alpha  occ. eigenvalues --   -0.59035  -0.57099  -0.46782  -0.44906  -0.41025
 Alpha  occ. eigenvalues --   -0.40849
 Alpha virt. eigenvalues --    0.03231   0.03723   0.04290   0.05051   0.05537
 Alpha virt. eigenvalues --    0.07059   0.07675   0.09025   0.09931   0.10997
 Alpha virt. eigenvalues --    0.11750   0.12678   0.13332   0.13521   0.13866

 Mulliken charges:
               1
     1  O   -0.845945
     2  C    0.132695
     3  N    0.989773
     4  C   -0.633634
     5  C   -0.545029
     6  C    0.306971
     7  C    0.349740
     8  H    0.055514
     9  H   -0.051618
    10  H    0.103713
    11  H    0.094153
    12  H    0.225589
    13  H    0.237823
    14  H   -0.419745
 Sum of Mulliken charges =  -0.00000

 Dipole moment (field-independent basis, Debye):
    X=              2.1912    Y=              1.4748    Z=             -0.7905  Tot=              2.7570

 Test job not archived.
 1\1\GINC-SE045\SP\RHF\Aug-CC-pVDZ\C5H7N1O1\OHZDE\09-Apr-2025\0\\#t hf
 aug-cc-pvdz iop(5/13=1,5/36=2,99/5=2) pseudo=read geom=check guess=(re
 ad,tcheck) scf=(maxcycle=1)\\title\\0,1\O,0,0.44188209,2.87919903,1.14
 507056\C,0,0.02689591,1.79270264,1.20308342\N,0,-0.52605317,0.73323233
 ,1.30976045\C,0,-0.17930818,-0.65441042,1.16182811\C,0,0.21013688,-1.0
 1346166,-0.27440914\C,0,1.39587468,-0.29030666,-0.7220659\C,0,2.362545
 05,0.3342514,-1.05114464\H,0,-3.56108099,-0.05496751,-0.01830798\H,0,-
 2.98320024,0.30975442,0.28136304\H,0,-1.04885746,-1.24515508,1.4501495

 Normal termination of Gaussian 16 at Wed Apr  9 18:03:21 2025.
