 Gaussian 16, Revision C.01,

 ----------------------------------------------------------------------
 #t hf aug-cc-pvdz symm=none int=(grid=ultrafine) guess=(read,tcheck) s
 table=(opt,rrhf)
 ----------------------------------------------------------------------
 -----
 title
 -----
 Symbolic Z-matrix:
 Charge =  0 Multiplicity = 1

 SCF Done:  E(RHF) =  -322.546951472     A.U. after   16 cycles
 Normal termination of Gaussian 16 at Wed Apr  9 18:02:06 2025.
 Gaussian 16:  ES64L-G16RevC.01  3-Jul-2019

 ----------------------------------------------------------------------
 #t hf aug-cc-pvdz iop(5/13=1,5/36=2,99/5=2) pseudo=read geom=check gue
 ss=(read,tcheck) scf=(maxcycle=1)
 ----------------------------------------------------------------------
 -----
 title
 -----
 Structure from the checkpoint file:  "Grambow2020_wb97xd3_006943_forward_mol1.chk"
 Charge =  0 Multiplicity = 1

                         Standard orientation:
 ---------------------------------------------------------------------
 Center     Atomic      Atomic             Coordinates (Angstroms)
 Number     Number       Type             X           Y           Z
 ---------------------------------------------------------------------
      1          8           0       -2.762619   -0.395003   -0.319740
      2          6           0       -1.573096   -0.581135   -0.265391
      3          7           0       -0.693366    0.094058    1.064562
      4          6           0       -0.260831    0.914105    0.104256
      5          6           0        1.190128    1.117341   -0.268988
      6          6           0        1.984424   -0.100259   -0.160752
      7          6           0        2.605626   -1.117603   -0.058012
      8          1           0       -0.997428   -1.515484   -0.275175
      9          1           0        0.028669   -0.563340    1.349430
     10          1           0       -0.927016    1.738330   -0.144955
     11          1           0       -0.847403    0.052063   -1.088712
     12          1           0        1.257268    1.529565   -1.277663
     13          1           0        1.589755    1.880477    0.409325
     14          1           0        3.173167   -2.014696    0.027054
 ---------------------------------------------------------------------

 SCF Done:  E(RHF) =  -322.881789741     A.U. after    2 cycles

 The electronic state is 1-A.
 Alpha  occ. eigenvalues --  -20.48399 -15.51390 -11.37422 -11.37139 -11.31521
 Alpha  occ. eigenvalues --  -11.27851 -11.27088  -1.44104  -1.26747  -1.11193
 Alpha  occ. eigenvalues --   -1.02946  -0.90140  -0.87081  -0.76638  -0.72689
 Alpha  occ. eigenvalues --   -0.70982  -0.67512  -0.63317  -0.61990  -0.61134
 Alpha  occ. eigenvalues --   -0.59218  -0.48835  -0.44032  -0.43518  -0.39821
 Alpha  occ. eigenvalues --   -0.36881
 Alpha virt. eigenvalues --    0.02500   0.02578   0.03748   0.04991   0.05314
 Alpha virt. eigenvalues --    0.06381   0.07136   0.08792   0.09420   0.09993
 Alpha virt. eigenvalues --    0.10508   0.11647   0.12238   0.12818   0.13314

 Mulliken charges:
               1
     1  O   -1.259879
     2  C    0.894789
     3  N    0.616944
     4  C   -1.192877
     5  C   -0.697205
     6  C    0.448310
     7  C    0.294326
     8  H    0.183583
     9  H    0.278788
    10  H   -0.057880
    11  H    0.346921
    12  H    0.264964
    13  H    0.306710
    14  H   -0.427494
 Sum of Mulliken charges =  -0.00000

 Dipole moment (field-independent basis, Debye):
    X=              6.1707    Y=              0.9571    Z=             -1.0749  Tot=              6.3363

 Test job not archived.
 1\1\GINC-SE229\SP\RHF\Aug-CC-pVDZ\C5H7N1O1\OHZDE\09-Apr-2025\0\\#t hf
 aug-cc-pvdz iop(5/13=1,5/36=2,99/5=2) pseudo=read geom=check guess=(re
 ad,tcheck) scf=(maxcycle=1)\\title\\0,1\O,0,-2.95210046,-0.05094547,1.
 0868403\C,0,-1.81529216,0.30462949,0.90299914\N,0,-1.15804497,0.170778
 9,-0.69346472\C,0,-0.48103047,-0.82445521,-0.11647848\C,0,1.02652048,-
 0.92551227,-0.06193192\C,0,1.68143046,0.36843316,0.08629619\C,0,2.1847
 3594,1.44728941,0.20541243\H,0,-1.3277864,1.26604656,1.10918611\H,0,-0
 .56186048,0.97521813,-0.87262382\H,0,-1.01578432,-1.76893424,-0.031324

 Normal termination of Gaussian 16 at Wed Apr  9 18:02:11 2025.
