 Gaussian 16, Revision C.01,

 ----------------------------------------------------------------------
 #t hf aug-cc-pvdz symm=none int=(grid=ultrafine) guess=(read,tcheck) s
 table=(opt,rrhf)
 ----------------------------------------------------------------------
 -----
 title
 -----
 Symbolic Z-matrix:
 Charge =  0 Multiplicity = 1

 SCF Done:  E(RHF) =  -231.732506660     A.U. after   13 cycles
 Normal termination of Gaussian 16 at Wed Apr  9 15:54:51 2025.
 Gaussian 16:  ES64L-G16RevC.01  3-Jul-2019

 ----------------------------------------------------------------------
 #t hf aug-cc-pvdz iop(5/13=1,5/36=2,99/5=2) pseudo=read geom=check gue
 ss=(read,tcheck) scf=(maxcycle=1)
 ----------------------------------------------------------------------
 -----
 title
 -----
 Structure from the checkpoint file:  "Grambow2020_b97d3_006875_reverse_mol2.chk"
 Charge =  0 Multiplicity = 1

                         Standard orientation:
 ---------------------------------------------------------------------
 Center     Atomic      Atomic             Coordinates (Angstroms)
 Number     Number       Type             X           Y           Z
 ---------------------------------------------------------------------
      1          6           0        0.751691   -0.198982   -1.060527
      2          6           0        0.539492    0.974386   -0.006372
      3          6           0       -0.938997    1.153669   -0.005541
      4          6           0       -1.350973   -0.316432   -0.000885
      5          6           0        0.009117   -1.042741    0.006073
      6          6           0        0.746779   -0.185051    1.065444
      7          1           0        1.819117   -0.437476   -1.156585
      8          1           0        0.289503   -0.082820   -2.050442
      9          1           0        1.181782    1.861138   -0.011249
     10          1           0        0.279579   -0.055523    2.051369
     11          1           0       -1.988378   -0.514893    0.878052
     12          1           0       -1.981398   -0.520841   -0.883667
     13          1           0        0.043151   -2.137902    0.013065
     14          1           0        1.813984   -0.420781    1.170302
 ---------------------------------------------------------------------

 SCF Done:  E(RHF) =  -231.978214308     A.U. after    2 cycles

 The electronic state is 1-A.
 Alpha  occ. eigenvalues --  -11.26486 -11.25475 -11.25441 -11.25049 -11.24807
 Alpha  occ. eigenvalues --  -11.23898  -1.20308  -0.97839  -0.93523  -0.91068
 Alpha  occ. eigenvalues --   -0.76713  -0.71439  -0.67633  -0.63508  -0.61436
 Alpha  occ. eigenvalues --   -0.53364  -0.50481  -0.49048  -0.48597  -0.46809
 Alpha  occ. eigenvalues --   -0.46161  -0.34899
 Alpha virt. eigenvalues --    0.03195   0.03583   0.03595   0.04451   0.06077
 Alpha virt. eigenvalues --    0.06205   0.06222   0.07812   0.09073   0.09311
 Alpha virt. eigenvalues --    0.12350   0.12397   0.13260   0.13464   0.14398

 Mulliken charges:
               1
     1  C    0.072907
     2  C    0.180473
     3  C   -0.246749
     4  C   -0.220350
     5  C    0.201656
     6  C    0.072360
     7  H   -0.045217
     8  H   -0.018346
     9  H   -0.091515
    10  H   -0.019167
    11  H    0.110551
    12  H    0.113877
    13  H   -0.064569
    14  H   -0.045913
 Sum of Mulliken charges =  -0.00000

 Dipole moment (field-independent basis, Debye):
    X=              1.5788    Y=             -2.3198    Z=              0.0070  Tot=              2.8061

 Test job not archived.
 1\1\GINC-SE162\SP\RHF\Aug-CC-pVDZ\C6H8\OHZDE\09-Apr-2025\0\\#t hf aug-
 cc-pvdz iop(5/13=1,5/36=2,99/5=2) pseudo=read geom=check guess=(read,t
 check) scf=(maxcycle=1)\\title\\0,1\C,0,-1.11096907,-0.16198113,0.5640
 9778\C,0,-0.13821244,1.09344675,0.46061451\C,0,1.13607628,0.5709611,1.
 02742071\C,0,1.14934792,-0.79585053,0.34727905\C,0,-0.14606754,-0.7638
 7328,-0.48836179\C,0,-0.03446855,0.66814299,-1.07053078\H,0,-2.1036614
 8,0.09062896,0.16880743\H,0,-1.19701433,-0.65939225,1.53991629\H,0,-0.
 47574032,2.09476165,0.74755156\H,0,0.88043326,0.94236944,-1.61353695\H

 Normal termination of Gaussian 16 at Wed Apr  9 15:54:55 2025.
