 Gaussian 16, Revision C.01,

 ----------------------------------------------------------------------
 #t hf aug-cc-pvdz symm=none int=(grid=ultrafine) guess=(read,tcheck) s
 table=(opt,rrhf)
 ----------------------------------------------------------------------
 -----
 title
 -----
 Symbolic Z-matrix:
 Charge =  0 Multiplicity = 1

 SCF Done:  E(RHF) =  -302.700046743     A.U. after   17 cycles
 Normal termination of Gaussian 16 at Wed Apr  9 19:18:08 2025.
 Gaussian 16:  ES64L-G16RevC.01  3-Jul-2019

 ----------------------------------------------------------------------
 #t hf aug-cc-pvdz iop(5/13=1,5/36=2,99/5=2) pseudo=read geom=check gue
 ss=(read,tcheck) scf=(maxcycle=1)
 ----------------------------------------------------------------------
 -----
 title
 -----
 Structure from the checkpoint file:  "Grambow2020_wb97xd3_009080_forward_mol1.chk"
 Charge =  0 Multiplicity = 1

                         Standard orientation:
 ---------------------------------------------------------------------
 Center     Atomic      Atomic             Coordinates (Angstroms)
 Number     Number       Type             X           Y           Z
 ---------------------------------------------------------------------
      1          6           0        1.749161   -0.871120    0.559048
      2          7           0        1.134792   -0.192344   -0.450516
      3          6           0        0.950650    1.198826   -0.190295
      4          6           0       -0.316913    1.314247    0.178940
      5          6           0       -0.858381   -0.068326    0.076498
      6          6           0       -2.320178   -0.376602    0.147199
      7          7           0       -0.044291   -0.799379   -0.725016
      8          1           0        2.690004   -0.473690    0.928293
      9          1           0        1.597830   -1.942038    0.556187
     10          1           0       -0.026107   -0.501483    1.227818
     11          1           0        1.799036    1.862352   -0.156801
     12          1           0       -0.843932    2.175342    0.556363
     13          1           0       -2.850070    0.093243   -0.683721
     14          1           0       -2.747407   -0.001246    1.077661
     15          1           0       -2.478889   -1.452572    0.094581
 ---------------------------------------------------------------------

 SCF Done:  E(RHF) =  -303.019272829     A.U. after    2 cycles

 The electronic state is 1-A.
 Alpha  occ. eigenvalues --  -15.59441 -15.48818 -11.30949 -11.29480 -11.28015
 Alpha  occ. eigenvalues --  -11.25531 -11.23396  -1.38791  -1.13659  -1.08390
 Alpha  occ. eigenvalues --   -1.00471  -0.91181  -0.82401  -0.79142  -0.72301
 Alpha  occ. eigenvalues --   -0.70865  -0.65126  -0.61238  -0.59221  -0.58548
 Alpha  occ. eigenvalues --   -0.54860  -0.53648  -0.49386  -0.44071  -0.38327
 Alpha  occ. eigenvalues --   -0.32026
 Alpha virt. eigenvalues --    0.03259   0.03639   0.04143   0.04507   0.05089
 Alpha virt. eigenvalues --    0.05471   0.05747   0.08003   0.08220   0.10187
 Alpha virt. eigenvalues --    0.10844   0.11494   0.12539   0.13252   0.14069

 Mulliken charges:
               1
     1  C   -0.001115
     2  N    0.373342
     3  C   -0.098149
     4  C    0.535044
     5  C   -1.405921
     6  C   -0.390089
     7  N    0.160902
     8  H    0.009360
     9  H    0.014876
    10  H    0.516953
    11  H   -0.168175
    12  H   -0.161544
    13  H    0.262283
    14  H    0.212044
    15  H    0.140190
 Sum of Mulliken charges =  -0.00000

 Dipole moment (field-independent basis, Debye):
    X=              0.7185    Y=              2.1139    Z=              2.2365  Tot=              3.1602

 Test job not archived.
 1\1\GINC-SE159\SP\RHF\Aug-CC-pVDZ\C5H8N2\OHZDE\09-Apr-2025\0\\#t hf au
 g-cc-pvdz iop(5/13=1,5/36=2,99/5=2) pseudo=read geom=check guess=(read
 ,tcheck) scf=(maxcycle=1)\\title\\0,1\C,0,2.06298533,-0.5106171,0.1494
 4937\N,0,1.2154138,-0.038125,-0.80751314\C,0,0.82885609,1.32336098,-0.
 62337513\C,0,-0.38111739,1.2670408,-0.08563373\C,0,-0.68419283,-0.1882
 0036,-0.01074861\C,0,-2.04918063,-0.72024183,0.29029116\N,0,0.13351798
 ,-0.85059614,-0.86642758\H,0,2.96070201,0.06643501,0.35092997\H,0,2.09
 987705,-1.58735477,0.24457698\H,0,0.35202532,-0.37087561,1.0374518\H,0

 Normal termination of Gaussian 16 at Wed Apr  9 19:18:13 2025.
