 Gaussian 16, Revision C.01,

 ----------------------------------------------------------------------
 #t hf aug-cc-pvdz symm=none int=(grid=ultrafine) guess=(read,tcheck) s
 table=(opt,rrhf)
 ----------------------------------------------------------------------
 -----
 title
 -----
 Symbolic Z-matrix:
 Charge =  0 Multiplicity = 1

 SCF Done:  E(RHF) =  -343.620642447     A.U. after   14 cycles
 Normal termination of Gaussian 16 at Wed Apr  9 18:51:47 2025.
 Gaussian 16:  ES64L-G16RevC.01  3-Jul-2019

 ----------------------------------------------------------------------
 #t hf aug-cc-pvdz iop(5/13=1,5/36=2,99/5=2) pseudo=read geom=check gue
 ss=(read,tcheck) scf=(maxcycle=1)
 ----------------------------------------------------------------------
 -----
 title
 -----
 Structure from the checkpoint file:  "Grambow2020_wb97xd3_008126_forward_mol1.chk"
 Charge =  0 Multiplicity = 1

                         Standard orientation:
 ---------------------------------------------------------------------
 Center     Atomic      Atomic             Coordinates (Angstroms)
 Number     Number       Type             X           Y           Z
 ---------------------------------------------------------------------
      1          6           0       -0.498645    1.271535    0.089092
      2          8           0       -1.563146    0.431197   -0.529723
      3          6           0       -1.370325   -0.770295   -0.230641
      4          6           0       -0.314453   -1.047361    0.714130
      5          6           0        0.378793    0.308816    0.887288
      6          6           0        1.717553    0.161536    0.088004
      7          8           0        1.415596   -0.419265   -1.080549
      8          1           0       -1.030144    2.042215    0.643729
      9          1           0        0.032443    1.674631   -0.773043
     10          1           0       -2.042695   -1.488810   -0.693819
     11          1           0        0.390382   -1.683667    0.133232
     12          1           0       -0.692238   -1.569684    1.597144
     13          1           0        0.470272    0.608205    1.933403
     14          1           0        2.153166    1.185647    0.016864
     15          1           0        2.421683   -0.409378    0.737420
 ---------------------------------------------------------------------

 SCF Done:  E(RHF) =  -343.973527766     A.U. after    2 cycles

 The electronic state is 1-A.
 Alpha  occ. eigenvalues --  -20.68400 -20.37862 -11.43840 -11.32657 -11.26978
 Alpha  occ. eigenvalues --  -11.24371 -11.22720  -1.62808  -1.28613  -1.11993
 Alpha  occ. eigenvalues --   -1.07054  -0.90783  -0.85770  -0.81186  -0.76573
 Alpha  occ. eigenvalues --   -0.72838  -0.68190  -0.64112  -0.61160  -0.58689
 Alpha  occ. eigenvalues --   -0.55331  -0.54358  -0.50265  -0.48822  -0.45478
 Alpha  occ. eigenvalues --   -0.30013  -0.29228
 Alpha virt. eigenvalues --    0.01477   0.02761   0.03473   0.04130   0.05191
 Alpha virt. eigenvalues --    0.06014   0.06750   0.07331   0.07551   0.10128
 Alpha virt. eigenvalues --    0.11719   0.12076   0.12503   0.13110   0.13587

 Mulliken charges:
               1
     1  C    0.627017
     2  O   -1.236664
     3  C    1.216992
     4  C   -0.490356
     5  C   -0.553311
     6  C    0.748616
     7  O   -1.344773
     8  H    0.070025
     9  H    0.143568
    10  H    0.014167
    11  H    0.510026
    12  H    0.124948
    13  H    0.019712
    14  H    0.086696
    15  H    0.063337
 Sum of Mulliken charges =  -0.00000

 Dipole moment (field-independent basis, Debye):
    X=             -7.1261    Y=             -0.0357    Z=              4.0110  Tot=              8.1775

 Test job not archived.
 1\1\GINC-SE097\SP\RHF\Aug-CC-pVDZ\C5H8O2\OHZDE\09-Apr-2025\0\\#t hf au
 g-cc-pvdz iop(5/13=1,5/36=2,99/5=2) pseudo=read geom=check guess=(read
 ,tcheck) scf=(maxcycle=1)\\title\\0,1\C,0,-1.06713125,0.80118254,0.413
 61294\O,0,-1.06342457,1.14837321,-1.03611402\C,0,-0.37273484,0.3109375
 5,-1.66210375\C,0,0.11399414,-0.82431502,-0.91476246\C,0,-0.25047027,-
 0.48420288,0.53481743\C,0,1.11400057,-0.08328448,1.19079586\O,0,1.7398
 4409,0.7299351,0.32997281\H,0,-2.11775132,0.75566034,0.69323014\H,0,-0
 .55339931,1.64561484,0.87277669\H,0,-0.23202612,0.50882293,-2.72225512

 Normal termination of Gaussian 16 at Wed Apr  9 18:51:52 2025.
