 Gaussian 16, Revision C.01,

 ----------------------------------------------------------------------
 #t hf aug-cc-pvdz symm=none int=(grid=ultrafine) guess=(read,tcheck) s
 table=(opt,rrhf)
 ----------------------------------------------------------------------
 -----
 title
 -----
 Symbolic Z-matrix:
 Charge =  0 Multiplicity = 1

 SCF Done:  E(RHF) =  -307.887606879     A.U. after   14 cycles

 1\1\GINC-SE368\Stability\RHF\Aug-CC-pVDZ\C6H10O1\OHZDE\09-Apr-2025\0\\
 #t hf aug-cc-pvdz symm=none int=(grid=ultrafine) guess=(read,tcheck) s
 table=(opt,rrhf)\\title\\0,1\C,0,2.58659024,0.32233917,0.03838611\C,0,
 1.16361461,0.02397346,0.50326651\C,0,0.22937138,1.16097109,0.21998852\
 C,0,-1.01437536,1.09940015,-0.25672504\C,0,-1.80463115,-0.09532103,-0.
 56657636\C,0,-1.85194624,-1.19193114,0.18710897\O,0,-2.57400616,-2.307
 85865,-0.06689475\H,0,2.61573938,0.49109663,-1.04009115\H,0,2.98146464
 ,1.21768855,0.52445835\H,0,3.25966263,-0.50532236,0.26827602\H,0,1.175

 Normal termination of Gaussian 16 at Wed Apr  9 03:45:34 2025.
 Gaussian 16:  ES64L-G16RevC.01  3-Jul-2019

 ----------------------------------------------------------------------
 #t hf aug-cc-pvdz iop(5/13=1,5/36=2,99/5=2) pseudo=read geom=check gue
 ss=(read,tcheck) scf=(maxcycle=1)
 ----------------------------------------------------------------------
 -----
 title
 -----
 Structure from the checkpoint file:  "Grambow2020_wb97xd3_007820_reverse_mol2.chk"
 Charge =  0 Multiplicity = 1

                         Standard orientation:
 ---------------------------------------------------------------------
 Center     Atomic      Atomic             Coordinates (Angstroms)
 Number     Number       Type             X           Y           Z
 ---------------------------------------------------------------------
      1          6           0       -2.898037   -0.799629    0.363521
      2          6           0       -1.530852   -0.561581   -0.272195
      3          6           0       -1.166071    0.891789   -0.293870
      4          6           0        0.014546    1.443908   -0.012337
      5          6           0        1.269107    0.767852    0.329560
      6          6           0        1.727765   -0.330549   -0.267083
      7          8           0        2.882271   -0.975388    0.020110
      8          1           0       -2.909203   -0.457869    1.400592
      9          1           0       -3.682200   -0.258918   -0.171794
     10          1           0       -3.159248   -1.859156    0.355038
     11          1           0       -1.540090   -0.953640   -1.296138
     12          1           0       -0.764541   -1.127577    0.263390
     13          1           0       -1.979790    1.569974   -0.542456
     14          1           0        0.066860    2.529568   -0.019201
     15          1           0        1.883297    1.235995    1.097306
     16          1           0        1.206584   -0.810333   -1.086510
     17          1           0        3.321424   -0.535686    0.753309
 ---------------------------------------------------------------------

 SCF Done:  E(RHF) =  -308.214317394     A.U. after    2 cycles

 The electronic state is 1-A.
 Alpha  occ. eigenvalues --  -20.58196 -11.30482 -11.23576 -11.23177 -11.23034
 Alpha  occ. eigenvalues --  -11.22938 -11.22339  -1.49750  -1.10188  -1.04135
 Alpha  occ. eigenvalues --   -0.97484  -0.87216  -0.83056  -0.75951  -0.69739
 Alpha  occ. eigenvalues --   -0.65541  -0.64167  -0.60161  -0.58529  -0.57744
 Alpha  occ. eigenvalues --   -0.54938  -0.53281  -0.52120  -0.49419  -0.48075
 Alpha  occ. eigenvalues --   -0.40431  -0.31549
 Alpha virt. eigenvalues --    0.03230   0.03833   0.03951   0.04369   0.05372
 Alpha virt. eigenvalues --    0.05981   0.06717   0.07189   0.08841   0.09338
 Alpha virt. eigenvalues --    0.10476   0.11425   0.13289   0.13794   0.14660

 Mulliken charges:
               1
     1  C   -0.408153
     2  C   -0.655743
     3  C    0.502950
     4  C    0.015058
     5  C    0.367811
     6  C    1.156820
     7  O   -1.388706
     8  H    0.180201
     9  H    0.175163
    10  H    0.117017
    11  H    0.248770
    12  H    0.164207
    13  H   -0.252808
    14  H   -0.211200
    15  H   -0.274413
    16  H   -0.084050
    17  H    0.347077
 Sum of Mulliken charges =  -0.00000

 Dipole moment (field-independent basis, Debye):
    X=              0.0806    Y=              0.4217    Z=              0.7188  Tot=              0.8373

 Test job not archived.
 1\1\GINC-SE368\SP\RHF\Aug-CC-pVDZ\C6H10O1\OHZDE\09-Apr-2025\0\\#t hf a
 ug-cc-pvdz iop(5/13=1,5/36=2,99/5=2) pseudo=read geom=check guess=(rea
 d,tcheck) scf=(maxcycle=1)\\title\\0,1\C,0,2.58659024,0.32233917,0.038
 38611\C,0,1.16361461,0.02397346,0.50326651\C,0,0.22937138,1.16097109,0
 .21998852\C,0,-1.01437536,1.09940015,-0.25672504\C,0,-1.80463115,-0.09
 532103,-0.56657636\C,0,-1.85194624,-1.19193114,0.18710897\O,0,-2.57400
 616,-2.30785865,-0.06689475\H,0,2.61573938,0.49109663,-1.04009115\H,0,
 2.98146464,1.21768855,0.52445835\H,0,3.25966263,-0.50532236,0.26827602

 Normal termination of Gaussian 16 at Wed Apr  9 03:45:39 2025.
