 Gaussian 16, Revision C.01,

 ----------------------------------------------------------------------
 #t hf aug-cc-pvdz symm=none int=(grid=ultrafine) guess=(read,tcheck) s
 table=(opt,rrhf)
 ----------------------------------------------------------------------
 -----
 title
 -----
 Symbolic Z-matrix:
 Charge =  0 Multiplicity = 1

 SCF Done:  E(RHF) =  -323.923631775     A.U. after   14 cycles
 Normal termination of Gaussian 16 at Wed Apr  9 18:15:52 2025.
 Gaussian 16:  ES64L-G16RevC.01  3-Jul-2019

 ----------------------------------------------------------------------
 #t hf aug-cc-pvdz iop(5/13=1,5/36=2,99/5=2) pseudo=read geom=check gue
 ss=(read,tcheck) scf=(maxcycle=1)
 ----------------------------------------------------------------------
 -----
 title
 -----
 Structure from the checkpoint file:  "Grambow2020_wb97xd3_007249_reverse_mol2.chk"
 Charge =  0 Multiplicity = 1

                         Standard orientation:
 ---------------------------------------------------------------------
 Center     Atomic      Atomic             Coordinates (Angstroms)
 Number     Number       Type             X           Y           Z
 ---------------------------------------------------------------------
      1          6           0       -1.122534    1.418484   -0.592308
      2          6           0       -1.569808    0.070552   -0.106491
      3          6           0       -1.816810   -0.041280    1.369378
      4          6           0       -1.730065   -0.961095   -0.931454
      5          8           0        3.086156    0.635844    0.113936
      6          6           0        2.281904   -0.200823    0.042565
      7          7           0        1.539183   -1.148936    0.008772
      8          1           0       -0.210523    1.734311   -0.076990
      9          1           0       -1.881153    2.174426   -0.372164
     10          1           0       -0.934552    1.421750   -1.665504
     11          1           0       -2.587478    0.668191    1.682662
     12          1           0       -2.134095   -1.044289    1.652793
     13          1           0       -0.911873    0.207195    1.931238
     14          1           0       -2.064095   -1.927255   -0.570005
     15          1           0       -1.555581   -0.866561   -1.997485
     16          1           0        0.559699   -1.126998   -0.247589
 ---------------------------------------------------------------------

 SCF Done:  E(RHF) =  -324.261211814     A.U. after    2 cycles

 The electronic state is 1-A.
 Alpha  occ. eigenvalues --  -20.60010 -15.52004 -11.41152 -11.26544 -11.24473
 Alpha  occ. eigenvalues --  -11.24316 -11.23711  -1.55015  -1.26491  -1.11377
 Alpha  occ. eigenvalues --   -0.96130  -0.95084  -0.83720  -0.74341  -0.73195
 Alpha  occ. eigenvalues --   -0.65918  -0.65320  -0.64801  -0.63841  -0.61401
 Alpha  occ. eigenvalues --   -0.55951  -0.54493  -0.54230  -0.50781  -0.49994
 Alpha  occ. eigenvalues --   -0.46700  -0.37961
 Alpha virt. eigenvalues --    0.03343   0.03745   0.03913   0.04486   0.05577
 Alpha virt. eigenvalues --    0.06045   0.07419   0.08007   0.09520   0.09663
 Alpha virt. eigenvalues --    0.10974   0.12264   0.12307   0.13522   0.14146

 Mulliken charges:
               1
     1  C   -0.507256
     2  C   -0.094494
     3  C   -0.393930
     4  C    0.166472
     5  O   -0.692649
     6  C   -0.151780
     7  N    0.882281
     8  H    0.204789
     9  H    0.180334
    10  H    0.132979
    11  H    0.196415
    12  H    0.122887
    13  H    0.214582
    14  H   -0.187185
    15  H   -0.187997
    16  H    0.114552
 Sum of Mulliken charges =  -0.00000

 Dipole moment (field-independent basis, Debye):
    X=             -2.6434    Y=              0.7204    Z=             -0.1367  Tot=              2.7432

 Test job not archived.
 1\1\GINC-SE226\SP\RHF\Aug-CC-pVDZ\C5H9N1O1\OHZDE\09-Apr-2025\0\\#t hf
 aug-cc-pvdz iop(5/13=1,5/36=2,99/5=2) pseudo=read geom=check guess=(re
 ad,tcheck) scf=(maxcycle=1)\\title\\0,1\C,0,0.85854571,0.83967185,0.99
 564248\C,0,0.64034482,-0.51342553,0.38367256\C,0,1.31460359,-0.7481797
 7,-0.93616508\C,0,-0.10917813,-1.44274293,0.97114707\O,0,-2.46555317,2
 .68078423,-1.09840829\C,0,-2.34444904,1.53113321,-0.97365301\N,0,-2.31
 632396,0.32751316,-0.92674566\H,0,0.53787585,1.6315703,0.31217209\H,0,
 1.92243362,1.00546084,1.18556859\H,0,0.31940063,0.95215114,1.93573228\

 Normal termination of Gaussian 16 at Wed Apr  9 18:15:57 2025.
