 Gaussian 16, Revision C.01,

 ----------------------------------------------------------------------
 #t hf aug-cc-pvdz symm=none int=(grid=ultrafine) guess=(read,tcheck) s
 table=(opt,rrhf)
 ----------------------------------------------------------------------
 -----
 title
 -----
 Symbolic Z-matrix:
 Charge =  0 Multiplicity = 1

 SCF Done:  E(RHF) =  -379.396080032     A.U. after   15 cycles
 Normal termination of Gaussian 16 at Wed Apr  9 03:45:56 2025.
 Gaussian 16:  ES64L-G16RevC.01  3-Jul-2019

 ----------------------------------------------------------------------
 #t hf aug-cc-pvdz iop(5/13=1,5/36=2,99/5=2) pseudo=read geom=check gue
 ss=(read,tcheck) scf=(maxcycle=1)
 ----------------------------------------------------------------------
 -----
 title
 -----
 Structure from the checkpoint file:  "Grambow2020_wb97xd3_007850_forward_mol1.chk"
 Charge =  0 Multiplicity = 1

                         Standard orientation:
 ---------------------------------------------------------------------
 Center     Atomic      Atomic             Coordinates (Angstroms)
 Number     Number       Type             X           Y           Z
 ---------------------------------------------------------------------
      1          8           0       -2.043807   -0.718564   -0.176044
      2          6           0       -0.824212   -0.902727   -0.042511
      3          6           0        0.258922    0.650264   -0.942897
      4          8           0       -0.679093    1.273002    0.159959
      5          6           0       -0.101500    0.092423    0.879062
      6          6           0        1.222658    0.336421    0.172182
      7          8           0        2.089942   -0.740077   -0.006320
      8          1           0       -1.602897    0.888541   -0.044255
      9          1           0       -0.354535   -1.863747   -0.273536
     10          1           0        0.435793    1.396301   -1.717925
     11          1           0       -0.302130    0.118024    1.950224
     12          1           0        1.794473    1.162900    0.601707
     13          1           0        1.757757   -1.275189   -0.731998
 ---------------------------------------------------------------------

 SCF Done:  E(RHF) =  -379.778049770     A.U. after    2 cycles

 The electronic state is 1-A.
 Alpha  occ. eigenvalues --  -20.65241 -20.57357 -20.52128 -11.36208 -11.33951
 Alpha  occ. eigenvalues --  -11.31635 -11.28413  -1.57427  -1.48242  -1.45084
 Alpha  occ. eigenvalues --   -1.10174  -0.95567  -0.88180  -0.80428  -0.77482
 Alpha  occ. eigenvalues --   -0.73160  -0.68766  -0.66153  -0.62968  -0.60918
 Alpha  occ. eigenvalues --   -0.59274  -0.56439  -0.52553  -0.51519  -0.45807
 Alpha  occ. eigenvalues --   -0.42083  -0.34248
 Alpha virt. eigenvalues --    0.03374   0.03710   0.03835   0.04831   0.06510
 Alpha virt. eigenvalues --    0.06845   0.09328   0.10030   0.10974   0.11980
 Alpha virt. eigenvalues --    0.12739   0.13828   0.14492   0.14666   0.14821

 Mulliken charges:
               1
     1  O   -1.401676
     2  C    1.307887
     3  C    0.137876
     4  O   -1.280902
     5  C    0.464702
     6  C    1.328433
     7  O   -1.336369
     8  H    0.558291
     9  H    0.013731
    10  H   -0.154229
    11  H    0.023188
    12  H    0.026472
    13  H    0.312594
 Sum of Mulliken charges =  -0.00000

 Dipole moment (field-independent basis, Debye):
    X=              1.3130    Y=              0.8166    Z=              0.8351  Tot=              1.7574

 Test job not archived.
 1\1\GINC-SE292\SP\RHF\Aug-CC-pVDZ\C4H6O3\OHZDE\09-Apr-2025\0\\#t hf au
 g-cc-pvdz iop(5/13=1,5/36=2,99/5=2) pseudo=read geom=check guess=(read
 ,tcheck) scf=(maxcycle=1)\\title\\0,1\O,0,-2.25647557,-0.27251063,0.36
 240228\C,0,-1.10227712,-0.03286454,0.74912312\C,0,0.30186451,-0.959554
 25,-0.50199196\O,0,-0.57184943,0.0194793,-1.37496635\C,0,-0.26710929,0
 .86557831,-0.17674367\C,0,1.1204828,0.24605699,-0.11851702\O,0,1.78408
 631,0.21413016,1.1068418\H,0,-1.53621426,-0.22597798,-1.14544844\H,0,-
 0.80419786,-0.15593711,1.7948433\H,0,0.66067152,-1.77156117,-1.1347829

 Normal termination of Gaussian 16 at Wed Apr  9 03:46:00 2025.
