 Gaussian 16, Revision C.01,

 ----------------------------------------------------------------------
 #t hf aug-cc-pvdz symm=none int=(grid=ultrafine) guess=(read,tcheck) s
 table=(opt,rrhf)
 ----------------------------------------------------------------------
 -----
 title
 -----
 Symbolic Z-matrix:
 Charge =  0 Multiplicity = 1

 SCF Done:  E(RHF) =  -283.596058740     A.U. after   15 cycles
 Normal termination of Gaussian 16 at Wed Apr  9 16:12:41 2025.
 Gaussian 16:  ES64L-G16RevC.01  3-Jul-2019

 ----------------------------------------------------------------------
 #t hf aug-cc-pvdz iop(5/13=1,5/36=2,99/5=2) pseudo=read geom=check gue
 ss=(read,tcheck) scf=(maxcycle=1)
 ----------------------------------------------------------------------
 -----
 title
 -----
 Structure from the checkpoint file:  "Grambow2020_b97d3_007166_forward_mol1.chk"
 Charge =  0 Multiplicity = 1

                         Standard orientation:
 ---------------------------------------------------------------------
 Center     Atomic      Atomic             Coordinates (Angstroms)
 Number     Number       Type             X           Y           Z
 ---------------------------------------------------------------------
      1          6           0        2.259811   -0.342412    0.009188
      2          7           0        0.839300   -0.663731   -0.021769
      3          6           0       -0.123739    0.305836   -0.002076
      4          8           0        0.080517    1.517529   -0.002489
      5          6           0       -1.515569   -0.186650    0.003204
      6          6           0       -2.778293   -0.395529    0.013021
      7          1           0        2.804262   -0.993367   -0.686433
      8          1           0        2.678585   -0.459937    1.019834
      9          1           0        2.374210    0.700209   -0.301412
     10          1           0        0.559291   -1.635279    0.062400
     11          1           0       -1.988847   -1.393219   -0.062107
 ---------------------------------------------------------------------

 SCF Done:  E(RHF) =  -283.880065670     A.U. after    2 cycles

 The electronic state is 1-A.
 Alpha  occ. eigenvalues --  -20.54277 -15.56374 -11.41625 -11.30663 -11.30240
 Alpha  occ. eigenvalues --  -11.29499  -1.48323  -1.27214  -1.13075  -1.00910
 Alpha  occ. eigenvalues --   -0.88523  -0.82902  -0.69851  -0.67015  -0.64618
 Alpha  occ. eigenvalues --   -0.58448  -0.58025  -0.57544  -0.49410  -0.45537
 Alpha  occ. eigenvalues --   -0.44736  -0.43818
 Alpha virt. eigenvalues --    0.01958   0.03855   0.04587   0.05494   0.06925
 Alpha virt. eigenvalues --    0.07709   0.08502   0.09189   0.10805   0.11070
 Alpha virt. eigenvalues --    0.11648   0.13217   0.13621   0.14504   0.15623

 Mulliken charges:
               1
     1  C   -0.492837
     2  N    0.483594
     3  C    0.686093
     4  O   -1.188930
     5  C    0.342423
     6  C   -0.619929
     7  H    0.122565
     8  H    0.178460
     9  H    0.108257
    10  H    0.118958
    11  H    0.261346
 Sum of Mulliken charges =  -0.00000

 Dipole moment (field-independent basis, Debye):
    X=              3.7075    Y=             -3.8901    Z=              0.0598  Tot=              5.3742

 Test job not archived.
 1\1\GINC-SE163\SP\RHF\Aug-CC-pVDZ\C4H5N1O1\OHZDE\09-Apr-2025\0\\#t hf
 aug-cc-pvdz iop(5/13=1,5/36=2,99/5=2) pseudo=read geom=check guess=(re
 ad,tcheck) scf=(maxcycle=1)\\title\\0,1\C,0,-1.76271976,0.13386509,-0.
 37901329\N,0,-0.30687102,0.12052645,-0.42780889\C,0,0.4513529,-0.23359
 612,0.65273946\O,0,0.01753705,-0.61269074,1.73810209\C,0,1.9119695,-0.
 15565697,0.45202481\C,0,3.19126492,-0.15704256,0.4920414\H,0,-2.170489
 29,-0.27914642,-1.3102506\H,0,-2.15262157,1.15216915,-0.23196298\H,0,-
 2.0753037,-0.48911868,0.46407591\H,0,0.1548916,0.4964723,-1.24929217\H

 Normal termination of Gaussian 16 at Wed Apr  9 16:12:45 2025.
