 Gaussian 16, Revision C.01,

 ----------------------------------------------------------------------
 #t hf aug-cc-pvdz symm=none int=(grid=ultrafine) guess=(read,tcheck) s
 table=(opt,rrhf)
 ----------------------------------------------------------------------
 -----
 title
 -----
 Symbolic Z-matrix:
 Charge =  0 Multiplicity = 1

 SCF Done:  E(RHF) =  -270.758870562     A.U. after   16 cycles
 Normal termination of Gaussian 16 at Wed Apr  9 18:58:05 2025.
 Gaussian 16:  ES64L-G16RevC.01  3-Jul-2019

 ----------------------------------------------------------------------
 #t hf aug-cc-pvdz iop(5/13=1,5/36=2,99/5=2) pseudo=read geom=check gue
 ss=(read,tcheck) scf=(maxcycle=1)
 ----------------------------------------------------------------------
 -----
 title
 -----
 Structure from the checkpoint file:  "Grambow2020_wb97xd3_008385_reverse_mol1.chk"
 Charge =  0 Multiplicity = 1

                         Standard orientation:
 ---------------------------------------------------------------------
 Center     Atomic      Atomic             Coordinates (Angstroms)
 Number     Number       Type             X           Y           Z
 ---------------------------------------------------------------------
      1          6           0        2.278739   -0.133308    0.276886
      2          6           0        0.832352    0.045027   -0.022262
      3          6           0       -1.174309   -0.620047    1.165213
      4          6           0       -1.297160   -0.439237   -0.347595
      5          6           0        0.033554   -0.942310   -0.856090
      6          6           0       -1.167768    1.042976   -0.333704
      7          6           0        0.158706    1.279270   -0.057418
      8          1           0        2.844000   -0.167450   -0.662514
      9          1           0        2.674701    0.680810    0.884109
     10          1           0        2.459785   -1.076383    0.793468
     11          1           0       -1.005572    0.239959    1.791425
     12          1           0       -1.775749   -1.403978    1.636627
     13          1           0       -2.210863   -0.849183   -0.779688
     14          1           0        0.221989   -0.802356   -1.933301
     15          1           0        0.203353   -1.984468   -0.589816
     16          1           0       -1.987861    1.745613   -0.338519
     17          1           0        0.591535    2.223210    0.248031
 ---------------------------------------------------------------------

 SCF Done:  E(RHF) =  -271.049531981     A.U. after    2 cycles

 The electronic state is 1-A.
 Alpha  occ. eigenvalues --  -11.27485 -11.25420 -11.24110 -11.23694 -11.23581
 Alpha  occ. eigenvalues --  -11.22871 -11.22557  -1.18482  -1.02978  -0.98061
 Alpha  occ. eigenvalues --   -0.92441  -0.85292  -0.76053  -0.72701  -0.68649
 Alpha  occ. eigenvalues --   -0.63104  -0.59864  -0.57810  -0.57180  -0.54865
 Alpha  occ. eigenvalues --   -0.52688  -0.51586  -0.48738  -0.47689  -0.37129
 Alpha  occ. eigenvalues --   -0.25698
 Alpha virt. eigenvalues --    0.03201   0.03537   0.03822   0.04131   0.05399
 Alpha virt. eigenvalues --    0.05618   0.05946   0.06734   0.07038   0.07927
 Alpha virt. eigenvalues --    0.08911   0.12013   0.12725   0.13307   0.13494

 Mulliken charges:
               1
     1  C   -0.508575
     2  C    0.023143
     3  C   -0.019640
     4  C    0.104574
     5  C   -0.470650
     6  C    0.084354
     7  C    0.447743
     8  H    0.302306
     9  H    0.143887
    10  H    0.228668
    11  H    0.046314
    12  H   -0.088915
    13  H   -0.070183
    14  H    0.068313
    15  H    0.105151
    16  H   -0.197903
    17  H   -0.198585
 Sum of Mulliken charges =  -0.00000

 Dipole moment (field-independent basis, Debye):
    X=              0.5967    Y=              0.2409    Z=             -0.4954  Tot=              0.8121

 Test job not archived.
 1\1\GINC-SE097\SP\RHF\Aug-CC-pVDZ\C7H10\OHZDE\09-Apr-2025\0\\#t hf aug
 -cc-pvdz iop(5/13=1,5/36=2,99/5=2) pseudo=read geom=check guess=(read,
 tcheck) scf=(maxcycle=1)\\title\\0,1\C,0,2.17732084,0.09260424,-0.2282
 2228\C,0,0.69396757,0.19736133,-0.18328667\C,0,-0.9811177,-0.91873928,
 1.16857052\C,0,-1.43226914,-0.39773073,-0.19575597\C,0,-0.21997858,-0.
 63644422,-1.0651327\C,0,-1.36873005,1.04448629,0.16460835\C,0,-0.02566
 538,1.33455704,0.22574094\H,0,2.52974724,0.33597522,-1.23803646\H,0,2.
 65739916,0.77398385,0.47430148\H,0,2.50618764,-0.92413219,-0.01115418\

 Normal termination of Gaussian 16 at Wed Apr  9 18:58:11 2025.
