 Gaussian 16, Revision C.01,

 ----------------------------------------------------------------------
 #t hf aug-cc-pvdz symm=none int=(grid=ultrafine) guess=(read,tcheck) s
 table=(opt,rrhf)
 ----------------------------------------------------------------------
 -----
 title
 -----
 Symbolic Z-matrix:
 Charge =  0 Multiplicity = 1

 SCF Done:  E(RHF) =  -358.546184363     A.U. after   15 cycles
 Normal termination of Gaussian 16 at Wed Apr  9 03:40:13 2025.
 Gaussian 16:  ES64L-G16RevC.01  3-Jul-2019

 ----------------------------------------------------------------------
 #t hf aug-cc-pvdz iop(5/13=1,5/36=2,99/5=2) pseudo=read geom=check gue
 ss=(read,tcheck) scf=(maxcycle=1)
 ----------------------------------------------------------------------
 -----
 title
 -----
 Structure from the checkpoint file:  "Grambow2020_wb97xd3_007451_reverse_mol2.chk"
 Charge =  0 Multiplicity = 1

                         Standard orientation:
 ---------------------------------------------------------------------
 Center     Atomic      Atomic             Coordinates (Angstroms)
 Number     Number       Type             X           Y           Z
 ---------------------------------------------------------------------
      1          8           0        3.172394    0.136539   -0.119990
      2          6           0        1.925918    0.245642    0.474237
      3          6           0       -0.233661   -0.618538   -0.138572
      4          7           0        0.872274   -0.253742   -0.400527
      5          8           0       -2.371901    1.202361   -0.076488
      6          6           0       -2.543914    0.014448    0.063682
      7          6           0       -1.489392   -0.994538    0.059757
      8          1           0        3.190528    0.677711   -0.913047
      9          1           0        1.961218   -0.342461    1.391596
     10          1           0        1.663199    1.281406    0.712911
     11          1           0       -3.562030   -0.393965    0.213263
     12          1           0       -1.716486   -2.039780    0.216172
 ---------------------------------------------------------------------

 SCF Done:  E(RHF) =  -358.904899070     A.U. after    2 cycles

 The electronic state is 1-A.
 Alpha  occ. eigenvalues --  -20.57790 -20.53282 -15.55449 -11.36089 -11.35654
 Alpha  occ. eigenvalues --  -11.34621 -11.25457  -1.49493  -1.46856  -1.30113
 Alpha  occ. eigenvalues --   -1.07889  -0.99141  -0.86477  -0.79457  -0.73383
 Alpha  occ. eigenvalues --   -0.70454  -0.68490  -0.68199  -0.61786  -0.58781
 Alpha  occ. eigenvalues --   -0.58123  -0.53596  -0.51910  -0.48614  -0.42109
 Alpha  occ. eigenvalues --   -0.37282
 Alpha virt. eigenvalues --    0.02953   0.03954   0.04430   0.05214   0.05911
 Alpha virt. eigenvalues --    0.07172   0.08264   0.09999   0.11076   0.11344
 Alpha virt. eigenvalues --    0.11868   0.12078   0.13728   0.14514   0.14983

 Mulliken charges:
               1
     1  O   -1.075095
     2  C    0.771330
     3  C   -1.910052
     4  N    0.870079
     5  O   -1.173756
     6  C    0.877429
     7  C    1.238483
     8  H    0.315577
     9  H    0.016493
    10  H    0.106436
    11  H    0.108789
    12  H   -0.145711
 Sum of Mulliken charges =  -0.00000

 Dipole moment (field-independent basis, Debye):
    X=              0.3935    Y=             -1.7272    Z=              0.9955  Tot=              2.0320

 Test job not archived.
 1\1\GINC-SE229\SP\RHF\Aug-CC-pVDZ\C4H5N1O2\OHZDE\09-Apr-2025\0\\#t hf
 aug-cc-pvdz iop(5/13=1,5/36=2,99/5=2) pseudo=read geom=check guess=(re
 ad,tcheck) scf=(maxcycle=1)\\title\\0,1\O,0,-3.07911966,0.45662332,-0.
 19777246\C,0,-1.86374293,-0.17025014,-0.4182284\C,0,0.30709575,0.12663
 589,0.5744648\N,0,-0.77583308,0.52044237,0.26306318\O,0,2.47572226,0.3
 2769287,-1.19986071\C,0,2.61588128,-0.06732482,-0.06641914\C,0,1.54270
 68,-0.21575969,0.91151053\H,0,-3.04439437,1.34511259,-0.5604245\H,0,-1
 .95932707,-1.1869283,-0.03627616\H,0,-1.59293689,-0.20118974,-1.478653

 Normal termination of Gaussian 16 at Wed Apr  9 03:40:18 2025.
