 Gaussian 16, Revision C.01,

 ----------------------------------------------------------------------
 #t hf aug-cc-pvdz symm=none int=(grid=ultrafine) guess=(read,tcheck) s
 table=(opt,rrhf)
 ----------------------------------------------------------------------
 -----
 title
 -----
 Symbolic Z-matrix:
 Charge =  0 Multiplicity = 1

 SCF Done:  E(RHF) =  -306.544621477     A.U. after   15 cycles
 Normal termination of Gaussian 16 at Wed Apr  9 03:39:33 2025.
 Gaussian 16:  ES64L-G16RevC.01  3-Jul-2019

 ----------------------------------------------------------------------
 #t hf aug-cc-pvdz iop(5/13=1,5/36=2,99/5=2) pseudo=read geom=check gue
 ss=(read,tcheck) scf=(maxcycle=1)
 ----------------------------------------------------------------------
 -----
 title
 -----
 Structure from the checkpoint file:  "Grambow2020_wb97xd3_007362_reverse_mol1.chk"
 Charge =  0 Multiplicity = 1

                         Standard orientation:
 ---------------------------------------------------------------------
 Center     Atomic      Atomic             Coordinates (Angstroms)
 Number     Number       Type             X           Y           Z
 ---------------------------------------------------------------------
      1          6           0       -1.691081   -0.351831    0.776664
      2          6           0       -1.840894    0.089765   -0.654579
      3          6           0       -0.495794    0.061890   -0.011191
      4          6           0        0.428695    1.256062    0.171352
      5          6           0        1.731522    0.531817   -0.282849
      6          8           0        1.661271   -0.669156    0.473139
      7          6           0        0.617867   -0.851065   -0.436241
      8          1           0       -2.030994    0.320734    1.553581
      9          1           0       -1.818891   -1.403121    1.002926
     10          1           0       -2.068065   -0.667016   -1.395842
     11          1           0       -2.288331    1.055794   -0.850819
     12          1           0        0.186706    2.108000   -0.462767
     13          1           0        0.561082    1.590139    1.202405
     14          1           0        1.121228   -0.212878   -1.374124
     15          1           0        0.545217   -1.858233   -0.839400
 ---------------------------------------------------------------------

 SCF Done:  E(RHF) =  -306.861559239     A.U. after    2 cycles

 The electronic state is 1-A.
 Alpha  occ. eigenvalues --  -20.57211 -11.33737 -11.31717 -11.26206 -11.25022
 Alpha  occ. eigenvalues --  -11.24740 -11.24274  -1.52567  -1.18038  -1.05028
 Alpha  occ. eigenvalues --   -0.94513  -0.84881  -0.83077  -0.77509  -0.70727
 Alpha  occ. eigenvalues --   -0.68662  -0.62757  -0.62268  -0.58618  -0.54045
 Alpha  occ. eigenvalues --   -0.52283  -0.50760  -0.48583  -0.44399  -0.43788
 Alpha  occ. eigenvalues --   -0.34904
 Alpha virt. eigenvalues --    0.03134   0.03491   0.03713   0.04610   0.05979
 Alpha virt. eigenvalues --    0.06015   0.06613   0.07799   0.09239   0.11209
 Alpha virt. eigenvalues --    0.11851   0.12738   0.13272   0.13530   0.13956

 Mulliken charges:
               1
     1  C    0.132998
     2  C    0.249485
     3  C    0.739130
     4  C   -0.564699
     5  C    0.084125
     6  O   -1.261906
     7  C    0.066005
     8  H   -0.078567
     9  H   -0.074139
    10  H   -0.076438
    11  H   -0.093035
    12  H    0.095870
    13  H    0.151018
    14  H    0.689737
    15  H   -0.059583
 Sum of Mulliken charges =  -0.00000

 Dipole moment (field-independent basis, Debye):
    X=             -3.3879    Y=             -0.4527    Z=             -0.5828  Tot=              3.4673

 Test job not archived.
 1\1\GINC-SE009\SP\RHF\Aug-CC-pVDZ\C6H8O1\OHZDE\09-Apr-2025\0\\#t hf au
 g-cc-pvdz iop(5/13=1,5/36=2,99/5=2) pseudo=read geom=check guess=(read
 ,tcheck) scf=(maxcycle=1)\\title\\0,1\C,0,-1.42054569,0.31620194,-0.75
 772734\C,0,-1.43592092,-0.05613637,0.70070822\C,0,-0.14795673,0.002323
 41,-0.04879162\C,0,0.82041773,-1.15408168,-0.24633718\C,0,2.11510793,-
 0.34528347,0.06640808\O,0,1.92421279,0.80948529,-0.73910766\C,0,0.9463
 2874,0.9887454,0.24087372\H,0,-1.78419636,-0.41184719,-1.47130208\H,0,
 -1.61994813,1.34678576,-1.02395378\H,0,-1.64401965,0.7268389,1.4200416

 Normal termination of Gaussian 16 at Wed Apr  9 03:39:38 2025.
