 Gaussian 16, Revision C.01,

 ----------------------------------------------------------------------
 #t hf aug-cc-pvdz symm=none int=(grid=ultrafine) guess=(read,tcheck) s
 table=(opt,rrhf)
 ----------------------------------------------------------------------
 -----
 title
 -----
 Symbolic Z-matrix:
 Charge =  0 Multiplicity = 1

 SCF Done:  E(RHF) =  -325.063046175     A.U. after   13 cycles
 Normal termination of Gaussian 16 at Wed Apr  9 18:49:57 2025.
 Gaussian 16:  ES64L-G16RevC.01  3-Jul-2019

 ----------------------------------------------------------------------
 #t hf aug-cc-pvdz iop(5/13=1,5/36=2,99/5=2) pseudo=read geom=check gue
 ss=(read,tcheck) scf=(maxcycle=1)
 ----------------------------------------------------------------------
 -----
 title
 -----
 Structure from the checkpoint file:  "Grambow2020_wb97xd3_008097_reverse_mol2.chk"
 Charge =  0 Multiplicity = 1

                         Standard orientation:
 ---------------------------------------------------------------------
 Center     Atomic      Atomic             Coordinates (Angstroms)
 Number     Number       Type             X           Y           Z
 ---------------------------------------------------------------------
      1          6           0        3.396575   -0.279347    0.166018
      2          6           0        2.683227    0.770948   -0.210678
      3          7           0       -0.744396    0.768034    0.043357
      4          6           0       -1.836666    1.709697    0.058689
      5          6           0       -0.969377   -0.471900   -0.000306
      6          8           0        0.065321   -1.334078   -0.006130
      7          6           0       -2.290987   -1.187350   -0.048019
      8          1           0        3.572061   -0.500839    1.212915
      9          1           0        3.837208   -0.957324   -0.556307
     10          1           0        0.880508   -0.808069    0.020911
     11          1           0        2.505124    0.992171   -1.256954
     12          1           0        2.230401    1.444602    0.506400
     13          1           0       -1.631958    2.509538   -0.655652
     14          1           0       -2.816217    1.283096   -0.184900
     15          1           0       -1.909207    2.175200    1.045707
     16          1           0       -2.130050   -2.261884   -0.079473
     17          1           0       -2.856556   -0.888986   -0.931594
     18          1           0       -2.889746   -0.943414    0.830262
 ---------------------------------------------------------------------

 SCF Done:  E(RHF) =  -325.409369523     A.U. after    2 cycles

 The electronic state is 1-A.
 Alpha  occ. eigenvalues --  -20.56626 -15.46808 -11.33583 -11.25056 -11.24350
 Alpha  occ. eigenvalues --  -11.24220 -11.24060  -1.49597  -1.21475  -1.04256
 Alpha  occ. eigenvalues --   -1.01031  -0.94994  -0.79653  -0.78871  -0.70359
 Alpha  occ. eigenvalues --   -0.65994  -0.65270  -0.63684  -0.60369  -0.57629
 Alpha  occ. eigenvalues --   -0.57408  -0.56930  -0.54412  -0.54255  -0.51185
 Alpha  occ. eigenvalues --   -0.43816  -0.39869  -0.38969
 Alpha virt. eigenvalues --    0.03654   0.04407   0.04580   0.04628   0.05302
 Alpha virt. eigenvalues --    0.05362   0.06106   0.06835   0.07490   0.08735
 Alpha virt. eigenvalues --    0.08960   0.11032   0.12521   0.13216   0.13651

 Mulliken charges:
               1
     1  C    0.173757
     2  C    0.075124
     3  N    0.758254
     4  C   -0.307104
     5  C    0.056621
     6  O   -1.477316
     7  C   -0.383610
     8  H   -0.069431
     9  H   -0.076540
    10  H    0.501654
    11  H   -0.061255
    12  H   -0.065639
    13  H    0.079272
    14  H    0.042263
    15  H    0.140592
    16  H    0.019029
    17  H    0.293736
    18  H    0.300593
 Sum of Mulliken charges =  -0.00000

 Dipole moment (field-independent basis, Debye):
    X=             -1.1928    Y=             -0.3482    Z=             -0.0552  Tot=              1.2438

 Test job not archived.
 1\1\GINC-SE226\SP\RHF\Aug-CC-pVDZ\C5H11N1O1\OHZDE\09-Apr-2025\0\\#t hf
  aug-cc-pvdz iop(5/13=1,5/36=2,99/5=2) pseudo=read geom=check guess=(r
 ead,tcheck) scf=(maxcycle=1)\\title\\0,1\C,0,-3.18319256,-0.03049765,-
 1.36124748\C,0,-2.77818022,-0.40124059,-0.15609204\N,0,0.48775079,0.02
 763284,0.82518687\C,0,1.2637502,0.07082341,2.04008484\C,0,1.05874759,0
 .03233956,-0.29904509\O,0,0.31464574,-0.00077542,-1.42118625\C,0,2.529
 87139,0.07349212,-0.60710343\H,0,-3.34816406,1.01217179,-1.60918101\H,
 0,-3.37016999,-0.75396337,-2.14686836\H,0,-0.61675695,-0.03105774,-1.1

 Normal termination of Gaussian 16 at Wed Apr  9 18:50:03 2025.
