 Gaussian 16, Revision C.01,

 ----------------------------------------------------------------------
 #t hf aug-cc-pvdz symm=none int=(grid=ultrafine) guess=(read,tcheck) s
 table=(opt,rrhf)
 ----------------------------------------------------------------------
 -----
 title
 -----
 Symbolic Z-matrix:
 Charge =  0 Multiplicity = 1

 SCF Done:  E(RHF) =  -323.720075024     A.U. after   17 cycles
 Normal termination of Gaussian 16 at Wed Apr  9 18:16:27 2025.
 Gaussian 16:  ES64L-G16RevC.01  3-Jul-2019

 ----------------------------------------------------------------------
 #t hf aug-cc-pvdz iop(5/13=1,5/36=2,99/5=2) pseudo=read geom=check gue
 ss=(read,tcheck) scf=(maxcycle=1)
 ----------------------------------------------------------------------
 -----
 title
 -----
 Structure from the checkpoint file:  "Grambow2020_wb97xd3_007257_reverse_mol1.chk"
 Charge =  0 Multiplicity = 1

                         Standard orientation:
 ---------------------------------------------------------------------
 Center     Atomic      Atomic             Coordinates (Angstroms)
 Number     Number       Type             X           Y           Z
 ---------------------------------------------------------------------
      1          6           0       -1.576379   -1.009036    0.526975
      2          6           0       -0.559135   -0.022095   -0.033105
      3          6           0       -1.240149    1.251321   -0.558705
      4          6           0        0.498554    0.430877    0.948908
      5          8           0        1.624675    0.670499    0.293204
      6          6           0        1.402244   -0.686198   -0.380876
      7          7           0        0.261029   -0.692910   -1.021410
      8          1           0       -2.262411   -1.301680   -0.266866
      9          1           0       -2.147778   -0.561165    1.343527
     10          1           0       -1.073540   -1.903204    0.897316
     11          1           0       -1.839551    1.730841    0.216817
     12          1           0       -0.500398    1.955975   -0.937665
     13          1           0       -1.896231    0.969236   -1.381864
     14          1           0        0.297270    1.022251    1.843605
     15          1           0        1.094552   -1.147426    0.811788
     16          1           0        2.352681   -1.067656   -0.741608
 ---------------------------------------------------------------------

 SCF Done:  E(RHF) =  -324.056834213     A.U. after    2 cycles

 The electronic state is 1-A.
 Alpha  occ. eigenvalues --  -20.58703 -15.44841 -11.39111 -11.35276 -11.28344
 Alpha  occ. eigenvalues --  -11.24370 -11.23692  -1.53767  -1.23023  -1.07351
 Alpha  occ. eigenvalues --   -0.95433  -0.93622  -0.85955  -0.79738  -0.72863
 Alpha  occ. eigenvalues --   -0.70182  -0.63645  -0.62505  -0.60212  -0.56465
 Alpha  occ. eigenvalues --   -0.55994  -0.54577  -0.51315  -0.50455  -0.47066
 Alpha  occ. eigenvalues --   -0.44475  -0.33189
 Alpha virt. eigenvalues --    0.02609   0.02942   0.04173   0.04429   0.04843
 Alpha virt. eigenvalues --    0.05873   0.06217   0.06528   0.07376   0.08784
 Alpha virt. eigenvalues --    0.10896   0.12531   0.12810   0.13668   0.14165

 Mulliken charges:
               1
     1  C    0.164104
     2  C   -2.657524
     3  C    0.028047
     4  C    1.340368
     5  O   -1.311087
     6  C   -0.120518
     7  N    0.721657
     8  H    0.241485
     9  H    0.245643
    10  H    0.147594
    11  H    0.258810
    12  H    0.203712
    13  H    0.228923
    14  H   -0.008300
    15  H    0.598649
    16  H   -0.081562
 Sum of Mulliken charges =  -0.00000

 Dipole moment (field-independent basis, Debye):
    X=             -0.7913    Y=              1.3071    Z=              3.3125  Tot=              3.6480

 Test job not archived.
 1\1\GINC-SE219\SP\RHF\Aug-CC-pVDZ\C5H9N1O1\OHZDE\09-Apr-2025\0\\#t hf
 aug-cc-pvdz iop(5/13=1,5/36=2,99/5=2) pseudo=read geom=check guess=(re
 ad,tcheck) scf=(maxcycle=1)\\title\\0,1\C,0,1.00151469,1.06452712,0.74
 418826\C,0,0.20704748,0.08175009,-0.10757309\C,0,1.13254128,-0.8826393
 3,-0.86588729\C,0,-0.77454696,-0.77798216,0.65765361\O,0,-1.81466295,-
 1.04419623,-0.11875158\C,0,-1.8333373,0.45377824,-0.43530867\N,0,-0.69
 541136,0.8190382,-0.96860972\H,0,1.64311284,1.65959096,0.09556323\H,0,
 1.62271837,0.53799068,1.47268522\H,0,0.32742713,1.73703611,1.27604575\

 Normal termination of Gaussian 16 at Wed Apr  9 18:16:33 2025.
