 Gaussian 16, Revision C.01,

 ----------------------------------------------------------------------
 #t hf aug-cc-pvdz symm=none int=(grid=ultrafine) guess=(read,tcheck) s
 table=(opt,rrhf)
 ----------------------------------------------------------------------
 -----
 title
 -----
 Symbolic Z-matrix:
 Charge =  0 Multiplicity = 1

 SCF Done:  E(RHF) =  -301.649079708     A.U. after   16 cycles
 Normal termination of Gaussian 16 at Wed Apr  9 19:10:55 2025.
 Gaussian 16:  ES64L-G16RevC.01  3-Jul-2019

 ----------------------------------------------------------------------
 #t hf aug-cc-pvdz iop(5/13=1,5/36=2,99/5=2) pseudo=read geom=check gue
 ss=(read,tcheck) scf=(maxcycle=1)
 ----------------------------------------------------------------------
 -----
 title
 -----
 Structure from the checkpoint file:  "Grambow2020_wb97xd3_008854_reverse_mol2.chk"
 Charge =  0 Multiplicity = 1

                         Standard orientation:
 ---------------------------------------------------------------------
 Center     Atomic      Atomic             Coordinates (Angstroms)
 Number     Number       Type             X           Y           Z
 ---------------------------------------------------------------------
      1          7           0       -2.980242   -0.565500    0.001554
      2          6           0       -2.043682    0.112397   -0.000029
      3          6           0       -0.874048    0.879891   -0.001417
      4          6           0        0.750908   -0.993911   -0.001381
      5          6           0        2.203909   -0.626319    0.001058
      6          6           0        1.660835    0.823334    0.000819
      7          7           0        0.306094    0.243113   -0.001267
      8          1           0       -0.871810    1.955565    0.000031
      9          1           0        0.155256   -1.893813   -0.003737
     10          1           0        2.773053   -0.899228    0.891609
     11          1           0        2.775412   -0.899395   -0.888008
     12          1           0        1.848193    1.409554    0.898856
     13          1           0        1.851404    1.411671   -0.895061
 ---------------------------------------------------------------------

 SCF Done:  E(RHF) =  -301.957934860     A.U. after    2 cycles

 The electronic state is 1-A.
 Alpha  occ. eigenvalues --  -15.63434 -15.47866 -11.32273 -11.30178 -11.28275
 Alpha  occ. eigenvalues --  -11.25927 -11.25649  -1.37451  -1.20318  -1.12109
 Alpha  occ. eigenvalues --   -0.99792  -0.95063  -0.82232  -0.77198  -0.72729
 Alpha  occ. eigenvalues --   -0.72517  -0.62933  -0.59504  -0.58874  -0.56920
 Alpha  occ. eigenvalues --   -0.56353  -0.53798  -0.49399  -0.47527  -0.28608
 Alpha virt. eigenvalues --    0.02428   0.03351   0.03391   0.04313   0.05532
 Alpha virt. eigenvalues --    0.05992   0.06030   0.07784   0.08809   0.12038
 Alpha virt. eigenvalues --    0.12179   0.12853   0.12985   0.14381   0.15303

 Mulliken charges:
               1
     1  N    0.881124
     2  C   -2.006353
     3  C    0.510777
     4  C   -0.050385
     5  C   -0.161423
     6  C    0.054003
     7  N    0.872784
     8  H   -0.193701
     9  H   -0.134177
    10  H    0.105191
    11  H    0.105236
    12  H    0.008888
    13  H    0.008036
 Sum of Mulliken charges =   0.00000

 Dipole moment (field-independent basis, Debye):
    X=              8.0714    Y=              1.5129    Z=             -0.0010  Tot=              8.2119

 Test job not archived.
 1\1\GINC-SE113\SP\RHF\Aug-CC-pVDZ\C5H6N2\OHZDE\09-Apr-2025\0\\#t hf au
 g-cc-pvdz iop(5/13=1,5/36=2,99/5=2) pseudo=read geom=check guess=(read
 ,tcheck) scf=(maxcycle=1)\\title\\0,1\N,0,3.39287916,-0.62671532,-1.06
 772782\C,0,2.50191283,0.05929738,-0.79892066\C,0,1.38950079,0.83698707
 ,-0.46005275\C,0,-0.13907467,-1.0194309,0.1472211\C,0,-1.51883099,-0.6
 3870673,0.59181355\C,0,-1.01279976,0.80422094,0.35032626\N,0,0.2750045
 7,0.21201415,-0.05320351\H,0,1.38051217,1.9114041,-0.51132477\H,0,0.43
 144548,-1.92381,0.00150002\H,0,-2.34108039,-0.94736006,-0.05635645\H,0

 Normal termination of Gaussian 16 at Wed Apr  9 19:10:59 2025.
