 Gaussian 16, Revision C.01,

 ----------------------------------------------------------------------
 #t hf aug-cc-pvdz symm=none int=(grid=ultrafine) guess=(read,tcheck) s
 table=(opt,rrhf)
 ----------------------------------------------------------------------
 -----
 title
 -----
 Symbolic Z-matrix:
 Charge =  0 Multiplicity = 1

 SCF Done:  E(RHF) =  -359.707700015     A.U. after   15 cycles
 Normal termination of Gaussian 16 at Wed Apr  9 19:21:04 2025.
 Gaussian 16:  ES64L-G16RevC.01  3-Jul-2019

 ----------------------------------------------------------------------
 #t hf aug-cc-pvdz iop(5/13=1,5/36=2,99/5=2) pseudo=read geom=check gue
 ss=(read,tcheck) scf=(maxcycle=1)
 ----------------------------------------------------------------------
 -----
 title
 -----
 Structure from the checkpoint file:  "Grambow2020_wb97xd3_009388_forward_mol1.chk"
 Charge =  0 Multiplicity = 1

                         Standard orientation:
 ---------------------------------------------------------------------
 Center     Atomic      Atomic             Coordinates (Angstroms)
 Number     Number       Type             X           Y           Z
 ---------------------------------------------------------------------
      1          6           0        0.779002    1.975360    0.004835
      2          7           0        0.140163    0.692747    0.070095
      3          6           0       -1.437484   -0.131476    0.342867
      4          8           0       -2.306761   -0.000059   -0.452243
      5          6           0        0.621359   -0.495467    0.008598
      6          8           0       -0.355372   -1.338958    0.130212
      7          6           0        2.020635   -0.968359   -0.148500
      8          1           0        0.284589    2.591501   -0.747459
      9          1           0        0.708950    2.488998    0.966031
     10          1           0        1.835318    1.887541   -0.262158
     11          1           0       -1.512111   -0.066839    1.434906
     12          1           0        2.713916   -0.144727   -0.305147
     13          1           0        2.072663   -1.654292   -0.993682
     14          1           0        2.311532   -1.519628    0.746284
 ---------------------------------------------------------------------

 SCF Done:  E(RHF) =  -360.073600365     A.U. after    2 cycles

 The electronic state is 1-A.
 Alpha  occ. eigenvalues --  -20.56852 -20.50744 -15.52097 -11.40423 -11.37661
 Alpha  occ. eigenvalues --  -11.28708 -11.27326  -1.52897  -1.45863  -1.24619
 Alpha  occ. eigenvalues --   -1.05045  -0.99901  -0.86464  -0.76186  -0.72959
 Alpha  occ. eigenvalues --   -0.71932  -0.68004  -0.63533  -0.61501  -0.60627
 Alpha  occ. eigenvalues --   -0.59717  -0.57321  -0.55960  -0.54546  -0.43668
 Alpha  occ. eigenvalues --   -0.42289  -0.40199
 Alpha virt. eigenvalues --    0.02598   0.03827   0.04121   0.05241   0.05545
 Alpha virt. eigenvalues --    0.05878   0.07333   0.09262   0.10729   0.11799
 Alpha virt. eigenvalues --    0.12284   0.12961   0.13603   0.14249   0.14546

 Mulliken charges:
               1
     1  C   -0.364563
     2  N    0.598278
     3  C    1.486100
     4  O   -1.175806
     5  C    0.051473
     6  O   -1.407447
     7  C   -0.332012
     8  H    0.152148
     9  H    0.149110
    10  H    0.036168
    11  H    0.204578
    12  H    0.117295
    13  H    0.234765
    14  H    0.249911
 Sum of Mulliken charges =  -0.00000

 Dipole moment (field-independent basis, Debye):
    X=              5.4470    Y=              1.0577    Z=              1.6836  Tot=              5.7985

 Test job not archived.
 1\1\GINC-SE108\SP\RHF\Aug-CC-pVDZ\C4H7N1O2\OHZDE\09-Apr-2025\0\\#t hf
 aug-cc-pvdz iop(5/13=1,5/36=2,99/5=2) pseudo=read geom=check guess=(re
 ad,tcheck) scf=(maxcycle=1)\\title\\0,1\C,0,-1.43537277,-0.10835195,-0
 .9995168\N,0,-0.59907654,0.02522789,0.15816858\C,0,-0.60914723,0.37960
 804,1.92367979\O,0,-1.11607212,-0.391116,2.66807447\C,0,0.6774125,-0.0
 0775433,0.28728893\O,0,0.96684658,0.17680951,1.53726308\C,0,1.75010675
 ,-0.19265291,-0.72336338\H,0,-2.19741962,-0.86650542,-0.81375393\H,0,-
 1.93948851,0.83488805,-1.22041069\H,0,-0.86113168,-0.40614056,-1.88063

 Normal termination of Gaussian 16 at Wed Apr  9 19:21:09 2025.
