 Gaussian 16, Revision C.01,

 ----------------------------------------------------------------------
 #t hf aug-cc-pvdz symm=none int=(grid=ultrafine) guess=(read,tcheck) s
 table=(opt,rrhf)
 ----------------------------------------------------------------------
 -----
 title
 -----
 Symbolic Z-matrix:
 Charge =  0 Multiplicity = 1

 SCF Done:  E(RHF) =  -231.645264480     A.U. after   15 cycles
 Normal termination of Gaussian 16 at Wed Apr  9 15:54:55 2025.
 Gaussian 16:  ES64L-G16RevC.01  3-Jul-2019

 ----------------------------------------------------------------------
 #t hf aug-cc-pvdz iop(5/13=1,5/36=2,99/5=2) pseudo=read geom=check gue
 ss=(read,tcheck) scf=(maxcycle=1)
 ----------------------------------------------------------------------
 -----
 title
 -----
 Structure from the checkpoint file:  "Grambow2020_b97d3_006876_reverse_mol1.chk"
 Charge =  0 Multiplicity = 1

                         Standard orientation:
 ---------------------------------------------------------------------
 Center     Atomic      Atomic             Coordinates (Angstroms)
 Number     Number       Type             X           Y           Z
 ---------------------------------------------------------------------
      1          6           0       -0.420541    1.305457   -0.382510
      2          6           0       -1.163542    0.050316    0.180487
      3          6           0       -0.832120   -1.190547   -0.575010
      4          6           0        1.268271   -0.587257   -0.404102
      5          6           0        0.908337    0.724484    0.184508
      6          6           0        0.095742   -0.349655    0.888209
      7          1           0       -0.696221    2.219029    0.159111
      8          1           0       -0.477446    1.462556   -1.466107
      9          1           0       -2.082770    0.151322    0.761108
     10          1           0       -1.114222   -2.059849    0.061858
     11          1           0        2.072804   -1.108651    0.122962
     12          1           0        1.246009   -0.784560   -1.468528
     13          1           0        1.648092    1.342004    0.695938
     14          1           0        0.266866   -0.938643    1.784173
 ---------------------------------------------------------------------

 SCF Done:  E(RHF) =  -231.891508723     A.U. after    2 cycles

 The electronic state is 1-A.
 Alpha  occ. eigenvalues --  -11.28137 -11.27732 -11.25801 -11.24333 -11.24136
 Alpha  occ. eigenvalues --  -11.23112  -1.21620  -1.00746  -0.95174  -0.84215
 Alpha  occ. eigenvalues --   -0.76043  -0.73374  -0.71469  -0.62572  -0.60103
 Alpha  occ. eigenvalues --   -0.57380  -0.51863  -0.51579  -0.46670  -0.44438
 Alpha  occ. eigenvalues --   -0.38971  -0.30212
 Alpha virt. eigenvalues --    0.02984   0.03640   0.03699   0.04654   0.05997
 Alpha virt. eigenvalues --    0.06068   0.06633   0.07074   0.10016   0.11384
 Alpha virt. eigenvalues --    0.12524   0.13034   0.13503   0.14430   0.14904

 Mulliken charges:
               1
     1  C   -0.102727
     2  C    0.523137
     3  C   -0.419572
     4  C    0.141495
     5  C    0.522744
     6  C   -0.103217
     7  H    0.078584
     8  H    0.050724
     9  H   -0.130771
    10  H    0.039401
    11  H   -0.066939
    12  H   -0.044760
    13  H   -0.188456
    14  H   -0.299643
 Sum of Mulliken charges =  -0.00000

 Dipole moment (field-independent basis, Debye):
    X=              1.1210    Y=              1.2128    Z=              2.3063  Tot=              2.8366

 Test job not archived.
 1\1\GINC-SE163\SP\RHF\Aug-CC-pVDZ\C6H8\OHZDE\09-Apr-2025\0\\#t hf aug-
 cc-pvdz iop(5/13=1,5/36=2,99/5=2) pseudo=read geom=check guess=(read,t
 check) scf=(maxcycle=1)\\title\\0,1\C,0,-1.17092786,-0.20678645,0.8004
 3394\C,0,-0.4186852,1.09113898,0.36007449\C,0,1.03642744,1.03769114,0.
 67653707\C,0,1.02965535,-0.96915797,-0.20512224\C,0,-0.44563266,-0.969
 4815,-0.34725943\C,0,0.07881498,0.3642335,-0.85266882\H,0,-2.24662693,
 -0.14435056,0.59321707\H,0,-0.99080243,-0.55292338,1.82505328\H,0,-0.9
 5160904,2.03455776,0.22496293\H,0,1.54596586,1.81053432,0.05689854\H,0

 Normal termination of Gaussian 16 at Wed Apr  9 15:54:59 2025.
