 Gaussian 16, Revision C.01,

 ----------------------------------------------------------------------
 #t hf aug-cc-pvdz symm=none int=(grid=ultrafine) guess=(read,tcheck) s
 table=(opt,rrhf)
 ----------------------------------------------------------------------
 -----
 title
 -----
 Symbolic Z-matrix:
 Charge =  0 Multiplicity = 1

 SCF Done:  E(RHF) =  -302.812487650     A.U. after   15 cycles
 Normal termination of Gaussian 16 at Wed Apr  9 18:04:12 2025.
 Gaussian 16:  ES64L-G16RevC.01  3-Jul-2019

 ----------------------------------------------------------------------
 #t hf aug-cc-pvdz iop(5/13=1,5/36=2,99/5=2) pseudo=read geom=check gue
 ss=(read,tcheck) scf=(maxcycle=1)
 ----------------------------------------------------------------------
 -----
 title
 -----
 Structure from the checkpoint file:  "Grambow2020_wb97xd3_006961_reverse_mol2.chk"
 Charge =  0 Multiplicity = 1

                         Standard orientation:
 ---------------------------------------------------------------------
 Center     Atomic      Atomic             Coordinates (Angstroms)
 Number     Number       Type             X           Y           Z
 ---------------------------------------------------------------------
      1          6           0       -1.345680   -1.266636    0.033340
      2          6           0       -0.497479   -0.000834   -0.042190
      3          6           0       -1.340485    1.269702    0.011957
      4          7           0        0.485810    0.007524    1.064755
      5          6           0        1.668194    0.003620    0.552374
      6          6           0        1.633030   -0.009465   -0.952826
      7          7           0        0.344465   -0.011182   -1.207573
      8          1           0       -1.990159   -1.302253   -0.843169
      9          1           0       -1.970492   -1.275824    0.929280
     10          1           0       -0.706854   -2.149938    0.024769
     11          1           0       -1.958688    1.302656    0.911927
     12          1           0       -0.698523    2.150162   -0.021920
     13          1           0       -1.991780    1.290153   -0.860066
     14          1           0        0.256452    0.019198    2.047007
     15          1           0        2.542647    0.013134    1.195970
 ---------------------------------------------------------------------

 SCF Done:  E(RHF) =  -303.125327410     A.U. after    2 cycles

 The electronic state is 1-A.
 Alpha  occ. eigenvalues --  -15.59720 -15.47444 -11.34202 -11.31410 -11.24554
 Alpha  occ. eigenvalues --  -11.24519 -11.20595  -1.35545  -1.18262  -1.08281
 Alpha  occ. eigenvalues --   -0.96545  -0.94169  -0.86222  -0.81293  -0.76195
 Alpha  occ. eigenvalues --   -0.66327  -0.64306  -0.63009  -0.57639  -0.56224
 Alpha  occ. eigenvalues --   -0.54993  -0.54628  -0.50625  -0.47394  -0.41236
 Alpha  occ. eigenvalues --   -0.31276
 Alpha virt. eigenvalues --    0.01545   0.02792   0.03393   0.04113   0.04274
 Alpha virt. eigenvalues --    0.05017   0.06116   0.07196   0.07476   0.09777
 Alpha virt. eigenvalues --    0.11726   0.12705   0.13115   0.13644   0.13911

 Mulliken charges:
               1
     1  C    0.563352
     2  C   -4.899073
     3  C    0.568246
     4  N    1.496874
     5  C    0.070611
     6  C   -0.541968
     7  N    1.344464
     8  H    0.278135
     9  H    0.241242
    10  H    0.157597
    11  H    0.237785
    12  H    0.156208
    13  H    0.278594
    14  H    0.087659
    15  H   -0.039724
 Sum of Mulliken charges =  -0.00000

 Dipole moment (field-independent basis, Debye):
    X=             -2.2022    Y=              0.0730    Z=              7.4225  Tot=              7.7426

 Test job not archived.
 1\1\GINC-SE174\SP\RHF\Aug-CC-pVDZ\C5H8N2\OHZDE\09-Apr-2025\0\\#t hf au
 g-cc-pvdz iop(5/13=1,5/36=2,99/5=2) pseudo=read geom=check guess=(read
 ,tcheck) scf=(maxcycle=1)\\title\\0,1\C,0,-0.50741632,1.49559223,-0.34
 127993\C,0,-0.04550865,0.14898701,0.20708139\C,0,-1.19725853,-0.675341
 08,0.77436409\N,0,0.6354333,-0.61754385,-0.86109531\C,0,1.8544296,-0.8
 2048073,-0.4957924\C,0,2.14869927,-0.22014526,0.8532949\N,0,0.9967007,
 0.31791778,1.18296952\H,0,-0.91295809,2.08176331,0.48141519\H,0,-1.282
 88249,1.37278226,-1.10072319\H,0,0.33647412,2.03956588,-0.76593964\H,0

 Normal termination of Gaussian 16 at Wed Apr  9 18:04:18 2025.
