 Gaussian 16, Revision C.01,

 ----------------------------------------------------------------------
 #t hf aug-cc-pvdz symm=none int=(grid=ultrafine) guess=(read,tcheck) s
 table=(opt,rrhf)
 ----------------------------------------------------------------------
 -----
 title
 -----
 Symbolic Z-matrix:
 Charge =  0 Multiplicity = 1

 SCF Done:  E(RHF) =  -232.008938190     A.U. after   15 cycles

 1\1\GINC-SE186\Stability\RHF\Aug-CC-pVDZ\C4H10O1\OHZDE\09-Apr-2025\0\\
 #t hf aug-cc-pvdz symm=none int=(grid=ultrafine) guess=(read,tcheck) s
 table=(opt,rrhf)\\title\\0,1\C,0,2.04859374,-0.42231614,-0.46980419\O,
 0,0.6905072,-0.86024344,-0.63145236\C,0,-0.20170034,0.15135489,-0.7086
 7154\C,0,-1.58339293,-0.39827533,-0.94619961\C,0,-0.50134384,0.8253652
 8,1.57790192\H,0,2.67837294,-1.31498232,-0.54967504\H,0,2.17191167,0.0
 3448715,0.52363007\H,0,2.313663,0.30970284,-1.24388666\H,0,-0.10201444
 ,1.00664205,0.12571214\H,0,-1.83215885,-1.27286705,-0.32162796\H,0,-1.

 Normal termination of Gaussian 16 at Wed Apr  9 03:08:55 2025.
 Gaussian 16:  ES64L-G16RevC.01  3-Jul-2019

 ----------------------------------------------------------------------
 #t hf aug-cc-pvdz iop(5/13=1,5/36=2,99/5=2) pseudo=read geom=check gue
 ss=(read,tcheck) scf=(maxcycle=1)
 ----------------------------------------------------------------------
 -----
 title
 -----
 Structure from the checkpoint file:  "Grambow2020_b97d3_006608_forward_mol1.chk"
 Charge =  0 Multiplicity = 1

                         Standard orientation:
 ---------------------------------------------------------------------
 Center     Atomic      Atomic             Coordinates (Angstroms)
 Number     Number       Type             X           Y           Z
 ---------------------------------------------------------------------
      1          6           0        1.991237    0.243348   -0.077980
      2          8           0        0.854601   -0.518804    0.357327
      3          6           0       -0.209308   -0.430000   -0.470646
      4          6           0       -1.323615   -1.312153    0.027061
      5          6           0       -1.191494    1.690898    0.085770
      6          1           0        2.816549   -0.010085    0.596174
      7          1           0        1.764148    1.317443   -0.003556
      8          1           0        2.248526   -0.004521   -1.116094
      9          1           0       -0.516355    0.676013   -0.817212
     10          1           0       -1.496253   -1.246860    1.114635
     11          1           0       -1.051681   -2.356751   -0.194098
     12          1           0       -2.255030   -1.084623   -0.503929
     13          1           0       -2.261877    1.559768   -0.092258
     14          1           0       -0.782349    2.604859   -0.356199
     15          1           0       -0.903397    1.542635    1.128695
 ---------------------------------------------------------------------

 SCF Done:  E(RHF) =  -232.259127550     A.U. after    2 cycles

 The electronic state is 1-A.
 Alpha  occ. eigenvalues --  -20.58305 -11.31109 -11.29506 -11.23589 -11.22940
 Alpha  occ. eigenvalues --   -1.50154  -1.03327  -0.93813  -0.91587  -0.79942
 Alpha  occ. eigenvalues --   -0.67807  -0.65393  -0.64651  -0.57956  -0.55740
 Alpha  occ. eigenvalues --   -0.55413  -0.54341  -0.53719  -0.50796  -0.47319
 Alpha  occ. eigenvalues --   -0.28358
 Alpha virt. eigenvalues --    0.03729   0.04140   0.04266   0.04425   0.06142
 Alpha virt. eigenvalues --    0.06759   0.06940   0.07701   0.07847   0.09754
 Alpha virt. eigenvalues --    0.10387   0.12506   0.14165   0.14841   0.15209

 Mulliken charges:
               1
     1  C    0.174717
     2  O   -1.269191
     3  C    0.489712
     4  C   -0.497673
     5  C   -0.644070
     6  H    0.012756
     7  H    0.199624
     8  H    0.193016
     9  H    0.603836
    10  H    0.192567
    11  H    0.174524
    12  H    0.196403
    13  H    0.037840
    14  H   -0.012567
    15  H    0.148506
 Sum of Mulliken charges =  -0.00000

 Dipole moment (field-independent basis, Debye):
    X=              0.8152    Y=             -0.0499    Z=             -0.0908  Tot=              0.8218

 Test job not archived.
 1\1\GINC-SE186\SP\RHF\Aug-CC-pVDZ\C4H10O1\OHZDE\09-Apr-2025\0\\#t hf a
 ug-cc-pvdz iop(5/13=1,5/36=2,99/5=2) pseudo=read geom=check guess=(rea
 d,tcheck) scf=(maxcycle=1)\\title\\0,1\C,0,2.04859374,-0.42231614,-0.4
 6980419\O,0,0.6905072,-0.86024344,-0.63145236\C,0,-0.20170034,0.151354
 89,-0.70867154\C,0,-1.58339293,-0.39827533,-0.94619961\C,0,-0.50134384
 ,0.82536528,1.57790192\H,0,2.67837294,-1.31498232,-0.54967504\H,0,2.17
 191167,0.03448715,0.52363007\H,0,2.313663,0.30970284,-1.24388666\H,0,-
 0.10201444,1.00664205,0.12571214\H,0,-1.83215885,-1.27286705,-0.321627

 Normal termination of Gaussian 16 at Wed Apr  9 03:08:59 2025.
