 Gaussian 16, Revision C.01,

 ----------------------------------------------------------------------
 #t hf aug-cc-pvdz symm=none int=(grid=ultrafine) guess=(read,tcheck) s
 table=(opt,rrhf)
 ----------------------------------------------------------------------
 -----
 title
 -----
 Symbolic Z-matrix:
 Charge =  0 Multiplicity = 1

 SCF Done:  E(RHF) =  -322.639130821     A.U. after   13 cycles
 Normal termination of Gaussian 16 at Wed Apr  9 03:52:36 2025.
 Gaussian 16:  ES64L-G16RevC.01  3-Jul-2019

 ----------------------------------------------------------------------
 #t hf aug-cc-pvdz iop(5/13=1,5/36=2,99/5=2) pseudo=read geom=check gue
 ss=(read,tcheck) scf=(maxcycle=1)
 ----------------------------------------------------------------------
 -----
 title
 -----
 Structure from the checkpoint file:  "Grambow2020_wb97xd3_008248_reverse_mol2.chk"
 Charge =  0 Multiplicity = 1

                         Standard orientation:
 ---------------------------------------------------------------------
 Center     Atomic      Atomic             Coordinates (Angstroms)
 Number     Number       Type             X           Y           Z
 ---------------------------------------------------------------------
      1          6           0        2.118223    0.432568   -0.296236
      2          6           0        0.752699   -0.106067   -0.103649
      3          7           0        0.006462   -0.295254    1.127305
      4          6           0        0.037130   -1.387527    0.096635
      5          6           0       -1.260132   -0.939737   -0.570645
      6          6           0       -0.645472    0.358542   -0.061610
      7          8           0       -1.074500    1.643398   -0.056109
      8          1           0        2.405328    0.410960   -1.348253
      9          1           0        2.840340   -0.153117    0.274227
     10          1           0        2.160400    1.464518    0.054369
     11          1           0       -1.801842    1.726835    0.565853
     12          1           0        0.443628   -2.358510    0.335813
     13          1           0       -2.171504   -1.260436   -0.058734
     14          1           0       -1.340265   -1.057331   -1.652504
 ---------------------------------------------------------------------

 SCF Done:  E(RHF) =  -322.977239920     A.U. after    2 cycles

 The electronic state is 1-A.
 Alpha  occ. eigenvalues --  -20.57557 -15.50690 -11.32998 -11.27732 -11.27386
 Alpha  occ. eigenvalues --  -11.24750 -11.24257  -1.49581  -1.36635  -1.02323
 Alpha  occ. eigenvalues --   -0.99092  -0.90465  -0.83053  -0.75877  -0.72377
 Alpha  occ. eigenvalues --   -0.64899  -0.64229  -0.60027  -0.58937  -0.58196
 Alpha  occ. eigenvalues --   -0.56252  -0.53086  -0.47903  -0.44061  -0.42106
 Alpha  occ. eigenvalues --   -0.41185
 Alpha virt. eigenvalues --    0.03671   0.03898   0.04274   0.04507   0.05603
 Alpha virt. eigenvalues --    0.06450   0.06560   0.09366   0.10603   0.12140
 Alpha virt. eigenvalues --    0.12739   0.13197   0.13776   0.14979   0.15291

 Mulliken charges:
               1
     1  C   -0.661769
     2  C   -0.464093
     3  N    0.351037
     4  C    0.151941
     5  C   -0.212581
     6  C    1.408930
     7  O   -1.545211
     8  H    0.262664
     9  H    0.268647
    10  H    0.267578
    11  H    0.186245
    12  H   -0.258809
    13  H    0.144134
    14  H    0.101287
 Sum of Mulliken charges =  -0.00000

 Dipole moment (field-independent basis, Debye):
    X=             -0.3278    Y=             -0.9068    Z=             -1.5441  Tot=              1.8204

 Test job not archived.
 1\1\GINC-SE184\SP\RHF\Aug-CC-pVDZ\C5H7N1O1\OHZDE\09-Apr-2025\0\\#t hf
 aug-cc-pvdz iop(5/13=1,5/36=2,99/5=2) pseudo=read geom=check guess=(re
 ad,tcheck) scf=(maxcycle=1)\\title\\0,1\C,0,-2.01077395,0.19643276,0.1
 462608\C,0,-0.53488454,0.09277573,0.19990892\N,0,0.29086772,-0.9435198
 6,0.79331654\C,0,0.61948171,0.5024718,1.03290371\C,0,1.61637097,0.5768
 1423,-0.1200713\C,0,0.58605301,-0.44090388,-0.59456931\O,0,0.50003732,
 -1.22212627,-1.69785587\H,0,-2.32316074,1.12053694,-0.34167643\H,0,-2.
 42878065,0.17563784,1.15360664\H,0,-2.41958678,-0.64668708,-0.41199146

 Normal termination of Gaussian 16 at Wed Apr  9 03:52:40 2025.
