 Gaussian 16, Revision C.01,

 ----------------------------------------------------------------------
 #t hf aug-cc-pvdz symm=none int=(grid=ultrafine) guess=(read,tcheck) s
 table=(opt,rrhf)
 ----------------------------------------------------------------------
 -----
 title
 -----
 Symbolic Z-matrix:
 Charge =  0 Multiplicity = 1

 SCF Done:  E(RHF) =  -380.765641548     A.U. after   13 cycles
 Normal termination of Gaussian 16 at Wed Apr  9 18:23:19 2025.
 Gaussian 16:  ES64L-G16RevC.01  3-Jul-2019

 ----------------------------------------------------------------------
 #t hf aug-cc-pvdz iop(5/13=1,5/36=2,99/5=2) pseudo=read geom=check gue
 ss=(read,tcheck) scf=(maxcycle=1)
 ----------------------------------------------------------------------
 -----
 title
 -----
 Structure from the checkpoint file:  "Grambow2020_wb97xd3_007510_forward_mol2.chk"
 Charge =  0 Multiplicity = 1

                         Standard orientation:
 ---------------------------------------------------------------------
 Center     Atomic      Atomic             Coordinates (Angstroms)
 Number     Number       Type             X           Y           Z
 ---------------------------------------------------------------------
      1          8           0        1.904328   -1.098964   -0.482880
      2          6           0        2.046589    0.233454   -0.024776
      3          6           0        0.878982    0.514266    0.902464
      4          6           0       -0.425613    0.461483    0.140948
      5          8           0       -0.669377    1.223503   -0.764534
      6          6           0       -1.428045   -0.594585    0.528461
      7          8           0       -2.584023   -0.524994   -0.241842
      8          1           0        2.505926   -1.249350   -1.212598
      9          1           0        2.022129    0.944533   -0.857214
     10          1           0        2.989616    0.363271    0.518770
     11          1           0        0.980524    1.517195    1.323542
     12          1           0        0.878305   -0.207938    1.721901
     13          1           0       -0.923945   -1.565855    0.420658
     14          1           0       -1.657695   -0.472218    1.596411
     15          1           0       -2.433765    0.186288   -0.880013
 ---------------------------------------------------------------------

 SCF Done:  E(RHF) =  -381.154837935     A.U. after    2 cycles

 The electronic state is 1-A.
 Alpha  occ. eigenvalues --  -20.56521 -20.54987 -20.54371 -11.34744 -11.30570
 Alpha  occ. eigenvalues --  -11.29551 -11.25784  -1.49686  -1.46897  -1.44798
 Alpha  occ. eigenvalues --   -1.07982  -0.98689  -0.87960  -0.77187  -0.73278
 Alpha  occ. eigenvalues --   -0.72162  -0.67429  -0.65831  -0.63441  -0.60290
 Alpha  occ. eigenvalues --   -0.58675  -0.57991  -0.53782  -0.51619  -0.50338
 Alpha  occ. eigenvalues --   -0.46320  -0.44367  -0.42414
 Alpha virt. eigenvalues --    0.02991   0.03497   0.04253   0.04672   0.06482
 Alpha virt. eigenvalues --    0.06595   0.06887   0.07421   0.10693   0.11875
 Alpha virt. eigenvalues --    0.12958   0.13196   0.13916   0.14517   0.15311

 Mulliken charges:
               1
     1  O   -1.150194
     2  C    0.642233
     3  C   -0.347921
     4  C    1.071656
     5  O   -1.471335
     6  C    0.681164
     7  O   -1.211299
     8  H    0.310667
     9  H    0.148906
    10  H    0.099648
    11  H    0.254687
    12  H    0.134235
    13  H    0.283948
    14  H    0.250327
    15  H    0.303279
 Sum of Mulliken charges =  -0.00000

 Dipole moment (field-independent basis, Debye):
    X=              3.6156    Y=              0.2528    Z=              1.2997  Tot=              3.8504

 Test job not archived.
 1\1\GINC-SE105\SP\RHF\Aug-CC-pVDZ\C4H8O3\OHZDE\09-Apr-2025\0\\#t hf au
 g-cc-pvdz iop(5/13=1,5/36=2,99/5=2) pseudo=read geom=check guess=(read
 ,tcheck) scf=(maxcycle=1)\\title\\0,1\O,0,-1.23078617,1.63685817,0.020
 30346\C,0,-1.61406963,0.34948997,-0.42826296\C,0,-0.85172559,-0.660649
 3,0.40862666\C,0,0.63371246,-0.54453018,0.1543578\O,0,1.11420432,-0.74
 734429,-0.93559\C,0,1.51873205,-0.14337268,1.30593511\O,0,2.85894812,-
 0.08460876,0.93870147\H,0,-1.53801127,2.29472146,-0.60407864\H,0,-1.36
 044057,0.20468156,-1.48367189\H,0,-2.69201329,0.19478006,-0.30297442\H

 Normal termination of Gaussian 16 at Wed Apr  9 18:23:24 2025.
