 Gaussian 16, Revision C.01,

 ----------------------------------------------------------------------
 #t hf aug-cc-pvdz symm=none int=(grid=ultrafine) guess=(read,tcheck) s
 table=(opt,rrhf)
 ----------------------------------------------------------------------
 -----
 title
 -----
 Symbolic Z-matrix:
 Charge =  0 Multiplicity = 1

 SCF Done:  E(RHF) =  -323.713625660     A.U. after   15 cycles
 Normal termination of Gaussian 16 at Wed Apr  9 18:28:52 2025.
 Gaussian 16:  ES64L-G16RevC.01  3-Jul-2019

 ----------------------------------------------------------------------
 #t hf aug-cc-pvdz iop(5/13=1,5/36=2,99/5=2) pseudo=read geom=check gue
 ss=(read,tcheck) scf=(maxcycle=1)
 ----------------------------------------------------------------------
 -----
 title
 -----
 Structure from the checkpoint file:  "Grambow2020_wb97xd3_007612_forward_mol1.chk"
 Charge =  0 Multiplicity = 1

                         Standard orientation:
 ---------------------------------------------------------------------
 Center     Atomic      Atomic             Coordinates (Angstroms)
 Number     Number       Type             X           Y           Z
 ---------------------------------------------------------------------
      1          6           0       -2.653413   -0.901972   -0.164277
      2          6           0       -1.674137    0.183872   -0.507432
      3          7           0       -1.322971    1.132227    0.583092
      4          6           0       -0.339004    0.236679    0.075537
      5          6           0        0.649546   -0.515510    0.653593
      6          6           0        2.370894    0.150753   -0.252987
      7          8           0        3.415809   -0.293291   -0.159420
      8          1           0       -2.481918   -1.254373    0.852851
      9          1           0       -3.678731   -0.533226   -0.235334
     10          1           0       -2.547204   -1.745901   -0.849236
     11          1           0       -1.795038    0.620064   -1.495969
     12          1           0       -1.218853    2.078147    0.234699
     13          1           0        0.462939    1.028628   -0.998898
     14          1           0        0.789291   -1.540913    0.331981
     15          1           0        0.974490   -0.280519    1.659742
     16          1           0        1.306025    1.125892   -1.132734
 ---------------------------------------------------------------------

 SCF Done:  E(RHF) =  -324.051032194     A.U. after    2 cycles

 The electronic state is 1-A.
 Alpha  occ. eigenvalues --  -20.62049 -15.51238 -11.36395 -11.28907 -11.28375
 Alpha  occ. eigenvalues --  -11.25242 -11.23403  -1.57299  -1.28813  -1.02190
 Alpha  occ. eigenvalues --   -1.00793  -0.86809  -0.79765  -0.77115  -0.73709
 Alpha  occ. eigenvalues --   -0.66459  -0.63911  -0.63745  -0.61389  -0.60303
 Alpha  occ. eigenvalues --   -0.58459  -0.56138  -0.51414  -0.50097  -0.45451
 Alpha  occ. eigenvalues --   -0.43647  -0.33154
 Alpha virt. eigenvalues --    0.03395   0.03918   0.04194   0.04630   0.05698
 Alpha virt. eigenvalues --    0.06186   0.06677   0.06836   0.09559   0.10138
 Alpha virt. eigenvalues --    0.11092   0.11663   0.12250   0.13532   0.13861

 Mulliken charges:
               1
     1  C   -0.392961
     2  C   -0.406305
     3  N    0.529776
     4  C   -0.323271
     5  C   -0.606972
     6  C    0.695895
     7  O   -0.858510
     8  H    0.207751
     9  H    0.209163
    10  H    0.266654
    11  H   -0.147251
    12  H    0.288158
    13  H    0.322557
    14  H    0.051997
    15  H    0.080425
    16  H    0.082894
 Sum of Mulliken charges =   0.00000

 Dipole moment (field-independent basis, Debye):
    X=             -1.0449    Y=             -0.3553    Z=             -1.1669  Tot=              1.6061

 Test job not archived.
 1\1\GINC-SE173\SP\RHF\Aug-CC-pVDZ\C5H9N1O1\OHZDE\09-Apr-2025\0\\#t hf
 aug-cc-pvdz iop(5/13=1,5/36=2,99/5=2) pseudo=read geom=check guess=(re
 ad,tcheck) scf=(maxcycle=1)\\title\\0,1\C,0,-1.98247907,0.35320503,1.2
 1982979\C,0,-1.30671998,0.04538401,-0.08569352\N,0,-0.69797257,1.19468
 63,-0.80712775\C,0,0.13444132,0.17566312,-0.26261972\C,0,1.33669783,0.
 18117683,0.39443346\C,0,2.54976634,-0.98675853,-0.78591505\O,0,3.60188
 587,-1.35131027,-0.54524141\H,0,-1.42881998,1.12359914,1.75658007\H,0,
 -3.00048991,0.7108134,1.0522919\H,0,-2.03447453,-0.54018796,1.84577724

 Normal termination of Gaussian 16 at Wed Apr  9 18:28:58 2025.
