 Gaussian 16, Revision C.01,

 ----------------------------------------------------------------------
 #t hf aug-cc-pvdz symm=none int=(grid=ultrafine) guess=(read,tcheck) s
 table=(opt,rrhf)
 ----------------------------------------------------------------------
 -----
 title
 -----
 Symbolic Z-matrix:
 Charge =  0 Multiplicity = 1

 SCF Done:  E(RHF) =  -267.562158382     A.U. after   15 cycles
 Normal termination of Gaussian 16 at Wed Apr  9 15:50:40 2025.
 Gaussian 16:  ES64L-G16RevC.01  3-Jul-2019

 ----------------------------------------------------------------------
 #t hf aug-cc-pvdz iop(5/13=1,5/36=2,99/5=2) pseudo=read geom=check gue
 ss=(read,tcheck) scf=(maxcycle=1)
 ----------------------------------------------------------------------
 -----
 title
 -----
 Structure from the checkpoint file:  "Grambow2020_b97d3_006841_reverse_mol2.chk"
 Charge =  0 Multiplicity = 1

                         Standard orientation:
 ---------------------------------------------------------------------
 Center     Atomic      Atomic             Coordinates (Angstroms)
 Number     Number       Type             X           Y           Z
 ---------------------------------------------------------------------
      1          6           0       -2.935471    0.313898   -0.000549
      2          6           0       -1.539460   -0.093227   -0.005787
      3          6           0       -0.349491   -0.430439   -0.003577
      4          6           0        0.873076   -1.141105    0.000162
      5          6           0        1.971238    1.039106   -0.000540
      6          8           0        1.990228   -0.437238    0.002949
      7          1           0       -3.071608    1.375870   -0.258905
      8          1           0       -3.528700   -0.295197   -0.700795
      9          1           0       -3.362786    0.154544    1.002484
     10          1           0        1.459707    1.388191   -0.904352
     11          1           0        1.442915    1.393223    0.891598
     12          1           0        3.019299    1.351874    0.008124
 ---------------------------------------------------------------------

 SCF Done:  E(RHF) =  -267.833421288     A.U. after    2 cycles

 The electronic state is 1-A.
 Alpha  occ. eigenvalues --  -20.60550 -11.31434 -11.30659 -11.28065 -11.27841
 Alpha  occ. eigenvalues --  -11.24443  -1.51226  -1.08092  -1.00532  -0.97503
 Alpha  occ. eigenvalues --   -0.86874  -0.71345  -0.66171  -0.65425  -0.64767
 Alpha  occ. eigenvalues --   -0.61188  -0.60856  -0.53953  -0.51431  -0.43522
 Alpha  occ. eigenvalues --   -0.40829  -0.33433
 Alpha virt. eigenvalues --    0.02789   0.03722   0.04436   0.04890   0.06396
 Alpha virt. eigenvalues --    0.06420   0.06787   0.08118   0.10099   0.11418
 Alpha virt. eigenvalues --    0.12313   0.12983   0.14494   0.14884   0.14975

 Mulliken charges:
               1
     1  C   -0.665945
     2  C   -0.211450
     3  C    0.522614
     4  C    0.033909
     5  C    0.262830
     6  O   -1.133689
     7  H    0.242115
     8  H    0.266480
     9  H    0.275387
    10  H    0.199048
    11  H    0.198322
    12  H    0.010378
 Sum of Mulliken charges =  -0.00000

 Dipole moment (field-independent basis, Debye):
    X=             -2.1669    Y=              3.9682    Z=              0.0353  Tot=              4.5215

 Test job not archived.
 1\1\GINC-SE042\SP\RHF\Aug-CC-pVDZ\C5H6O1\OHZDE\09-Apr-2025\0\\#t hf au
 g-cc-pvdz iop(5/13=1,5/36=2,99/5=2) pseudo=read geom=check guess=(read
 ,tcheck) scf=(maxcycle=1)\\title\\0,1\C,0,-1.95126357,-1.24623823,1.42
 314319\C,0,-0.71425466,-0.97153642,0.709719\C,0,0.33921115,-0.72822184
 ,0.109095\C,0,1.57800959,-0.80143609,-0.56895251\C,0,1.48338678,1.6343
 8107,-0.69981097\O,0,2.13094934,0.33281541,-0.95779241\H,0,-2.63447519
 ,-0.38255576,1.44160001\H,0,-2.4827169,-2.10312941,0.97979637\H,0,-1.7
 2338264,-1.51689804,2.46663777\H,0,0.50590045,1.65193403,-1.19439433\H

 Normal termination of Gaussian 16 at Wed Apr  9 15:50:44 2025.
