 Gaussian 16, Revision C.01,

 ----------------------------------------------------------------------
 #t hf aug-cc-pvdz symm=none int=(grid=ultrafine) guess=(read,tcheck) s
 table=(opt,rrhf)
 ----------------------------------------------------------------------
 -----
 title
 -----
 Symbolic Z-matrix:
 Charge =  0 Multiplicity = 1

 SCF Done:  E(RHF) =  -355.821629244     A.U. after   16 cycles
 Normal termination of Gaussian 16 at Wed Apr  9 19:15:59 2025.
 Gaussian 16:  ES64L-G16RevC.01  3-Jul-2019

 ----------------------------------------------------------------------
 #t hf aug-cc-pvdz iop(5/13=1,5/36=2,99/5=2) pseudo=read geom=check gue
 ss=(read,tcheck) scf=(maxcycle=1)
 ----------------------------------------------------------------------
 -----
 title
 -----
 Structure from the checkpoint file:  "Grambow2020_wb97xd3_008994_reverse_mol1.chk"
 Charge =  0 Multiplicity = 1

                         Standard orientation:
 ---------------------------------------------------------------------
 Center     Atomic      Atomic             Coordinates (Angstroms)
 Number     Number       Type             X           Y           Z
 ---------------------------------------------------------------------
      1          6           0        2.851508   -0.259980    0.034112
      2          7           0        1.471045   -0.681310   -0.052610
      3          6           0        0.466407    0.240646   -0.021476
      4          8           0        0.639904    1.431296   -0.018808
      5          7           0       -0.809805   -0.357484   -0.032218
      6          6           0       -1.953364    0.318676    0.189653
      7          7           0       -3.042156   -0.459620   -0.021332
      8          1           0        2.962761    0.679430   -0.502626
      9          1           0        3.488896   -1.012305   -0.429383
     10          1           0        3.172599   -0.102613    1.067496
     11          1           0        1.255777   -1.633673    0.181754
     12          1           0       -0.883798   -1.356334   -0.201525
     13          1           0       -2.774409    0.607657   -0.725258
     14          1           0       -3.861951    0.060322    0.289396
 ---------------------------------------------------------------------

 SCF Done:  E(RHF) =  -356.183558826     A.U. after    2 cycles

 The electronic state is 1-A.
 Alpha  occ. eigenvalues --  -20.50748 -15.55222 -15.54296 -15.53173 -11.38979
 Alpha  occ. eigenvalues --  -11.30683 -11.27273  -1.47522  -1.31190  -1.25544
 Alpha  occ. eigenvalues --   -1.20160  -0.98794  -0.88658  -0.82634  -0.80849
 Alpha  occ. eigenvalues --   -0.73502  -0.67994  -0.65215  -0.64585  -0.62355
 Alpha  occ. eigenvalues --   -0.60718  -0.56560  -0.56114  -0.46527  -0.45013
 Alpha  occ. eigenvalues --   -0.42758  -0.37615
 Alpha virt. eigenvalues --    0.02662   0.03968   0.04642   0.05241   0.06194
 Alpha virt. eigenvalues --    0.06453   0.07726   0.08263   0.09783   0.10550
 Alpha virt. eigenvalues --    0.11778   0.12804   0.13646   0.14093   0.14565

 Mulliken charges:
               1
     1  C   -0.275223
     2  N    0.510495
     3  C    0.284775
     4  O   -1.174698
     5  N    0.522676
     6  C   -1.181732
     7  N    0.133564
     8  H    0.130804
     9  H    0.088825
    10  H    0.158471
    11  H    0.073717
    12  H    0.112748
    13  H    0.481477
    14  H    0.134102
 Sum of Mulliken charges =  -0.00000

 Dipole moment (field-independent basis, Debye):
    X=              0.3979    Y=             -3.2778    Z=             -0.2374  Tot=              3.3104

 Test job not archived.
 1\1\GINC-SE048\SP\RHF\Aug-CC-pVDZ\C3H7N3O1\OHZDE\09-Apr-2025\0\\#t hf
 aug-cc-pvdz iop(5/13=1,5/36=2,99/5=2) pseudo=read geom=check guess=(re
 ad,tcheck) scf=(maxcycle=1)\\title\\0,1\C,0,2.61951765,0.17998199,0.09
 776972\N,0,1.23295711,-0.09618047,0.40091947\C,0,0.26644573,0.12207139
 ,-0.53636015\O,0,0.48693052,0.45313662,-1.67193823\N,0,-1.02871907,-0.
 12225006,-0.03691385\C,0,-2.15713602,0.20566146,-0.69516588\N,0,-3.258
 46784,-0.26857234,-0.06437384\H,0,2.80632419,-0.07856984,-0.94204294\H
 ,0,3.25762016,-0.43005784,0.73633108\H,0,2.87221346,1.2346278,0.237819

 Normal termination of Gaussian 16 at Wed Apr  9 19:16:03 2025.
