 Gaussian 16, Revision C.01,

 ----------------------------------------------------------------------
 #t hf aug-cc-pvdz symm=none int=(grid=ultrafine) guess=(read,tcheck) s
 table=(opt,rrhf)
 ----------------------------------------------------------------------
 -----
 title
 -----
 Symbolic Z-matrix:
 Charge =  0 Multiplicity = 1

 SCF Done:  E(RHF) =  -305.654903893     A.U. after   15 cycles
 Normal termination of Gaussian 16 at Wed Apr  9 16:59:12 2025.
 Gaussian 16:  ES64L-G16RevC.01  3-Jul-2019

 ----------------------------------------------------------------------
 #t hf aug-cc-pvdz iop(5/13=1,5/36=2,99/5=2) pseudo=read geom=check gue
 ss=(read,tcheck) scf=(maxcycle=1)
 ----------------------------------------------------------------------
 -----
 title
 -----
 Structure from the checkpoint file:  "Grambow2020_wb97xd3_006214_forward_mol1.chk"
 Charge =  0 Multiplicity = 1

                         Standard orientation:
 ---------------------------------------------------------------------
 Center     Atomic      Atomic             Coordinates (Angstroms)
 Number     Number       Type             X           Y           Z
 ---------------------------------------------------------------------
      1          6           0        2.270332    0.140580   -0.158543
      2          8           0        1.070689   -0.559620   -0.362088
      3          6           0        0.055030   -0.201686    0.580305
      4          6           0       -0.599338    1.099207    0.300907
      5          6           0       -1.270197   -0.751834    0.455477
      6          8           0       -1.874380    0.092908   -0.614579
      7          1           0        2.697843   -0.073277    0.830371
      8          1           0        2.137651    1.228769   -0.243415
      9          1           0        2.975337   -0.180340   -0.924306
     10          1           0        0.443437   -0.265935    1.605622
     11          1           0       -0.349438    1.680482   -0.584337
     12          1           0       -1.065933    1.639173    1.112592
     13          1           0       -1.544784   -1.797745    0.446031
     14          1           0       -1.599553   -0.215033   -1.498094
 ---------------------------------------------------------------------

 SCF Done:  E(RHF) =  -305.970657249     A.U. after    2 cycles

 The electronic state is 1-A.
 Alpha  occ. eigenvalues --  -20.58708 -20.54255 -11.36588 -11.29318 -11.28524
 Alpha  occ. eigenvalues --  -11.20616  -1.47510  -1.45358  -1.09125  -0.94379
 Alpha  occ. eigenvalues --   -0.89154  -0.79273  -0.71327  -0.68821  -0.67313
 Alpha  occ. eigenvalues --   -0.63964  -0.62129  -0.59700  -0.56216  -0.52730
 Alpha  occ. eigenvalues --   -0.49037  -0.45275  -0.42654  -0.26517
 Alpha virt. eigenvalues --    0.02813   0.03585   0.04039   0.04736   0.06155
 Alpha virt. eigenvalues --    0.06556   0.07111   0.07877   0.08589   0.11279
 Alpha virt. eigenvalues --    0.12438   0.13451   0.13949   0.14499   0.15202

 Mulliken charges:
               1
     1  C    0.070439
     2  O   -1.423177
     3  C    1.108323
     4  C    0.135179
     5  C    0.517617
     6  O   -1.062159
     7  H    0.162129
     8  H    0.171662
     9  H   -0.032580
    10  H    0.187637
    11  H   -0.018422
    12  H    0.015767
    13  H   -0.154157
    14  H    0.321741
 Sum of Mulliken charges =  -0.00000

 Dipole moment (field-independent basis, Debye):
    X=              2.1696    Y=              2.9729    Z=             -0.8896  Tot=              3.7864

 Test job not archived.
 1\1\GINC-SE163\SP\RHF\Aug-CC-pVDZ\C4H8O2\OHZDE\09-Apr-2025\0\\#t hf au
 g-cc-pvdz iop(5/13=1,5/36=2,99/5=2) pseudo=read geom=check guess=(read
 ,tcheck) scf=(maxcycle=1)\\title\\0,1\C,0,1.58663156,-0.58295229,-1.14
 291069\O,0,0.37979975,0.13253609,-1.09301674\C,0,-0.51566341,-0.363057
 82,-0.09285862\C,0,-0.16250404,0.03976186,1.28974625\C,0,-1.75961389,0
 .3168805,0.16158757\O,0,-1.33581586,1.46283758,1.01646972\H,0,1.418073
 85,-1.63847322,-1.39572463\H,0,2.13378002,-0.54484556,-0.18994751\H,0,
 2.20838546,-0.13058101,-1.91440034\H,0,-0.64210488,-1.44920865,-0.1955

 Normal termination of Gaussian 16 at Wed Apr  9 16:59:16 2025.
