 Gaussian 16, Revision C.01,

 ----------------------------------------------------------------------
 #t hf aug-cc-pvdz symm=none int=(grid=ultrafine) guess=(read,tcheck) s
 table=(opt,rrhf)
 ----------------------------------------------------------------------
 -----
 title
 -----
 Symbolic Z-matrix:
 Charge =  0 Multiplicity = 1

 SCF Done:  E(RHF) =  -333.622851953     A.U. after   15 cycles
 Normal termination of Gaussian 16 at Wed Apr  9 03:33:09 2025.
 Gaussian 16:  ES64L-G16RevC.01  3-Jul-2019

 ----------------------------------------------------------------------
 #t hf aug-cc-pvdz iop(5/13=1,5/36=2,99/5=2) pseudo=read geom=check gue
 ss=(read,tcheck) scf=(maxcycle=1)
 ----------------------------------------------------------------------
 -----
 title
 -----
 Structure from the checkpoint file:  "Grambow2020_wb97xd3_006985_reverse_mol2.chk"
 Charge =  0 Multiplicity = 1

                         Standard orientation:
 ---------------------------------------------------------------------
 Center     Atomic      Atomic             Coordinates (Angstroms)
 Number     Number       Type             X           Y           Z
 ---------------------------------------------------------------------
      1          7           0       -2.089345   -0.003352   -0.439383
      2          6           0       -0.751696    0.027046   -0.120697
      3          6           0        0.319822    1.043770    0.034542
      4          7           0        1.583580    0.570532   -0.454670
      5          6           0        1.441666   -0.675844   -0.283674
      6          7           0        0.188344   -1.050383    0.293866
      7          7           0       -0.172278    0.164839    1.145767
      8          1           0       -2.277351   -0.260685   -1.395126
      9          1           0       -2.639544   -0.541251    0.214353
     10          1           0        0.127056    2.103107    0.125394
     11          1           0        2.158981   -1.442445   -0.544709
 ---------------------------------------------------------------------

 SCF Done:  E(RHF) =  -333.965463905     A.U. after    2 cycles

 The electronic state is 1-A.
 Alpha  occ. eigenvalues --  -15.56931 -15.56105 -15.53214 -15.51338 -11.35547
 Alpha  occ. eigenvalues --  -11.32580 -11.32342  -1.45684  -1.25841  -1.21625
 Alpha  occ. eigenvalues --   -1.11599  -0.90706  -0.86681  -0.85382  -0.77549
 Alpha  occ. eigenvalues --   -0.73866  -0.71163  -0.62611  -0.58908  -0.58418
 Alpha  occ. eigenvalues --   -0.54996  -0.51951  -0.49631  -0.47186  -0.42250
 Alpha virt. eigenvalues --    0.02853   0.04347   0.05077   0.05462   0.07321
 Alpha virt. eigenvalues --    0.09028   0.09652   0.10157   0.10708   0.11635
 Alpha virt. eigenvalues --    0.12638   0.13794   0.14205   0.15806   0.16310

 Mulliken charges:
               1
     1  N    0.831420
     2  C   -2.213034
     3  C    0.070669
     4  N    0.529378
     5  C   -0.423398
     6  N    0.388260
     7  N    0.394135
     8  H    0.245930
     9  H    0.274467
    10  H   -0.108815
    11  H    0.010988
 Sum of Mulliken charges =   0.00000

 Dipole moment (field-independent basis, Debye):
    X=             -1.8829    Y=             -0.8469    Z=             -2.1298  Tot=              2.9662

 Test job not archived.
 1\1\GINC-SE083\SP\RHF\Aug-CC-pVDZ\C3H4N4\OHZDE\09-Apr-2025\0\\#t hf au
 g-cc-pvdz iop(5/13=1,5/36=2,99/5=2) pseudo=read geom=check guess=(read
 ,tcheck) scf=(maxcycle=1)\\title\\0,1\N,0,1.79015606,-0.59410755,-0.31
 061106\C,0,0.49503204,-0.15623694,-0.15990424\C,0,-0.20713582,1.110265
 05,0.17010725\N,0,-1.36117565,0.88523204,0.99346651\C,0,-1.66638959,-0
 .29179579,0.64092815\N,0,-0.80906672,-0.84580842,-0.36042817\N,0,-0.34
 833436,0.38658674,-1.1359769\H,0,2.15299879,-1.08463546,0.49109948\H,0
 ,1.9372276,-1.10628331,-1.16820678\H,0,0.26949946,2.07968091,0.1443984

 Normal termination of Gaussian 16 at Wed Apr  9 03:33:14 2025.
