 Gaussian 16, Revision C.01,

 ----------------------------------------------------------------------
 #t hf aug-cc-pvdz symm=none int=(grid=ultrafine) guess=(read,tcheck) s
 table=(opt,rrhf)
 ----------------------------------------------------------------------
 -----
 title
 -----
 Symbolic Z-matrix:
 Charge =  0 Multiplicity = 1

 SCF Done:  E(RHF) =  -358.550212086     A.U. after   15 cycles
 Normal termination of Gaussian 16 at Wed Apr  9 17:41:18 2025.
 Gaussian 16:  ES64L-G16RevC.01  3-Jul-2019

 ----------------------------------------------------------------------
 #t hf aug-cc-pvdz iop(5/13=1,5/36=2,99/5=2) pseudo=read geom=check gue
 ss=(read,tcheck) scf=(maxcycle=1)
 ----------------------------------------------------------------------
 -----
 title
 -----
 Structure from the checkpoint file:  "Grambow2020_wb97xd3_006777_forward_mol2.chk"
 Charge =  0 Multiplicity = 1

                         Standard orientation:
 ---------------------------------------------------------------------
 Center     Atomic      Atomic             Coordinates (Angstroms)
 Number     Number       Type             X           Y           Z
 ---------------------------------------------------------------------
      1          8           0       -2.612439   -0.689135    0.061314
      2          6           0       -1.457262   -0.450226    0.267303
      3          6           0       -0.716034    0.665661   -0.382468
      4          6           0        0.290183    1.379174    0.484510
      5          7           0        0.708907    0.524669   -0.571801
      6          6           0        1.435943   -0.641603   -0.392418
      7          8           0        2.341589   -0.758021    0.384919
      8          1           0       -0.856891   -1.053329    0.983652
      9          1           0       -1.260448    1.210857   -1.144541
     10          1           0        0.433443    1.019680    1.499356
     11          1           0        0.432613    2.441879    0.334466
     12          1           0        1.138750   -1.432561   -1.101752
 ---------------------------------------------------------------------

 SCF Done:  E(RHF) =  -358.909568455     A.U. after    2 cycles

 The electronic state is 1-A.
 Alpha  occ. eigenvalues --  -20.57207 -20.55424 -15.55895 -11.38522 -11.36856
 Alpha  occ. eigenvalues --  -11.31854 -11.31471  -1.50770  -1.50093  -1.34392
 Alpha  occ. eigenvalues --   -1.05222  -0.96620  -0.86428  -0.81088  -0.76298
 Alpha  occ. eigenvalues --   -0.73093  -0.68709  -0.66805  -0.62504  -0.59435
 Alpha  occ. eigenvalues --   -0.57729  -0.56410  -0.53298  -0.46141  -0.45362
 Alpha  occ. eigenvalues --   -0.43588
 Alpha virt. eigenvalues --    0.03118   0.04187   0.04301   0.05062   0.06091
 Alpha virt. eigenvalues --    0.07987   0.09130   0.09438   0.10173   0.10926
 Alpha virt. eigenvalues --    0.12080   0.13625   0.13731   0.14384   0.14671

 Mulliken charges:
               1
     1  O   -1.154014
     2  C    0.986920
     3  C   -0.295017
     4  C    0.213936
     5  N    0.745730
     6  C    0.679221
     7  O   -1.067180
     8  H    0.103856
     9  H   -0.178219
    10  H   -0.087862
    11  H   -0.062953
    12  H    0.115581
 Sum of Mulliken charges =   0.00000

 Dipole moment (field-independent basis, Debye):
    X=             -0.4180    Y=              1.5719    Z=             -0.1497  Tot=              1.6334

 Test job not archived.
 1\1\GINC-SE114\SP\RHF\Aug-CC-pVDZ\C4H5N1O2\OHZDE\09-Apr-2025\0\\#t hf
 aug-cc-pvdz iop(5/13=1,5/36=2,99/5=2) pseudo=read geom=check guess=(re
 ad,tcheck) scf=(maxcycle=1)\\title\\0,1\O,0,2.67935279,-0.4146608,-0.4
 3065498\C,0,1.48986506,-0.29289113,-0.49573394\C,0,0.67337995,0.404511
 42,0.53567524\C,0,-0.48566225,1.21759394,0.01727105\N,0,-0.7008162,-0.
 00285526,0.71405893\C,0,-1.28841031,-1.12789067,0.15730025\O,0,-2.2360
 8324,-1.09945748,-0.57693915\H,0,0.91028799,-0.69104746,-1.35764835\H,
 0,1.20888124,0.72487079,1.42167188\H,0,-0.669884,1.21646272,-1.0531180

 Normal termination of Gaussian 16 at Wed Apr  9 17:41:23 2025.
