 Gaussian 16, Revision C.01,

 ----------------------------------------------------------------------
 #t hf aug-cc-pvdz symm=none int=(grid=ultrafine) guess=(read,tcheck) s
 table=(opt,rrhf)
 ----------------------------------------------------------------------
 -----
 title
 -----
 Symbolic Z-matrix:
 Charge =  0 Multiplicity = 1

 SCF Done:  E(RHF) =  -302.906014659     A.U. after   14 cycles
 Normal termination of Gaussian 16 at Wed Apr  9 19:12:00 2025.
 Gaussian 16:  ES64L-G16RevC.01  3-Jul-2019

 ----------------------------------------------------------------------
 #t hf aug-cc-pvdz iop(5/13=1,5/36=2,99/5=2) pseudo=read geom=check gue
 ss=(read,tcheck) scf=(maxcycle=1)
 ----------------------------------------------------------------------
 -----
 title
 -----
 Structure from the checkpoint file:  "Grambow2020_wb97xd3_008872_forward_mol2.chk"
 Charge =  0 Multiplicity = 1

                         Standard orientation:
 ---------------------------------------------------------------------
 Center     Atomic      Atomic             Coordinates (Angstroms)
 Number     Number       Type             X           Y           Z
 ---------------------------------------------------------------------
      1          6           0       -2.440445   -0.522022    0.017514
      2          7           0       -1.071263   -0.079146   -0.034437
      3          6           0       -0.656181    1.210780   -0.015135
      4          6           0        0.715519    1.233301    0.015215
      5          6           0        1.153743   -0.115515    0.015377
      6          7           0        2.491314   -0.535551    0.095980
      7          6           0        0.030022   -0.904867   -0.011256
      8          1           0       -3.092707    0.298622   -0.278351
      9          1           0       -2.595271   -1.349822   -0.675431
     10          1           0       -2.720052   -0.845558    1.023178
     11          1           0       -1.365876    2.023097   -0.027153
     12          1           0        1.338324    2.114324    0.032755
     13          1           0        3.121734    0.099410   -0.367898
     14          1           0        2.634577   -1.469472   -0.253992
     15          1           0       -0.077035   -1.977789   -0.014200
 ---------------------------------------------------------------------

 SCF Done:  E(RHF) =  -303.226277881     A.U. after    2 cycles

 The electronic state is 1-A.
 Alpha  occ. eigenvalues --  -15.53340 -15.49104 -11.27656 -11.25265 -11.24760
 Alpha  occ. eigenvalues --  -11.23227 -11.20386  -1.29753  -1.19149  -1.06681
 Alpha  occ. eigenvalues --   -0.97909  -0.93631  -0.79582  -0.77562  -0.72876
 Alpha  occ. eigenvalues --   -0.68473  -0.65214  -0.63960  -0.60680  -0.57629
 Alpha  occ. eigenvalues --   -0.55929  -0.54889  -0.53116  -0.49355  -0.33213
 Alpha  occ. eigenvalues --   -0.29183
 Alpha virt. eigenvalues --    0.03427   0.03889   0.04399   0.05133   0.05332
 Alpha virt. eigenvalues --    0.05424   0.08290   0.08638   0.09840   0.11500
 Alpha virt. eigenvalues --    0.12476   0.12887   0.13285   0.14567   0.14982

 Mulliken charges:
               1
     1  C   -0.337992
     2  N    0.732689
     3  C   -0.626941
     4  C    1.003456
     5  C   -1.203687
     6  N    0.663317
     7  C    0.108170
     8  H    0.045591
     9  H    0.115521
    10  H    0.188777
    11  H   -0.314955
    12  H   -0.199345
    13  H    0.075041
    14  H    0.058379
    15  H   -0.308020
 Sum of Mulliken charges =   0.00000

 Dipole moment (field-independent basis, Debye):
    X=             -1.3659    Y=             -0.4990    Z=             -1.1713  Tot=              1.8673

 Test job not archived.
 1\1\GINC-SE226\SP\RHF\Aug-CC-pVDZ\C5H8N2\OHZDE\09-Apr-2025\0\\#t hf au
 g-cc-pvdz iop(5/13=1,5/36=2,99/5=2) pseudo=read geom=check guess=(read
 ,tcheck) scf=(maxcycle=1)\\title\\0,1\C,0,2.30559823,0.25482523,0.0035
 4271\N,0,0.90064438,-0.06072733,-0.0019021\C,0,0.36680742,-1.29504619,
 0.16557477\C,0,-1.00073199,-1.18516016,0.19300758\C,0,-1.3107837,0.189
 66747,0.03470383\N,0,-2.60257042,0.73978814,0.06074658\C,0,-0.11833583
 ,0.86171349,-0.07912358\H,0,2.87608867,-0.65213863,-0.19240359\H,0,2.5
 3232395,0.97840631,-0.78030823\H,0,2.62134868,0.66524849,0.9658688\H,0

 Normal termination of Gaussian 16 at Wed Apr  9 19:12:05 2025.
