 Gaussian 16, Revision C.01,

 ----------------------------------------------------------------------
 #t hf aug-cc-pvdz symm=none int=(grid=ultrafine) guess=(read,tcheck) s
 table=(opt,rrhf)
 ----------------------------------------------------------------------
 -----
 title
 -----
 Symbolic Z-matrix:
 Charge =  0 Multiplicity = 1

 SCF Done:  E(RHF) =  -270.741000089     A.U. after   15 cycles
 Normal termination of Gaussian 16 at Wed Apr  9 18:56:55 2025.
 Gaussian 16:  ES64L-G16RevC.01  3-Jul-2019

 ----------------------------------------------------------------------
 #t hf aug-cc-pvdz iop(5/13=1,5/36=2,99/5=2) pseudo=read geom=check gue
 ss=(read,tcheck) scf=(maxcycle=1)
 ----------------------------------------------------------------------
 -----
 title
 -----
 Structure from the checkpoint file:  "Grambow2020_wb97xd3_008382_reverse_mol2.chk"
 Charge =  0 Multiplicity = 1

                         Standard orientation:
 ---------------------------------------------------------------------
 Center     Atomic      Atomic             Coordinates (Angstroms)
 Number     Number       Type             X           Y           Z
 ---------------------------------------------------------------------
      1          6           0        2.116655   -0.797192    0.323100
      2          6           0       -1.116662   -0.726798    0.701292
      3          6           0       -1.890365    0.482080    0.685028
      4          6           0       -0.728452    0.459259   -0.461357
      5          6           0       -1.044715   -1.117201   -0.678138
      6          6           0        0.593720    1.129284   -0.332012
      7          6           0        1.781434    0.618973   -0.023779
      8          1           0        2.394378   -1.361903   -0.572395
      9          1           0        2.973891   -0.830558    0.996849
     10          1           0        1.271865   -1.290886    0.804408
     11          1           0       -1.782016    1.164868    1.522491
     12          1           0       -2.846834    0.577691    0.159053
     13          1           0       -1.285331    0.885208   -1.291432
     14          1           0       -0.241210   -1.781885   -0.981969
     15          1           0       -1.918486   -1.164361   -1.337507
     16          1           0        0.551542    2.192248   -0.556640
     17          1           0        2.612513    1.319154   -0.027663
 ---------------------------------------------------------------------

 SCF Done:  E(RHF) =  -271.031538347     A.U. after    2 cycles

 The electronic state is 1-A.
 Alpha  occ. eigenvalues --  -11.29065 -11.25846 -11.25816 -11.23764 -11.23578
 Alpha  occ. eigenvalues --  -11.23276 -11.21683  -1.20150  -1.06751  -0.95624
 Alpha  occ. eigenvalues --   -0.93397  -0.85784  -0.76960  -0.72898  -0.66707
 Alpha  occ. eigenvalues --   -0.63861  -0.59986  -0.56715  -0.56533  -0.54264
 Alpha  occ. eigenvalues --   -0.53076  -0.50877  -0.48720  -0.46496  -0.35693
 Alpha  occ. eigenvalues --   -0.32133
 Alpha virt. eigenvalues --    0.03062   0.03581   0.03862   0.04526   0.05509
 Alpha virt. eigenvalues --    0.05675   0.06300   0.07058   0.08382   0.09141
 Alpha virt. eigenvalues --    0.10617   0.11618   0.12540   0.12977   0.13718

 Mulliken charges:
               1
     1  C   -0.608112
     2  C    0.050832
     3  C    0.031086
     4  C   -0.313797
     5  C    0.378733
     6  C    0.086590
     7  C    0.267720
     8  H    0.320500
     9  H    0.088723
    10  H    0.276474
    11  H   -0.074919
    12  H    0.016767
    13  H    0.088984
    14  H   -0.122001
    15  H   -0.019916
    16  H   -0.250197
    17  H   -0.217465
 Sum of Mulliken charges =  -0.00000

 Dipole moment (field-independent basis, Debye):
    X=             -0.8167    Y=              1.0449    Z=             -1.9657  Tot=              2.3712

 Test job not archived.
 1\1\GINC-SE454\SP\RHF\Aug-CC-pVDZ\C7H10\OHZDE\09-Apr-2025\0\\#t hf aug
 -cc-pvdz iop(5/13=1,5/36=2,99/5=2) pseudo=read geom=check guess=(read,
 tcheck) scf=(maxcycle=1)\\title\\0,1\C,0,1.85937604,1.20729478,-0.2614
 0082\C,0,0.15062163,-1.51820369,0.2427208\C,0,-1.07002615,-1.5602801,0
 .99671928\C,0,-0.9791085,-0.2613079,0.01225646\C,0,-0.27219098,-1.2136
 6562,-1.09477811\C,0,-0.57735377,1.10168336,0.45344781\C,0,0.58864536,
 1.72769705,0.3324404\H,0,1.91531932,1.44311533,-1.32873282\H,0,2.72125
 435,1.67893199,0.21254794\H,0,1.93539635,0.12703341,-0.13366427\H,0,-1

 Normal termination of Gaussian 16 at Wed Apr  9 18:57:01 2025.
