 Gaussian 16, Revision C.01,

 ----------------------------------------------------------------------
 #t hf aug-cc-pvdz symm=none int=(grid=ultrafine) guess=(read,tcheck) s
 table=(opt,rrhf)
 ----------------------------------------------------------------------
 -----
 title
 -----
 Symbolic Z-matrix:
 Charge =  0 Multiplicity = 1

 SCF Done:  E(RHF) =  -302.773718908     A.U. after   15 cycles
 Normal termination of Gaussian 16 at Wed Apr  9 18:15:20 2025.
 Gaussian 16:  ES64L-G16RevC.01  3-Jul-2019

 ----------------------------------------------------------------------
 #t hf aug-cc-pvdz iop(5/13=1,5/36=2,99/5=2) pseudo=read geom=check gue
 ss=(read,tcheck) scf=(maxcycle=1)
 ----------------------------------------------------------------------
 -----
 title
 -----
 Structure from the checkpoint file:  "Grambow2020_wb97xd3_007242_forward_mol1.chk"
 Charge =  0 Multiplicity = 1

                         Standard orientation:
 ---------------------------------------------------------------------
 Center     Atomic      Atomic             Coordinates (Angstroms)
 Number     Number       Type             X           Y           Z
 ---------------------------------------------------------------------
      1          6           0       -2.487964   -0.368708    0.013468
      2          7           0       -1.071447   -0.065685   -0.011065
      3          6           0       -0.535436    1.161367   -0.004485
      4          7           0        0.776434    1.024836   -0.002203
      5          6           0        1.133167   -0.305091   -0.007077
      6          6           0        2.610701   -0.337149    0.016167
      7          6           0       -0.046286   -0.997901   -0.016096
      8          1           0       -2.739019   -0.919695    0.919921
      9          1           0       -3.054404    0.560343   -0.002470
     10          1           0       -2.760211   -0.963646   -0.857769
     11          1           0       -1.107266    2.074222    0.005098
     12          1           0        3.034711   -0.786474   -0.884894
     13          1           0        1.898853    1.312590    0.025891
     14          1           0        3.006512   -0.853408    0.893918
     15          1           0       -0.259172   -2.053098   -0.018681
 ---------------------------------------------------------------------

 SCF Done:  E(RHF) =  -303.093587450     A.U. after    2 cycles

 The electronic state is 1-A.
 Alpha  occ. eigenvalues --  -15.59375 -15.54140 -11.34667 -11.31391 -11.26577
 Alpha  occ. eigenvalues --  -11.26252 -11.14004  -1.38616  -1.24073  -1.05818
 Alpha  occ. eigenvalues --   -1.03587  -0.91352  -0.85734  -0.81775  -0.75869
 Alpha  occ. eigenvalues --   -0.70353  -0.68748  -0.65744  -0.61181  -0.60987
 Alpha  occ. eigenvalues --   -0.57912  -0.51972  -0.50408  -0.45930  -0.33963
 Alpha  occ. eigenvalues --   -0.26739
 Alpha virt. eigenvalues --    0.01988   0.03295   0.03983   0.04039   0.05723
 Alpha virt. eigenvalues --    0.06254   0.07303   0.07861   0.07951   0.09265
 Alpha virt. eigenvalues --    0.11234   0.11679   0.13385   0.13813   0.14091

 Mulliken charges:
               1
     1  C   -0.345755
     2  N    0.772102
     3  C   -0.638977
     4  N    0.528478
     5  C    0.144112
     6  C   -0.457712
     7  C   -0.588667
     8  H    0.197729
     9  H    0.041335
    10  H    0.187038
    11  H   -0.104507
    12  H    0.060437
    13  H    0.440708
    14  H    0.052518
    15  H   -0.288841
 Sum of Mulliken charges =  -0.00000

 Dipole moment (field-independent basis, Debye):
    X=             -7.9320    Y=              0.5112    Z=             -0.0213  Tot=              7.9485

 Test job not archived.
 1\1\GINC-SE112\SP\RHF\Aug-CC-pVDZ\C5H8N2\OHZDE\09-Apr-2025\0\\#t hf au
 g-cc-pvdz iop(5/13=1,5/36=2,99/5=2) pseudo=read geom=check guess=(read
 ,tcheck) scf=(maxcycle=1)\\title\\0,1\C,0,-2.39321695,0.1045465,-0.159
 24264\N,0,-0.96905437,-0.05320802,0.0548085\C,0,-0.397787,-0.92671924,
 0.89364084\N,0,0.9094838,-0.78902455,0.78532207\C,0,1.22754445,0.18527
 522,-0.1342249\C,0,2.70371824,0.23821757,-0.18698056\C,0,0.02856881,0.
 65491398,-0.59582164\H,0,-2.64669929,-0.13237186,-1.19262969\H,0,-2.93
 275975,-0.5725473,0.5000599\H,0,-2.69534073,1.12791792,0.06111045\H,0,

 Normal termination of Gaussian 16 at Wed Apr  9 18:15:25 2025.
