 Gaussian 16, Revision C.01,

 ----------------------------------------------------------------------
 #t hf aug-cc-pvdz symm=none int=(grid=ultrafine) guess=(read,tcheck) s
 table=(opt,rrhf)
 ----------------------------------------------------------------------
 -----
 title
 -----
 Symbolic Z-matrix:
 Charge =  0 Multiplicity = 1

 SCF Done:  E(RHF) =  -344.749455867     A.U. after   16 cycles

 1\1\GINC-SE035\Stability\RHF\Aug-CC-pVDZ\C5H10O2\OHZDE\09-Apr-2025\0\\
 #t hf aug-cc-pvdz symm=none int=(grid=ultrafine) guess=(read,tcheck) s
 table=(opt,rrhf)\\title\\0,1\C,0,-1.35253943,-1.47049072,-0.24894324\C
 ,0,-0.39175643,-0.36742139,0.00869851\C,0,1.07477538,-0.58381455,-0.16
 079655\C,0,1.95592054,0.43483005,0.55667265\O,0,1.91231308,1.71472712,
 -0.03383126\C,0,-1.81919595,1.17584918,-0.16506139\O,0,-0.74019436,0.7
 7338114,0.58313174\H,0,-1.5926661,-1.62700749,-1.30268753\H,0,-0.92804
 334,-2.41279295,0.12419433\H,0,-2.29754731,-1.22772155,0.24562508\H,0,

 Normal termination of Gaussian 16 at Wed Apr  9 18:28:38 2025.
 Gaussian 16:  ES64L-G16RevC.01  3-Jul-2019

 ----------------------------------------------------------------------
 #t hf aug-cc-pvdz iop(5/13=1,5/36=2,99/5=2) pseudo=read geom=check gue
 ss=(read,tcheck) scf=(maxcycle=1)
 ----------------------------------------------------------------------
 -----
 title
 -----
 Structure from the checkpoint file:  "Grambow2020_wb97xd3_007599_reverse_mol1.chk"
 Charge =  0 Multiplicity = 1

                         Standard orientation:
 ---------------------------------------------------------------------
 Center     Atomic      Atomic             Coordinates (Angstroms)
 Number     Number       Type             X           Y           Z
 ---------------------------------------------------------------------
      1          6           0        1.967977   -1.118957    0.057768
      2          6           0        0.670220   -0.401862   -0.030814
      3          6           0       -0.612796   -1.122017    0.217208
      4          6           0       -1.851361   -0.427217   -0.341385
      5          8           0       -2.187934    0.748610    0.360671
      6          6           0        1.499701    1.525242    0.187573
      7          8           0        0.554725    0.823121   -0.519579
      8          1           0        2.346512   -1.249488    1.073744
      9          1           0        1.854413   -2.124153   -0.371238
     10          1           0        2.722866   -0.533668   -0.475294
     11          1           0       -0.750700   -1.249226    1.299348
     12          1           0       -0.527133   -2.137100   -0.189711
     13          1           0       -2.705346   -1.098234   -0.238040
     14          1           0       -1.720614   -0.225166   -1.410974
     15          1           0       -1.518771    1.408535    0.164693
     16          1           0        2.007761    2.298131   -0.369122
     17          1           0        1.314231    1.605390    1.245752
 ---------------------------------------------------------------------

 SCF Done:  E(RHF) =  -345.108335442     A.U. after    2 cycles

 The electronic state is 1-A.
 Alpha  occ. eigenvalues --  -20.62531 -20.54605 -11.35798 -11.29531 -11.26124
 Alpha  occ. eigenvalues --  -11.25398 -11.24069  -1.55926  -1.45169  -1.09746
 Alpha  occ. eigenvalues --   -1.01334  -0.92244  -0.87601  -0.78171  -0.71612
 Alpha  occ. eigenvalues --   -0.69328  -0.68149  -0.65362  -0.62979  -0.58988
 Alpha  occ. eigenvalues --   -0.58341  -0.56667  -0.56059  -0.55036  -0.50334
 Alpha  occ. eigenvalues --   -0.46882  -0.44507  -0.25021
 Alpha virt. eigenvalues --    0.03101   0.03685   0.03847   0.04652   0.05111
 Alpha virt. eigenvalues --    0.05950   0.06691   0.06781   0.07526   0.07670
 Alpha virt. eigenvalues --    0.09334   0.11712   0.13087   0.13315   0.14061

 Mulliken charges:
               1
     1  C   -0.530791
     2  C    0.934061
     3  C   -0.429836
     4  C    0.742791
     5  O   -1.155305
     6  C    0.212119
     7  O   -1.400359
     8  H    0.285792
     9  H    0.169953
    10  H    0.254824
    11  H    0.287643
    12  H    0.247210
    13  H    0.021905
    14  H    0.162973
    15  H    0.381426
    16  H   -0.135585
    17  H   -0.048819
 Sum of Mulliken charges =  -0.00000

 Dipole moment (field-independent basis, Debye):
    X=              0.5837    Y=             -2.9927    Z=             -0.5610  Tot=              3.1003

 Test job not archived.
 1\1\GINC-SE035\SP\RHF\Aug-CC-pVDZ\C5H10O2\OHZDE\09-Apr-2025\0\\#t hf a
 ug-cc-pvdz iop(5/13=1,5/36=2,99/5=2) pseudo=read geom=check guess=(rea
 d,tcheck) scf=(maxcycle=1)\\title\\0,1\C,0,-1.35253943,-1.47049072,-0.
 24894324\C,0,-0.39175643,-0.36742139,0.00869851\C,0,1.07477538,-0.5838
 1455,-0.16079655\C,0,1.95592054,0.43483005,0.55667265\O,0,1.91231308,1
 .71472712,-0.03383126\C,0,-1.81919595,1.17584918,-0.16506139\O,0,-0.74
 019436,0.77338114,0.58313174\H,0,-1.5926661,-1.62700749,-1.30268753\H,
 0,-0.92804334,-2.41279295,0.12419433\H,0,-2.29754731,-1.22772155,0.245

 Normal termination of Gaussian 16 at Wed Apr  9 18:28:44 2025.
