 Gaussian 16, Revision C.01,

 ----------------------------------------------------------------------
 #t hf aug-cc-pvdz symm=none int=(grid=ultrafine) guess=(read,tcheck) s
 table=(opt,rrhf)
 ----------------------------------------------------------------------
 -----
 title
 -----
 Symbolic Z-matrix:
 Charge =  0 Multiplicity = 1

 SCF Done:  E(RHF) =  -302.777872436     A.U. after   14 cycles
 Normal termination of Gaussian 16 at Wed Apr  9 18:11:14 2025.
 Gaussian 16:  ES64L-G16RevC.01  3-Jul-2019

 ----------------------------------------------------------------------
 #t hf aug-cc-pvdz iop(5/13=1,5/36=2,99/5=2) pseudo=read geom=check gue
 ss=(read,tcheck) scf=(maxcycle=1)
 ----------------------------------------------------------------------
 -----
 title
 -----
 Structure from the checkpoint file:  "Grambow2020_wb97xd3_007162_reverse_mol2.chk"
 Charge =  0 Multiplicity = 1

                         Standard orientation:
 ---------------------------------------------------------------------
 Center     Atomic      Atomic             Coordinates (Angstroms)
 Number     Number       Type             X           Y           Z
 ---------------------------------------------------------------------
      1          6           0        0.583926    1.574248   -0.016462
      2          6           0        1.294262   -0.623026   -1.111973
      3          6           0        1.913949   -0.558177    0.242216
      4          7           0        0.617382    0.114625    0.061830
      5          6           0       -0.509156   -0.478512    0.777951
      6          6           0       -1.779081   -0.233652    0.086820
      7          7           0       -2.784668   -0.035956   -0.425306
      8          1           0        1.454062    1.891357   -0.582406
      9          1           0        0.589914    2.011576    0.985614
     10          1           0       -0.313675    1.880416   -0.554187
     11          1           0        0.736348   -1.562193   -1.209946
     12          1           0        1.871494   -1.360417    0.980291
     13          1           0        2.740568    0.126793    0.417012
     14          1           0       -0.348621   -1.553672    0.846275
     15          1           0       -0.582486   -0.069840    1.790363
 ---------------------------------------------------------------------

 SCF Done:  E(RHF) =  -303.091645304     A.U. after    2 cycles

 The electronic state is 1-A.
 Alpha  occ. eigenvalues --  -15.60400 -15.53441 -11.35208 -11.29866 -11.29156
 Alpha  occ. eigenvalues --  -11.28533 -11.21593  -1.34558  -1.25666  -1.09165
 Alpha  occ. eigenvalues --   -1.04234  -0.88567  -0.85199  -0.76512  -0.73103
 Alpha  occ. eigenvalues --   -0.69112  -0.65714  -0.62388  -0.62038  -0.59337
 Alpha  occ. eigenvalues --   -0.58765  -0.52663  -0.51956  -0.50618  -0.47444
 Alpha  occ. eigenvalues --   -0.31968
 Alpha virt. eigenvalues --    0.02282   0.03479   0.03977   0.04304   0.05620
 Alpha virt. eigenvalues --    0.06103   0.06437   0.07642   0.09447   0.10297
 Alpha virt. eigenvalues --    0.11352   0.12517   0.13179   0.13225   0.14177

 Mulliken charges:
               1
     1  C   -0.288938
     2  C   -0.346063
     3  C   -0.053452
     4  N    0.749014
     5  C   -0.110100
     6  C   -1.459290
     7  N    0.970443
     8  H    0.099482
     9  H    0.180067
    10  H    0.189290
    11  H   -0.001984
    12  H   -0.086365
    13  H   -0.083449
    14  H    0.130484
    15  H    0.110863
 Sum of Mulliken charges =   0.00000

 Dipole moment (field-independent basis, Debye):
    X=              2.3247    Y=              0.1516    Z=              5.5610  Tot=              6.0292

 Test job not archived.
 1\1\GINC-SE131\SP\RHF\Aug-CC-pVDZ\C5H8N2\OHZDE\09-Apr-2025\0\\#t hf au
 g-cc-pvdz iop(5/13=1,5/36=2,99/5=2) pseudo=read geom=check guess=(read
 ,tcheck) scf=(maxcycle=1)\\title\\0,1\C,0,-1.01816496,-0.30324151,1.08
 103115\C,0,-0.88133956,0.82548845,-1.2080704\C,0,-0.12225505,1.6596213
 6,-0.23336153\N,0,-0.16393198,0.20874109,0.01056021\C,0,1.10730097,-0.
 49533364,-0.13767244\C,0,0.90893368,-1.89154455,-0.53963399\N,0,0.7761
 6354,-2.99103265,-0.83299565\H,0,-1.93167995,0.28282474,1.07893695\H,0
 ,-0.50914737,-0.22852804,2.04579341\H,0,-1.26899269,-1.34272068,0.8685

 Normal termination of Gaussian 16 at Wed Apr  9 18:11:20 2025.
