 Gaussian 16, Revision C.01,

 ----------------------------------------------------------------------
 #t hf aug-cc-pvdz symm=none int=(grid=ultrafine) guess=(read,tcheck) s
 table=(opt,rrhf)
 ----------------------------------------------------------------------
 -----
 title
 -----
 Symbolic Z-matrix:
 Charge =  0 Multiplicity = 1

 SCF Done:  E(RHF) =  -324.976370864     A.U. after   14 cycles
 Normal termination of Gaussian 16 at Wed Apr  9 18:50:57 2025.
 Gaussian 16:  ES64L-G16RevC.01  3-Jul-2019

 ----------------------------------------------------------------------
 #t hf aug-cc-pvdz iop(5/13=1,5/36=2,99/5=2) pseudo=read geom=check gue
 ss=(read,tcheck) scf=(maxcycle=1)
 ----------------------------------------------------------------------
 -----
 title
 -----
 Structure from the checkpoint file:  "Grambow2020_wb97xd3_008115_reverse_mol1.chk"
 Charge =  0 Multiplicity = 1

                         Standard orientation:
 ---------------------------------------------------------------------
 Center     Atomic      Atomic             Coordinates (Angstroms)
 Number     Number       Type             X           Y           Z
 ---------------------------------------------------------------------
      1          6           0        2.927449    0.085818    0.111969
      2          7           0        1.635114    0.649605   -0.250125
      3          6           0        0.478215    0.017526   -0.154347
      4          8           0        0.539878   -1.173413    0.296033
      5          6           0       -1.692001    0.140768   -0.464478
      6          6           0       -2.035760   -1.135628   -0.065121
      7          6           0       -2.013757    1.349991    0.368266
      8          1           0        2.955052   -0.161733    1.173866
      9          1           0        3.708147    0.812732   -0.105558
     10          1           0        3.118108   -0.824657   -0.456884
     11          1           0        1.608479    1.589712   -0.598702
     12          1           0       -1.581785    0.335718   -1.525556
     13          1           0       -2.217342   -1.903045   -0.809156
     14          1           0       -2.494924   -1.282954    0.907791
     15          1           0       -0.509271   -1.453218    0.267353
     16          1           0       -3.055834    1.639222    0.200442
     17          1           0       -1.899103    1.135087    1.432034
     18          1           0       -1.381226    2.202353    0.119241
 ---------------------------------------------------------------------

 SCF Done:  E(RHF) =  -325.321718428     A.U. after    2 cycles

 The electronic state is 1-A.
 Alpha  occ. eigenvalues --  -20.55443 -15.53008 -11.29716 -11.27139 -11.27112
 Alpha  occ. eigenvalues --  -11.22762 -11.17553  -1.49525  -1.24274  -1.05997
 Alpha  occ. eigenvalues --   -0.97476  -0.92559  -0.84570  -0.76154  -0.70216
 Alpha  occ. eigenvalues --   -0.68169  -0.64410  -0.64276  -0.62919  -0.57563
 Alpha  occ. eigenvalues --   -0.56839  -0.56372  -0.54676  -0.51988  -0.48833
 Alpha  occ. eigenvalues --   -0.43995  -0.38243  -0.31175
 Alpha virt. eigenvalues --    0.02887   0.04101   0.04500   0.04753   0.05387
 Alpha virt. eigenvalues --    0.05683   0.06128   0.06934   0.07468   0.08652
 Alpha virt. eigenvalues --    0.09405   0.11919   0.12108   0.13215   0.13825

 Mulliken charges:
               1
     1  C   -0.431119
     2  N    0.806951
     3  C    0.046242
     4  O   -1.632010
     5  C   -0.058120
     6  C   -0.063079
     7  C   -0.380955
     8  H    0.158083
     9  H    0.014745
    10  H    0.153077
    11  H    0.197450
    12  H   -0.076607
    13  H   -0.060212
    14  H   -0.059925
    15  H    0.909975
    16  H    0.186026
    17  H    0.164406
    18  H    0.125074
 Sum of Mulliken charges =  -0.00000

 Dipole moment (field-independent basis, Debye):
    X=              1.8928    Y=              2.2545    Z=             -0.5009  Tot=              2.9861

 Test job not archived.
 1\1\GINC-SE104\SP\RHF\Aug-CC-pVDZ\C5H11N1O1\OHZDE\09-Apr-2025\0\\#t hf
  aug-cc-pvdz iop(5/13=1,5/36=2,99/5=2) pseudo=read geom=check guess=(r
 ead,tcheck) scf=(maxcycle=1)\\title\\0,1\C,0,3.01444009,0.51982406,0.1
 974374\N,0,1.69695435,0.67292894,-0.40246784\C,0,0.6309562,-0.04070275
 ,-0.08389201\O,0,0.80967077,-0.91782885,0.82368213\C,0,-1.49876022,-0.
 40242509,-0.47717723\C,0,-1.70404668,-1.44183,0.40845217\C,0,-2.053877
 88,0.9730336,-0.2339366\H,0,2.97766429,0.73480553,1.26612777\H,0,3.707
 66205,1.20907327,-0.28172066\H,0,3.37617188,-0.5003244,0.06569201\H,0,

 Normal termination of Gaussian 16 at Wed Apr  9 18:51:04 2025.
