 Gaussian 16, Revision C.01,

 ----------------------------------------------------------------------
 #t hf aug-cc-pvdz symm=none int=(grid=ultrafine) guess=(read,tcheck) s
 table=(opt,rrhf)
 ----------------------------------------------------------------------
 -----
 title
 -----
 Symbolic Z-matrix:
 Charge =  0 Multiplicity = 1

 SCF Done:  E(RHF) =  -284.698159382     A.U. after   16 cycles
 Normal termination of Gaussian 16 at Wed Apr  9 03:06:51 2025.
 Gaussian 16:  ES64L-G16RevC.01  3-Jul-2019

 ----------------------------------------------------------------------
 #t hf aug-cc-pvdz iop(5/13=1,5/36=2,99/5=2) pseudo=read geom=check gue
 ss=(read,tcheck) scf=(maxcycle=1)
 ----------------------------------------------------------------------
 -----
 title
 -----
 Structure from the checkpoint file:  "Grambow2020_b97d3_006543_reverse_mol1.chk"
 Charge =  0 Multiplicity = 1

                         Standard orientation:
 ---------------------------------------------------------------------
 Center     Atomic      Atomic             Coordinates (Angstroms)
 Number     Number       Type             X           Y           Z
 ---------------------------------------------------------------------
      1          6           0       -0.734268    1.075053    0.334824
      2          6           0        0.715778    1.175889   -0.182670
      3          8           0        1.463210   -0.065697   -0.039781
      4          6           0        0.704837   -1.176653    0.171180
      5          7           0       -0.569309   -1.243030   -0.045481
      6          6           0       -1.250647   -0.147550   -0.407312
      7          1           0       -0.703699    0.945047    1.427980
      8          1           0       -1.278486    1.997355    0.093977
      9          1           0        0.745902    1.445531   -1.246566
     10          1           0        1.272455    1.923085    0.395072
     11          1           0        1.308671   -2.039749    0.443615
     12          1           0       -3.097889   -0.332131    0.380811
     13          1           0       -2.581668   -0.272790   -0.354406
 ---------------------------------------------------------------------

 SCF Done:  E(RHF) =  -284.990853897     A.U. after    2 cycles

 The electronic state is 1-A.
 Alpha  occ. eigenvalues --  -20.60219 -15.51323 -11.37189 -11.32353 -11.29682
 Alpha  occ. eigenvalues --  -11.26160  -1.52291  -1.26349  -1.08355  -0.93776
 Alpha  occ. eigenvalues --   -0.91951  -0.75857  -0.73069  -0.70679  -0.67237
 Alpha  occ. eigenvalues --   -0.62892  -0.59245  -0.57838  -0.56197  -0.52897
 Alpha  occ. eigenvalues --   -0.47018  -0.45397  -0.31136
 Alpha virt. eigenvalues --    0.02605   0.03816   0.04263   0.04343   0.05416
 Alpha virt. eigenvalues --    0.06456   0.07801   0.08588   0.09750   0.10437
 Alpha virt. eigenvalues --    0.12500   0.12842   0.13525   0.14623   0.14753

 Mulliken charges:
               1
     1  C   -0.327879
     2  C    0.580473
     3  O   -1.242024
     4  C    0.386331
     5  N    0.829749
     6  C   -0.877651
     7  H    0.179387
     8  H    0.150414
     9  H    0.134753
    10  H    0.095225
    11  H    0.009149
    12  H   -0.128508
    13  H    0.210581
 Sum of Mulliken charges =   0.00000

 Dipole moment (field-independent basis, Debye):
    X=              2.1615    Y=              2.1304    Z=              1.1254  Tot=              3.2368

 Test job not archived.
 1\1\GINC-SE419\SP\RHF\Aug-CC-pVDZ\C4H7N1O1\OHZDE\09-Apr-2025\0\\#t hf
 aug-cc-pvdz iop(5/13=1,5/36=2,99/5=2) pseudo=read geom=check guess=(re
 ad,tcheck) scf=(maxcycle=1)\\title\\0,1\C,0,0.51183942,-0.72266969,0.3
 8778494\C,0,-0.92048088,-1.03276763,-0.09481212\O,0,-1.770547,0.147605
 25,-0.1634673\C,0,-1.10974754,1.33801832,-0.15259054\N,0,0.15601958,1.
 47278853,-0.38597639\C,0,0.92970866,0.39245759,-0.55775614\H,0,0.46179
 263,-0.40894333,1.44225039\H,0,1.13340776,-1.62367723,0.30618244\H,0,-
 0.91942811,-1.48357881,-1.0959399\H,0,-1.41708209,-1.71309379,0.606985

 Normal termination of Gaussian 16 at Wed Apr  9 03:06:55 2025.
