 Gaussian 16, Revision C.01,

 ----------------------------------------------------------------------
 #t hf aug-cc-pvdz symm=none int=(grid=ultrafine) guess=(read,tcheck) s
 table=(opt,rrhf)
 ----------------------------------------------------------------------
 -----
 title
 -----
 Symbolic Z-matrix:
 Charge =  0 Multiplicity = 1

 SCF Done:  E(RHF) =  -343.621066698     A.U. after   13 cycles
 Normal termination of Gaussian 16 at Wed Apr  9 18:32:27 2025.
 Gaussian 16:  ES64L-G16RevC.01  3-Jul-2019

 ----------------------------------------------------------------------
 #t hf aug-cc-pvdz iop(5/13=1,5/36=2,99/5=2) pseudo=read geom=check gue
 ss=(read,tcheck) scf=(maxcycle=1)
 ----------------------------------------------------------------------
 -----
 title
 -----
 Structure from the checkpoint file:  "Grambow2020_wb97xd3_007688_reverse_mol2.chk"
 Charge =  0 Multiplicity = 1

                         Standard orientation:
 ---------------------------------------------------------------------
 Center     Atomic      Atomic             Coordinates (Angstroms)
 Number     Number       Type             X           Y           Z
 ---------------------------------------------------------------------
      1          6           0       -0.386582    1.446989   -0.008549
      2          6           0       -1.303667    0.523607   -0.745049
      3          6           0       -0.799668   -0.943012   -0.717096
      4          8           0        0.439964   -1.015663   -0.017307
      5          6           0       -0.770307   -0.938149    0.732507
      6          6           0       -1.273084    0.528802    0.771404
      7          8           0        3.026372    0.298411   -0.096313
      8          1           0        0.686661    1.319105   -0.031713
      9          1           0        3.386679    0.164954    0.780670
     10          1           0       -0.717051    2.478409   -0.006446
     11          1           0       -2.095531    0.865362   -1.394535
     12          1           0       -1.015498   -1.726492   -1.429714
     13          1           0       -0.956091   -1.716604    1.459298
     14          1           0       -2.037683    0.873158    1.451675
     15          1           0        2.217665   -0.229295   -0.119585
 ---------------------------------------------------------------------

 SCF Done:  E(RHF) =  -343.976745415     A.U. after    2 cycles

 The electronic state is 1-A.
 Alpha  occ. eigenvalues --  -20.57392 -20.52622 -11.30701 -11.30617 -11.25231
 Alpha  occ. eigenvalues --  -11.25164 -11.24409  -1.52139  -1.40961  -1.18476
 Alpha  occ. eigenvalues --   -0.97191  -0.90346  -0.80529  -0.76366  -0.75583
 Alpha  occ. eigenvalues --   -0.69863  -0.66328  -0.64388  -0.57096  -0.56254
 Alpha  occ. eigenvalues --   -0.54465  -0.52972  -0.50855  -0.47067  -0.44857
 Alpha  occ. eigenvalues --   -0.43695  -0.36869
 Alpha virt. eigenvalues --    0.02982   0.03479   0.03582   0.04862   0.05536
 Alpha virt. eigenvalues --    0.05971   0.08020   0.08674   0.10030   0.11568
 Alpha virt. eigenvalues --    0.12391   0.12599   0.13614   0.13799   0.14236

 Mulliken charges:
               1
     1  C    0.208169
     2  C    0.418213
     3  C    0.592539
     4  O   -1.373093
     5  C    0.589366
     6  C    0.420173
     7  O   -0.900508
     8  H   -0.196128
     9  H    0.286042
    10  H   -0.102009
    11  H   -0.208508
    12  H   -0.119815
    13  H   -0.112073
    14  H   -0.210134
    15  H    0.707764
 Sum of Mulliken charges =  -0.00000

 Dipole moment (field-independent basis, Debye):
    X=             -3.4224    Y=             -0.7495    Z=              1.3886  Tot=              3.7687

 Test job not archived.
 1\1\GINC-SE232\SP\RHF\Aug-CC-pVDZ\C5H8O2\OHZDE\09-Apr-2025\0\\#t hf au
 g-cc-pvdz iop(5/13=1,5/36=2,99/5=2) pseudo=read geom=check guess=(read
 ,tcheck) scf=(maxcycle=1)\\title\\0,1\C,0,0.77090246,-0.5210424,0.9697
 9049\C,0,0.76928465,0.96582427,0.81061627\C,0,-0.06324435,1.41961029,-
 0.41687779\O,0,-0.58318767,0.28010536,-1.09721465\C,0,-1.23703507,0.73
 301187,0.08614727\C,0,-0.45858358,0.247595,1.33699741\O,0,0.42974767,-
 2.20845012,-2.19429828\H,0,0.79472231,-1.18351284,0.1157954\H,0,-0.333
 97214,-2.78546676,-2.21699673\H,0,1.3404561,-0.86675997,1.82368161\H,0

 Normal termination of Gaussian 16 at Wed Apr  9 18:32:32 2025.
