 Gaussian 16, Revision C.01,

 ----------------------------------------------------------------------
 #t hf aug-cc-pvdz symm=none int=(grid=ultrafine) guess=(read,tcheck) s
 table=(opt,rrhf)
 ----------------------------------------------------------------------
 -----
 title
 -----
 Symbolic Z-matrix:
 Charge =  0 Multiplicity = 1

 SCF Done:  E(RHF) =  -286.816699665     A.U. after   13 cycles
 Normal termination of Gaussian 16 at Wed Apr  9 19:07:01 2025.
 Gaussian 16:  ES64L-G16RevC.01  3-Jul-2019

 ----------------------------------------------------------------------
 #t hf aug-cc-pvdz iop(5/13=1,5/36=2,99/5=2) pseudo=read geom=check gue
 ss=(read,tcheck) scf=(maxcycle=1)
 ----------------------------------------------------------------------
 -----
 title
 -----
 Structure from the checkpoint file:  "Grambow2020_wb97xd3_008595_forward_mol2.chk"
 Charge =  0 Multiplicity = 1

                         Standard orientation:
 ---------------------------------------------------------------------
 Center     Atomic      Atomic             Coordinates (Angstroms)
 Number     Number       Type             X           Y           Z
 ---------------------------------------------------------------------
      1          6           0       -1.770613    0.301372   -0.121204
      2          6           0       -0.795950   -0.753600   -0.467463
      3          6           0        0.609641   -0.383499   -0.939466
      4          6           0        1.379777   -0.701346    0.380954
      5          6           0        0.519419    0.485328    0.881000
      6          6           0        0.754085    1.091925   -0.518811
      7          7           0       -0.821012   -0.166186    0.885795
      8          1           0       -2.789507   -0.002605    0.089228
      9          1           0       -1.687754    1.295653   -0.538267
     10          1           0       -1.118651   -1.784459   -0.567736
     11          1           0        0.930789   -0.747508   -1.912936
     12          1           0        1.197932   -1.665386    0.856550
     13          1           0        2.445538   -0.480940    0.325960
     14          1           0        0.725089    1.024922    1.802327
     15          1           0        0.083674    1.848007   -0.921618
     16          1           0        1.781825    1.434540   -0.624139
 ---------------------------------------------------------------------

 SCF Done:  E(RHF) =  -287.124939162     A.U. after    2 cycles

 The electronic state is 1-A.
 Alpha  occ. eigenvalues --  -15.49203 -11.26477 -11.25722 -11.25633 -11.24594
 Alpha  occ. eigenvalues --  -11.23193 -11.23147  -1.30248  -1.12618  -0.96686
 Alpha  occ. eigenvalues --   -0.91802  -0.86281  -0.77003  -0.76613  -0.71173
 Alpha  occ. eigenvalues --   -0.68326  -0.64428  -0.56459  -0.54909  -0.53277
 Alpha  occ. eigenvalues --   -0.49775  -0.49476  -0.48292  -0.45566  -0.43606
 Alpha  occ. eigenvalues --   -0.39029
 Alpha virt. eigenvalues --    0.03533   0.03884   0.04041   0.04186   0.05385
 Alpha virt. eigenvalues --    0.05639   0.05906   0.07761   0.09146   0.09889
 Alpha virt. eigenvalues --    0.12000   0.12559   0.13348   0.13698   0.13979

 Mulliken charges:
               1
     1  C    0.142700
     2  C    0.336741
     3  C   -0.070933
     4  C    0.349824
     5  C   -0.718861
     6  C    0.318587
     7  N    0.725331
     8  H   -0.134802
     9  H   -0.127152
    10  H   -0.209343
    11  H   -0.142054
    12  H    0.000603
    13  H   -0.106681
    14  H   -0.214869
    15  H   -0.049699
    16  H   -0.099392
 Sum of Mulliken charges =  -0.00000

 Dipole moment (field-independent basis, Debye):
    X=              0.7594    Y=              0.5987    Z=             -1.6891  Tot=              1.9464

 Test job not archived.
 1\1\GINC-SE114\SP\RHF\Aug-CC-pVDZ\C6H9N1\OHZDE\09-Apr-2025\0\\#t hf au
 g-cc-pvdz iop(5/13=1,5/36=2,99/5=2) pseudo=read geom=check guess=(read
 ,tcheck) scf=(maxcycle=1)\\title\\0,1\C,0,1.69334867,0.81128679,-0.041
 79236\C,0,1.07039136,-0.40801107,0.51324376\C,0,-0.40072802,-0.4054163
 2,0.92706515\C,0,-0.97869997,-1.18307568,-0.29720628\C,0,-0.49767695,0
 .09564235,-1.02655702\C,0,-0.96723383,0.84985734,0.23565306\N,0,0.9760
 7408,-0.10297173,-0.92725731\H,0,2.76472864,0.80051631,-0.20567876\H,0
 ,1.29427091,1.7916268,0.17972643\H,0,1.6858904,-1.25305035,0.80295335\

 Normal termination of Gaussian 16 at Wed Apr  9 19:07:07 2025.
