 Gaussian 16, Revision C.01,

 ----------------------------------------------------------------------
 #t hf aug-cc-pvdz symm=none int=(grid=ultrafine) guess=(read,tcheck) s
 table=(opt,rrhf)
 ----------------------------------------------------------------------
 -----
 title
 -----
 Symbolic Z-matrix:
 Charge =  0 Multiplicity = 1

 SCF Done:  E(RHF) =  -307.712813381     A.U. after   17 cycles

 1\1\GINC-SE174\Stability\RHF\Aug-CC-pVDZ\C6H10O1\OHZDE\09-Apr-2025\0\\
 #t hf aug-cc-pvdz symm=none int=(grid=ultrafine) guess=(read,tcheck) s
 table=(opt,rrhf)\\title\\0,1\O,0,1.91261319,-1.07719739,1.04942029\C,0
 ,1.26430803,-0.56819325,-0.11517733\C,0,0.02394398,-1.35296421,-0.4349
 1361\C,0,-0.94370506,-0.89912381,0.58912159\C,0,-1.49502033,1.47484087
 ,-0.38939713\C,0,-0.16072945,1.60737239,-0.55292567\C,0,0.84944593,0.8
 630865,0.10783971\H,0,1.49751846,-0.67176408,1.81520573\H,0,2.03563521
 ,-0.64592878,-0.89303776\H,0,0.22206186,-2.43295721,-0.38588443\H,0,-0

 Normal termination of Gaussian 16 at Wed Apr  9 19:00:09 2025.
 Gaussian 16:  ES64L-G16RevC.01  3-Jul-2019

 ----------------------------------------------------------------------
 #t hf aug-cc-pvdz iop(5/13=1,5/36=2,99/5=2) pseudo=read geom=check gue
 ss=(read,tcheck) scf=(maxcycle=1)
 ----------------------------------------------------------------------
 -----
 title
 -----
 Structure from the checkpoint file:  "Grambow2020_wb97xd3_008424_forward_mol1.chk"
 Charge =  0 Multiplicity = 1

                         Standard orientation:
 ---------------------------------------------------------------------
 Center     Atomic      Atomic             Coordinates (Angstroms)
 Number     Number       Type             X           Y           Z
 ---------------------------------------------------------------------
      1          8           0        2.132554   -0.476415   -0.446214
      2          6           0        1.026965   -0.420011    0.453876
      3          6           0        0.652843    1.000399    0.768628
      4          6           0       -0.025436    1.458754   -0.464584
      5          6           0       -2.304287    0.185172   -0.178257
      6          6           0       -1.549551   -0.888481    0.141559
      7          6           0       -0.178260   -1.078892   -0.165573
      8          1           0        1.785781   -0.403755   -1.339285
      9          1           0        1.381853   -0.976542    1.331591
     10          1           0        1.545313    1.594463    1.010755
     11          1           0       -0.020549    1.037574    1.625920
     12          1           0        0.520583    1.386295   -1.397123
     13          1           0       -0.686904    2.315258   -0.421574
     14          1           0       -3.278149    0.352656    0.273482
     15          1           0       -2.033579    0.796342   -1.023897
     16          1           0       -2.068874   -1.723204    0.623072
     17          1           0        0.060447   -2.109410   -0.447115
 ---------------------------------------------------------------------

 SCF Done:  E(RHF) =  -308.037632077     A.U. after    2 cycles

 The electronic state is 1-A.
 Alpha  occ. eigenvalues --  -20.53943 -11.29011 -11.28447 -11.25012 -11.24787
 Alpha  occ. eigenvalues --  -11.24740 -11.23318  -1.44414  -1.10907  -1.04675
 Alpha  occ. eigenvalues --   -0.96257  -0.87744  -0.81736  -0.74319  -0.69254
 Alpha  occ. eigenvalues --   -0.66469  -0.65390  -0.61623  -0.59842  -0.56759
 Alpha  occ. eigenvalues --   -0.54116  -0.52680  -0.52448  -0.48755  -0.44128
 Alpha  occ. eigenvalues --   -0.37502  -0.26226
 Alpha virt. eigenvalues --    0.02164   0.03446   0.03797   0.03866   0.04659
 Alpha virt. eigenvalues --    0.06017   0.06080   0.06197   0.06857   0.07326
 Alpha virt. eigenvalues --    0.09310   0.11598   0.13040   0.13591   0.13943

 Mulliken charges:
               1
     1  O   -1.382713
     2  C    0.960663
     3  C   -0.327961
     4  C    0.175266
     5  C   -0.215567
     6  C    0.760359
     7  C   -0.215262
     8  H    0.348959
     9  H    0.065521
    10  H    0.169805
    11  H    0.203003
    12  H   -0.072343
    13  H   -0.027839
    14  H   -0.118856
    15  H    0.046841
    16  H   -0.167917
    17  H   -0.201961
 Sum of Mulliken charges =  -0.00000

 Dipole moment (field-independent basis, Debye):
    X=             -1.7798    Y=              1.1157    Z=              0.1494  Tot=              2.1059

 Test job not archived.
 1\1\GINC-SE174\SP\RHF\Aug-CC-pVDZ\C6H10O1\OHZDE\09-Apr-2025\0\\#t hf a
 ug-cc-pvdz iop(5/13=1,5/36=2,99/5=2) pseudo=read geom=check guess=(rea
 d,tcheck) scf=(maxcycle=1)\\title\\0,1\O,0,1.91261319,-1.07719739,1.04
 942029\C,0,1.26430803,-0.56819325,-0.11517733\C,0,0.02394398,-1.352964
 21,-0.43491361\C,0,-0.94370506,-0.89912381,0.58912159\C,0,-1.49502033,
 1.47484087,-0.38939713\C,0,-0.16072945,1.60737239,-0.55292567\C,0,0.84
 944593,0.8630865,0.10783971\H,0,1.49751846,-0.67176408,1.81520573\H,0,
 2.03563521,-0.64592878,-0.89303776\H,0,0.22206186,-2.43295721,-0.38588

 Normal termination of Gaussian 16 at Wed Apr  9 19:00:15 2025.
