 Gaussian 16, Revision C.01,

 ----------------------------------------------------------------------
 #t hf aug-cc-pvdz symm=none int=(grid=ultrafine) guess=(read,tcheck) s
 table=(opt,rrhf)
 ----------------------------------------------------------------------
 -----
 title
 -----
 Symbolic Z-matrix:
 Charge =  0 Multiplicity = 1

 SCF Done:  E(RHF) =  -375.757267212     A.U. after   13 cycles
 Normal termination of Gaussian 16 at Wed Apr  9 03:46:24 2025.
 Gaussian 16:  ES64L-G16RevC.01  3-Jul-2019

 ----------------------------------------------------------------------
 #t hf aug-cc-pvdz iop(5/13=1,5/36=2,99/5=2) pseudo=read geom=check gue
 ss=(read,tcheck) scf=(maxcycle=1)
 ----------------------------------------------------------------------
 -----
 title
 -----
 Structure from the checkpoint file:  "Grambow2020_wb97xd3_007867_reverse_mol2.chk"
 Charge =  0 Multiplicity = 1

                         Standard orientation:
 ---------------------------------------------------------------------
 Center     Atomic      Atomic             Coordinates (Angstroms)
 Number     Number       Type             X           Y           Z
 ---------------------------------------------------------------------
      1          7           0       -2.609188   -0.693406    0.003633
      2          6           0       -1.731883    0.326053    0.000973
      3          8           0       -2.003647    1.505618    0.006368
      4          6           0       -0.266678   -0.125443   -0.010504
      5          8           0        0.042953   -1.287165   -0.009331
      6          6           0        3.371990   -0.352866    0.013535
      7          7           0        2.904391    0.819251   -0.005555
      8          1           0       -3.595041   -0.506054    0.010850
      9          1           0       -2.264206   -1.637438    0.000362
     10          1           0        0.473146    0.691721   -0.019563
     11          1           0        4.440944   -0.587607    0.010822
     12          1           0        2.677697   -1.192686    0.034932
     13          1           0        3.646013    1.517062   -0.024265
 ---------------------------------------------------------------------

 SCF Done:  E(RHF) =  -376.132049522     A.U. after    2 cycles

 The electronic state is 1-A.
 Alpha  occ. eigenvalues --  -20.57723 -20.53113 -15.53854 -15.50946 -11.37152
 Alpha  occ. eigenvalues --  -11.35542 -11.29574  -1.50990  -1.47755  -1.24010
 Alpha  occ. eigenvalues --   -1.22327  -0.94986  -0.86000  -0.83229  -0.78509
 Alpha  occ. eigenvalues --   -0.71955  -0.70287  -0.68014  -0.63457  -0.63123
 Alpha  occ. eigenvalues --   -0.62089  -0.53823  -0.50196  -0.48953  -0.46994
 Alpha  occ. eigenvalues --   -0.44923  -0.41542
 Alpha virt. eigenvalues --    0.03253   0.03491   0.05148   0.05828   0.06672
 Alpha virt. eigenvalues --    0.07138   0.07834   0.08343   0.10709   0.11249
 Alpha virt. eigenvalues --    0.11812   0.12828   0.13530   0.15347   0.15619

 Mulliken charges:
               1
     1  N    0.584520
     2  C    0.218071
     3  O   -1.229822
     4  C    1.230283
     5  O   -1.229520
     6  C   -0.563883
     7  N    0.508582
     8  H    0.113911
     9  H    0.077747
    10  H    0.183912
    11  H    0.023756
    12  H    0.026394
    13  H    0.056050
 Sum of Mulliken charges =  -0.00000

 Dipole moment (field-independent basis, Debye):
    X=              1.6538    Y=             -2.7048    Z=             -0.0004  Tot=              3.1703

 Test job not archived.
 1\1\GINC-SE083\SP\RHF\Aug-CC-pVDZ\C3H6N2O2\OHZDE\09-Apr-2025\0\\#t hf
 aug-cc-pvdz iop(5/13=1,5/36=2,99/5=2) pseudo=read geom=check guess=(re
 ad,tcheck) scf=(maxcycle=1)\\title\\0,1\N,0,-3.01880432,0.51269746,-0.
 06786731\C,0,-2.11393941,-0.463242,0.12637376\O,0,-2.35326554,-1.63001
 205,0.34231432\C,0,-0.66173511,0.02316883,0.05347707\O,0,-0.38403199,1
 .17224606,-0.16555199\C,0,2.96941748,0.34366313,-0.0114399\N,0,2.53399
 246,-0.81667529,0.22707922\H,0,-3.99910052,0.29983499,-0.0401713\H,0,-
 2.69982702,1.44985616,-0.24166934\H,0,0.10012583,-0.75678955,0.2159921

 Normal termination of Gaussian 16 at Wed Apr  9 03:46:30 2025.
