 Gaussian 16, Revision C.01,

 ----------------------------------------------------------------------
 #t hf aug-cc-pvdz symm=none int=(grid=ultrafine) guess=(read,tcheck) s
 table=(opt,rrhf)
 ----------------------------------------------------------------------
 -----
 title
 -----
 Symbolic Z-matrix:
 Charge =  0 Multiplicity = 1

 SCF Done:  E(RHF) =  -268.801016210     A.U. after   14 cycles
 Normal termination of Gaussian 16 at Wed Apr  9 15:56:54 2025.
 Gaussian 16:  ES64L-G16RevC.01  3-Jul-2019

 ----------------------------------------------------------------------
 #t hf aug-cc-pvdz iop(5/13=1,5/36=2,99/5=2) pseudo=read geom=check gue
 ss=(read,tcheck) scf=(maxcycle=1)
 ----------------------------------------------------------------------
 -----
 title
 -----
 Structure from the checkpoint file:  "Grambow2020_b97d3_007034_reverse_mol2.chk"
 Charge =  0 Multiplicity = 1

                         Standard orientation:
 ---------------------------------------------------------------------
 Center     Atomic      Atomic             Coordinates (Angstroms)
 Number     Number       Type             X           Y           Z
 ---------------------------------------------------------------------
      1          6           0       -2.570621   -0.818627    0.050047
      2          6           0       -1.103049   -0.462030   -0.013341
      3          6           0       -0.622751    0.761363   -0.041457
      4          6           0       -0.119710    1.979025   -0.069520
      5          6           0        2.314705   -0.112967    0.201498
      6          8           0        2.099367   -1.241648   -0.194637
      7          1           0       -2.779698   -1.432178    0.939595
      8          1           0       -3.199441    0.078864    0.089225
      9          1           0       -2.860366   -1.412247   -0.830371
     10          1           0        0.051900    2.506950   -1.011143
     11          1           0        0.128456    2.517035    0.849431
     12          1           0        2.738211    0.680889   -0.456887
     13          1           0        2.117360    0.200937    1.252093
     14          1           0       -0.382804   -1.287640   -0.038202
 ---------------------------------------------------------------------

 SCF Done:  E(RHF) =  -269.079338883     A.U. after    2 cycles

 The electronic state is 1-A.
 Alpha  occ. eigenvalues --  -20.55677 -11.35130 -11.26611 -11.25374 -11.25243
 Alpha  occ. eigenvalues --  -11.24343  -1.47501  -1.08744  -1.00269  -0.89753
 Alpha  occ. eigenvalues --   -0.86835  -0.71143  -0.68481  -0.65267  -0.64390
 Alpha  occ. eigenvalues --   -0.61458  -0.58595  -0.57417  -0.54066  -0.51763
 Alpha  occ. eigenvalues --   -0.42705  -0.38472  -0.37065
 Alpha virt. eigenvalues --    0.03207   0.03886   0.04147   0.04551   0.06216
 Alpha virt. eigenvalues --    0.06279   0.06712   0.07745   0.09781   0.10387
 Alpha virt. eigenvalues --    0.11325   0.12212   0.13049   0.14221   0.14403

 Mulliken charges:
               1
     1  C   -0.795644
     2  C    0.402518
     3  C    0.112830
     4  C   -0.097667
     5  C    0.571008
     6  O   -0.867175
     7  H    0.224507
     8  H    0.115500
     9  H    0.238333
    10  H   -0.042809
    11  H   -0.029856
    12  H    0.148589
    13  H    0.141775
    14  H   -0.121908
 Sum of Mulliken charges =  -0.00000

 Dipole moment (field-independent basis, Debye):
    X=             -0.1467    Y=              1.9571    Z=              0.8447  Tot=              2.1367

 Test job not archived.
 1\1\GINC-SE120\SP\RHF\Aug-CC-pVDZ\C5H8O1\OHZDE\09-Apr-2025\0\\#t hf au
 g-cc-pvdz iop(5/13=1,5/36=2,99/5=2) pseudo=read geom=check guess=(read
 ,tcheck) scf=(maxcycle=1)\\title\\0,1\C,0,2.41469627,0.42047408,-0.194
 08675\C,0,0.92229793,0.38699696,0.04376121\C,0,0.08035359,-0.43033806,
 -0.5489108\C,0,-0.78095679,-1.24063118,-1.13038235\C,0,-2.33742369,0.4
 197218,1.1492881\O,0,-1.84590165,1.48464418,1.46797482\H,0,2.9585654,0
 .24936592,0.74739155\H,0,2.72193603,-0.34316847,-0.9185825\H,0,2.72159
 433,1.40736947,-0.57266734\H,0,-1.27164574,-0.97668928,-2.0707902\H,0,

 Normal termination of Gaussian 16 at Wed Apr  9 15:56:58 2025.
