 Gaussian 16, Revision C.01,

 ----------------------------------------------------------------------
 #t hf aug-cc-pvdz symm=none int=(grid=ultrafine) guess=(read,tcheck) s
 table=(opt,rrhf)
 ----------------------------------------------------------------------
 -----
 title
 -----
 Symbolic Z-matrix:
 Charge =  0 Multiplicity = 1

 SCF Done:  E(RHF) =  -284.690152564     A.U. after   14 cycles
 Normal termination of Gaussian 16 at Wed Apr  9 03:06:49 2025.
 Gaussian 16:  ES64L-G16RevC.01  3-Jul-2019

 ----------------------------------------------------------------------
 #t hf aug-cc-pvdz iop(5/13=1,5/36=2,99/5=2) pseudo=read geom=check gue
 ss=(read,tcheck) scf=(maxcycle=1)
 ----------------------------------------------------------------------
 -----
 title
 -----
 Structure from the checkpoint file:  "Grambow2020_b97d3_006552_reverse_mol1.chk"
 Charge =  0 Multiplicity = 1

                         Standard orientation:
 ---------------------------------------------------------------------
 Center     Atomic      Atomic             Coordinates (Angstroms)
 Number     Number       Type             X           Y           Z
 ---------------------------------------------------------------------
      1          8           0        1.913002   -0.379378   -0.201675
      2          6           0        0.809135    0.220446    0.427560
      3          6           0       -0.091581    1.241625   -0.338009
      4          7           0       -1.307305    0.517694    0.182275
      5          6           0       -1.166644   -1.129787   -0.525558
      6          6           0       -0.469935   -0.629251    0.684105
      7          1           0        1.563600   -0.942139   -0.919964
      8          1           0        1.197332    0.666873    1.350197
      9          1           0       -0.007570    1.245120   -1.431245
     10          1           0       -0.058549    2.270914    0.041243
     11          1           0       -0.548673   -0.967238   -1.431570
     12          1           0       -2.107032   -0.018778   -0.427991
     13          1           0       -0.677834   -1.061780    1.668216
 ---------------------------------------------------------------------

 SCF Done:  E(RHF) =  -284.984384703     A.U. after    2 cycles

 The electronic state is 1-A.
 Alpha  occ. eigenvalues --  -20.56852 -15.55945 -11.31442 -11.29281 -11.29033
 Alpha  occ. eigenvalues --  -11.26826  -1.46836  -1.29703  -1.01864  -0.96804
 Alpha  occ. eigenvalues --   -0.85282  -0.80766  -0.73629  -0.66018  -0.65067
 Alpha  occ. eigenvalues --   -0.64613  -0.59133  -0.57603  -0.52895  -0.50185
 Alpha  occ. eigenvalues --   -0.45684  -0.44284  -0.36422
 Alpha virt. eigenvalues --    0.03637   0.03775   0.04356   0.05136   0.05935
 Alpha virt. eigenvalues --    0.06102   0.07289   0.09077   0.09880   0.12416
 Alpha virt. eigenvalues --    0.13147   0.13886   0.14474   0.14664   0.15289

 Mulliken charges:
               1
     1  O   -1.342126
     2  C    1.429894
     3  C   -0.289520
     4  N    0.235196
     5  C   -0.473482
     6  C   -0.258963
     7  H    0.287016
     8  H    0.090850
     9  H    0.007195
    10  H    0.015780
    11  H    0.038810
    12  H    0.360837
    13  H   -0.101487
 Sum of Mulliken charges =   0.00000

 Dipole moment (field-independent basis, Debye):
    X=              0.7772    Y=              1.1529    Z=             -0.6591  Tot=              1.5387

 Test job not archived.
 1\1\GINC-SE459\SP\RHF\Aug-CC-pVDZ\C4H7N1O1\OHZDE\09-Apr-2025\0\\#t hf
 aug-cc-pvdz iop(5/13=1,5/36=2,99/5=2) pseudo=read geom=check guess=(re
 ad,tcheck) scf=(maxcycle=1)\\title\\0,1\O,0,-1.6307201,-0.76226182,0.9
 54832\C,0,-1.02111743,-0.04459499,-0.08804182\C,0,-0.09877532,1.179305
 08,0.21452486\N,0,0.9086689,0.62656194,-0.76132744\C,0,1.39009026,-0.9
 4965802,-0.04107016\C,0,0.17543745,-0.6860735,-0.8500009\H,0,-0.915941
 06,-1.19024517,1.46536246\H,0,-1.83234878,0.24406485,-0.76615133\H,0,0
 .27589196,1.26807797,1.24116031\H,0,-0.48134432,2.14940433,-0.12739043

 Normal termination of Gaussian 16 at Wed Apr  9 03:06:52 2025.
