 Gaussian 16, Revision C.01,

 ----------------------------------------------------------------------
 #t hf aug-cc-pvdz symm=none int=(grid=ultrafine) guess=(read,tcheck) s
 table=(opt,rrhf)
 ----------------------------------------------------------------------
 -----
 title
 -----
 Symbolic Z-matrix:
 Charge =  0 Multiplicity = 1

 SCF Done:  E(RHF) =  -325.093668040     A.U. after   12 cycles
 Normal termination of Gaussian 16 at Wed Apr  9 03:52:51 2025.
 Gaussian 16:  ES64L-G16RevC.01  3-Jul-2019

 ----------------------------------------------------------------------
 #t hf aug-cc-pvdz iop(5/13=1,5/36=2,99/5=2) pseudo=read geom=check gue
 ss=(read,tcheck) scf=(maxcycle=1)
 ----------------------------------------------------------------------
 -----
 title
 -----
 Structure from the checkpoint file:  "Grambow2020_wb97xd3_008233_reverse_mol2.chk"
 Charge =  0 Multiplicity = 1

                         Standard orientation:
 ---------------------------------------------------------------------
 Center     Atomic      Atomic             Coordinates (Angstroms)
 Number     Number       Type             X           Y           Z
 ---------------------------------------------------------------------
      1          6           0       -0.286600   -0.949951    0.759250
      2          6           0       -1.652794   -0.709987    0.127495
      3          6           0       -1.628206    0.796985   -0.105022
      4          7           0       -0.242126    1.050259   -0.473073
      5          6           0        0.631753   -0.006418   -0.035198
      6          8           0        1.110395   -0.663320   -1.216662
      7          6           0        1.821758    0.513981    0.760628
      8          1           0       -0.300513   -0.646628    1.810638
      9          1           0        0.049308   -1.986725    0.711098
     10          1           0        1.715952   -1.359246   -0.949533
     11          1           0       -1.717127   -1.232380   -0.828775
     12          1           0       -2.486746   -1.027738    0.753254
     13          1           0       -2.312832    1.106293   -0.898381
     14          1           0       -1.921320    1.326201    0.813348
     15          1           0        0.094161    1.978178   -0.282551
     16          1           0        2.473705   -0.306333    1.071010
     17          1           0        1.492318    1.039541    1.658887
     18          1           0        2.409351    1.195918    0.142895
 ---------------------------------------------------------------------

 SCF Done:  E(RHF) =  -325.441868438     A.U. after    2 cycles

 The electronic state is 1-A.
 Alpha  occ. eigenvalues --  -20.53112 -15.47329 -11.31069 -11.25089 -11.22888
 Alpha  occ. eigenvalues --  -11.22610 -11.22382  -1.43981  -1.21881  -1.03933
 Alpha  occ. eigenvalues --   -1.01881  -0.92252  -0.81474  -0.79835  -0.70034
 Alpha  occ. eigenvalues --   -0.68133  -0.65351  -0.60485  -0.59399  -0.58120
 Alpha  occ. eigenvalues --   -0.54971  -0.54259  -0.52600  -0.50030  -0.48860
 Alpha  occ. eigenvalues --   -0.47198  -0.42576  -0.39940
 Alpha virt. eigenvalues --    0.03587   0.03782   0.03951   0.04557   0.05531
 Alpha virt. eigenvalues --    0.05671   0.06053   0.06377   0.07457   0.09347
 Alpha virt. eigenvalues --    0.09647   0.12901   0.13703   0.13944   0.14636

 Mulliken charges:
               1
     1  C    0.049293
     2  C   -0.157271
     3  C   -0.278805
     4  N    0.874974
     5  C   -0.447490
     6  O   -1.525363
     7  C    0.009512
     8  H    0.101945
     9  H    0.117818
    10  H    0.267539
    11  H    0.076464
    12  H    0.154658
    13  H    0.047581
    14  H    0.003249
    15  H    0.225411
    16  H    0.140670
    17  H    0.208762
    18  H    0.131054
 Sum of Mulliken charges =  -0.00000

 Dipole moment (field-independent basis, Debye):
    X=              0.1970    Y=             -0.2547    Z=              2.6221  Tot=              2.6418

 Test job not archived.
 1\1\GINC-SE029\SP\RHF\Aug-CC-pVDZ\C5H11N1O1\OHZDE\09-Apr-2025\0\\#t hf
  aug-cc-pvdz iop(5/13=1,5/36=2,99/5=2) pseudo=read geom=check guess=(r
 ead,tcheck) scf=(maxcycle=1)\\title\\0,1\C,0,-0.78719855,-0.00705449,-
 0.64513634\C,0,-1.53919382,0.77488431,0.42549846\C,0,-0.81667832,0.338
 20047,1.6955031\N,0,0.56813629,0.21808728,1.26112163\C,0,0.67231875,0.
 06839099,-0.16670992\O,0,1.29300909,1.26195459,-0.66332376\C,0,1.51744
 928,-1.13428115,-0.56620869\H,0,-1.11687596,-1.05056382,-0.64922665\H,
 0,-0.90975985,0.38998042,-1.65379606\H,0,1.39497604,1.17468579,-1.6143

 Normal termination of Gaussian 16 at Wed Apr  9 03:52:59 2025.
