 Gaussian 16, Revision C.01,

 ----------------------------------------------------------------------
 #t hf aug-cc-pvdz symm=none int=(grid=ultrafine) guess=(read,tcheck) s
 table=(opt,rrhf)
 ----------------------------------------------------------------------
 -----
 title
 -----
 Symbolic Z-matrix:
 Charge =  0 Multiplicity = 1

 SCF Done:  E(RHF) =  -322.646105004     A.U. after   14 cycles
 Normal termination of Gaussian 16 at Wed Apr  9 18:35:40 2025.
 Gaussian 16:  ES64L-G16RevC.01  3-Jul-2019

 ----------------------------------------------------------------------
 #t hf aug-cc-pvdz iop(5/13=1,5/36=2,99/5=2) pseudo=read geom=check gue
 ss=(read,tcheck) scf=(maxcycle=1)
 ----------------------------------------------------------------------
 -----
 title
 -----
 Structure from the checkpoint file:  "Grambow2020_wb97xd3_007749_reverse_mol2.chk"
 Charge =  0 Multiplicity = 1

                         Standard orientation:
 ---------------------------------------------------------------------
 Center     Atomic      Atomic             Coordinates (Angstroms)
 Number     Number       Type             X           Y           Z
 ---------------------------------------------------------------------
      1          6           0       -3.336857   -0.166077   -0.110577
      2          6           0       -2.017643   -0.779324   -0.018342
      3          6           0       -0.941085   -1.301101    0.048482
      4          6           0        3.189545   -1.448277    0.131300
      5          7           0        2.685990   -0.438183   -0.143563
      6          8           0        0.979171    1.732811   -0.422596
      7          6           0        0.199814    1.606060    0.485472
      8          1           0       -3.648456    0.233592    0.855459
      9          1           0       -3.337463    0.646420   -0.838636
     10          1           0       -4.075704   -0.903638   -0.426062
     11          1           0        0.012868   -1.775737    0.094780
     12          1           0        2.201156    0.434083   -0.359648
     13          1           0        0.385450    0.915220    1.323518
     14          1           0       -0.735794    2.187164    0.518285
 ---------------------------------------------------------------------

 SCF Done:  E(RHF) =  -322.970398525     A.U. after    2 cycles

 The electronic state is 1-A.
 Alpha  occ. eigenvalues --  -20.59043 -15.52201 -11.37878 -11.27965 -11.27575
 Alpha  occ. eigenvalues --  -11.25836 -11.24459  -1.52298  -1.25690  -1.07767
 Alpha  occ. eigenvalues --   -0.98091  -0.90588  -0.87835  -0.73791  -0.72364
 Alpha  occ. eigenvalues --   -0.68455  -0.65081  -0.61526  -0.61458  -0.56975
 Alpha  occ. eigenvalues --   -0.53969  -0.53862  -0.48446  -0.46355  -0.41197
 Alpha  occ. eigenvalues --   -0.41118
 Alpha virt. eigenvalues --    0.02344   0.03442   0.04179   0.04732   0.06062
 Alpha virt. eigenvalues --    0.06576   0.07093   0.08819   0.09388   0.10337
 Alpha virt. eigenvalues --    0.10955   0.11731   0.12910   0.13094   0.13294

 Mulliken charges:
               1
     1  C   -0.805738
     2  C   -0.337475
     3  C    0.866561
     4  C   -0.671763
     5  N    0.515536
     6  O   -0.881027
     7  C    0.597465
     8  H    0.238669
     9  H    0.219741
    10  H    0.199472
    11  H   -0.397227
    12  H    0.227678
    13  H    0.195382
    14  H    0.032727
 Sum of Mulliken charges =   0.00000

 Dipole moment (field-independent basis, Debye):
    X=             -4.6008    Y=              2.6682    Z=              1.3784  Tot=              5.4942

 Test job not archived.
 1\1\GINC-SE116\SP\RHF\Aug-CC-pVDZ\C5H7N1O1\OHZDE\09-Apr-2025\0\\#t hf
 aug-cc-pvdz iop(5/13=1,5/36=2,99/5=2) pseudo=read geom=check guess=(re
 ad,tcheck) scf=(maxcycle=1)\\title\\0,1\C,0,-2.65895575,-0.14190873,-0
 .69101528\C,0,-1.3502766,-0.76961927,-0.55594786\C,0,-0.28020646,-1.30
 004644,-0.45956312\C,0,3.7869089,-1.50446985,0.25276508\N,0,3.29786074
 ,-0.45289839,0.18616249\O,0,1.58089653,1.727422,0.23660923\C,0,0.67170
 343,1.36295735,0.93559773\H,0,-3.13475013,-0.02087149,0.28316427\H,0,-
 2.57246429,0.8397056,-1.1591762\H,0,-3.31116974,-0.75678151,-1.3122794

 Normal termination of Gaussian 16 at Wed Apr  9 18:35:44 2025.
