 Gaussian 16, Revision C.01,

 ----------------------------------------------------------------------
 #t hf aug-cc-pvdz symm=none int=(grid=ultrafine) guess=(read,tcheck) s
 table=(opt,rrhf)
 ----------------------------------------------------------------------
 -----
 title
 -----
 Symbolic Z-matrix:
 Charge =  0 Multiplicity = 1

 SCF Done:  E(RHF) =  -375.614258711     A.U. after   17 cycles
 Normal termination of Gaussian 16 at Wed Apr  9 03:46:31 2025.
 Gaussian 16:  ES64L-G16RevC.01  3-Jul-2019

 ----------------------------------------------------------------------
 #t hf aug-cc-pvdz iop(5/13=1,5/36=2,99/5=2) pseudo=read geom=check gue
 ss=(read,tcheck) scf=(maxcycle=1)
 ----------------------------------------------------------------------
 -----
 title
 -----
 Structure from the checkpoint file:  "Grambow2020_wb97xd3_007867_reverse_mol1.chk"
 Charge =  0 Multiplicity = 1

                         Standard orientation:
 ---------------------------------------------------------------------
 Center     Atomic      Atomic             Coordinates (Angstroms)
 Number     Number       Type             X           Y           Z
 ---------------------------------------------------------------------
      1          7           0        1.894661    0.946716   -0.320963
      2          6           0        1.400368   -0.258247    0.015282
      3          8           0        1.983078   -1.318226   -0.045913
      4          6           0       -0.058997   -0.163766    0.491428
      5          8           0       -0.611477    1.018065    0.603043
      6          6           0       -1.811220    0.034517   -0.560152
      7          7           0       -2.882112   -0.376887   -0.172422
      8          1           0        2.864613    1.039026   -0.562198
      9          1           0        1.324114    1.753576   -0.123314
     10          1           0       -0.260569   -0.932529    1.256028
     11          1           0       -0.640079   -0.773532   -0.474365
     12          1           0       -1.450858    0.681620   -1.342634
     13          1           0       -3.078774   -1.030687    0.563785
 ---------------------------------------------------------------------

 SCF Done:  E(RHF) =  -375.992838372     A.U. after    2 cycles

 The electronic state is 1-A.
 Alpha  occ. eigenvalues --  -20.52193 -20.50993 -15.53687 -15.53413 -11.42749
 Alpha  occ. eigenvalues --  -11.36847 -11.35401  -1.47425  -1.43806  -1.28275
 Alpha  occ. eigenvalues --   -1.23546  -0.98237  -0.92263  -0.84242  -0.79746
 Alpha  occ. eigenvalues --   -0.77862  -0.70235  -0.66391  -0.64368  -0.60416
 Alpha  occ. eigenvalues --   -0.59446  -0.58759  -0.50713  -0.47079  -0.44876
 Alpha  occ. eigenvalues --   -0.40591  -0.38787
 Alpha virt. eigenvalues --    0.02955   0.03469   0.04378   0.05313   0.06052
 Alpha virt. eigenvalues --    0.06188   0.07304   0.09819   0.10159   0.11395
 Alpha virt. eigenvalues --    0.11916   0.12532   0.13434   0.14345   0.15123

 Mulliken charges:
               1
     1  N    0.647744
     2  C    0.439145
     3  O   -1.297002
     4  C    0.615951
     5  O   -1.398490
     6  C   -1.007353
     7  N    0.878333
     8  H    0.095789
     9  H    0.104436
    10  H    0.091819
    11  H    0.644533
    12  H    0.042239
    13  H    0.142856
 Sum of Mulliken charges =   0.00000

 Dipole moment (field-independent basis, Debye):
    X=             -0.5233    Y=              0.7733    Z=             -1.0060  Tot=              1.3725

 Test job not archived.
 1\1\GINC-SE229\SP\RHF\Aug-CC-pVDZ\C3H6N2O2\OHZDE\09-Apr-2025\0\\#t hf
 aug-cc-pvdz iop(5/13=1,5/36=2,99/5=2) pseudo=read geom=check guess=(re
 ad,tcheck) scf=(maxcycle=1)\\title\\0,1\N,0,-2.06822498,0.78694558,-0.
 1436381\C,0,-1.45382997,-0.2424713,0.4663963\O,0,-1.88253642,-0.887501
 19,1.39752391\C,0,-0.07283616,-0.52771738,-0.14750819\O,0,0.3050477,0.
 15721917,-1.19749941\C,0,1.73133114,0.42335739,0.08883695\N,0,2.804581
 08,-0.12584138,-0.02479656\H,0,-3.01389128,1.01934583,0.09973109\H,0,-
 1.63126048,1.16414758,-0.96970872\H,0,0.15360753,-1.60558095,-0.091179

 Normal termination of Gaussian 16 at Wed Apr  9 03:46:36 2025.
