 Gaussian 16, Revision C.01,

 ----------------------------------------------------------------------
 #t hf aug-cc-pvdz symm=none int=(grid=ultrafine) guess=(read,tcheck) s
 table=(opt,rrhf)
 ----------------------------------------------------------------------
 -----
 title
 -----
 Symbolic Z-matrix:
 Charge =  0 Multiplicity = 1

 SCF Done:  E(RHF) =  -233.965160761     A.U. after   16 cycles
 Normal termination of Gaussian 16 at Wed Apr  9 15:51:14 2025.
 Gaussian 16:  ES64L-G16RevC.01  3-Jul-2019

 ----------------------------------------------------------------------
 #t hf aug-cc-pvdz iop(5/13=1,5/36=2,99/5=2) pseudo=read geom=check gue
 ss=(read,tcheck) scf=(maxcycle=1)
 ----------------------------------------------------------------------
 -----
 title
 -----
 Structure from the checkpoint file:  "Grambow2020_b97d3_006827_forward_mol1.chk"
 Charge =  0 Multiplicity = 1

                         Standard orientation:
 ---------------------------------------------------------------------
 Center     Atomic      Atomic             Coordinates (Angstroms)
 Number     Number       Type             X           Y           Z
 ---------------------------------------------------------------------
      1          6           0        0.913563    1.428295   -0.265247
      2          6           0        0.475696    0.017253    0.132240
      3          6           0        1.558638   -0.865576    0.441555
      4          6           0       -0.932799    0.068979    0.993513
      5          6           0       -1.816766    0.030227   -0.258031
      6          6           0       -0.549593   -0.612981   -0.808732
      7          1           0        1.605369    1.362810   -1.116154
      8          1           0        0.065736    2.055504   -0.568746
      9          1           0        1.430953    1.918862    0.572088
     10          1           0        2.574845   -0.490333    0.554875
     11          1           0        1.509824   -1.229300   -1.385034
     12          1           0        1.363187   -1.872931    0.807124
     13          1           0       -1.038557   -0.809425    1.633611
     14          1           0       -0.930177    0.999083    1.572497
     15          1           0       -2.048707    1.021204   -0.664355
     16          1           0       -2.711518   -0.597188   -0.226540
     17          1           0        0.858088   -1.048917   -1.885855
     18          1           0       -0.571474   -1.706545   -0.705302
 ---------------------------------------------------------------------

 SCF Done:  E(RHF) =  -234.223457554     A.U. after    2 cycles

 The electronic state is 1-A.
 Alpha  occ. eigenvalues --  -11.27707 -11.27587 -11.25640 -11.25038 -11.23106
 Alpha  occ. eigenvalues --  -11.22900  -1.17387  -1.02165  -0.92885  -0.88258
 Alpha  occ. eigenvalues --   -0.84245  -0.72866  -0.66570  -0.64230  -0.60735
 Alpha  occ. eigenvalues --   -0.60226  -0.55880  -0.53926  -0.53014  -0.51467
 Alpha  occ. eigenvalues --   -0.47965  -0.47564  -0.43092  -0.26296
 Alpha virt. eigenvalues --    0.02881   0.03393   0.03660   0.04664   0.05767
 Alpha virt. eigenvalues --    0.05837   0.06435   0.06566   0.07134   0.08275
 Alpha virt. eigenvalues --    0.09264   0.10167   0.10448   0.12505   0.13583

 Mulliken charges:
               1
     1  C   -0.319335
     2  C   -0.699947
     3  C    0.151300
     4  C    0.067249
     5  C   -0.020342
     6  C    0.205680
     7  H    0.204332
     8  H    0.124708
     9  H    0.243088
    10  H   -0.175962
    11  H    0.029093
    12  H   -0.130314
    13  H   -0.008065
    14  H    0.082969
    15  H    0.078263
    16  H    0.054053
    17  H    0.285443
    18  H   -0.172212
 Sum of Mulliken charges =  -0.00000

 Dipole moment (field-independent basis, Debye):
    X=             -1.7131    Y=              0.5683    Z=              1.5865  Tot=              2.4031

 Test job not archived.
 1\1\GINC-SE232\SP\RHF\Aug-CC-pVDZ\C6H12\OHZDE\09-Apr-2025\0\\#t hf aug
 -cc-pvdz iop(5/13=1,5/36=2,99/5=2) pseudo=read geom=check guess=(read,
 tcheck) scf=(maxcycle=1)\\title\\0,1\C,0,-1.02710739,-1.22393496,0.512
 41824\C,0,-0.41335291,0.0969794,0.04417127\C,0,-1.34402607,0.98363751,
 -0.58472466\C,0,0.75409143,0.59933592,1.0991758\C,0,1.86355206,-0.2026
 9901,0.40990209\C,0,0.88369972,-0.05663292,-0.7482295\H,0,-1.5060778,-
 1.71998443,-0.34282929\H,0,-0.27365024,-1.9097864,0.92012277\H,0,-1.78
 855279,-1.04007244,1.28434722\H,0,-2.41522715,0.78916428,-0.55254575\H

 Normal termination of Gaussian 16 at Wed Apr  9 15:51:20 2025.
