 Gaussian 16, Revision C.01,

 ----------------------------------------------------------------------
 #t hf aug-cc-pvdz symm=none int=(grid=ultrafine) guess=(read,tcheck) s
 table=(opt,rrhf)
 ----------------------------------------------------------------------
 -----
 title
 -----
 Symbolic Z-matrix:
 Charge =  0 Multiplicity = 1

 SCF Done:  E(RHF) =  -359.679275400     A.U. after   15 cycles
 Normal termination of Gaussian 16 at Wed Apr  9 04:05:45 2025.
 Gaussian 16:  ES64L-G16RevC.01  3-Jul-2019

 ----------------------------------------------------------------------
 #t hf aug-cc-pvdz iop(5/13=1,5/36=2,99/5=2) pseudo=read geom=check gue
 ss=(read,tcheck) scf=(maxcycle=1)
 ----------------------------------------------------------------------
 -----
 title
 -----
 Structure from the checkpoint file:  "Grambow2020_wb97xd3_009242_reverse_mol1.chk"
 Charge =  0 Multiplicity = 1

                         Standard orientation:
 ---------------------------------------------------------------------
 Center     Atomic      Atomic             Coordinates (Angstroms)
 Number     Number       Type             X           Y           Z
 ---------------------------------------------------------------------
      1          6           0       -0.898819    1.696011   -0.326968
      2          6           0        0.076349    0.902721    0.513766
      3          6           0       -0.899054   -0.864498    0.425149
      4          8           0       -2.005779   -0.842148   -0.016451
      5          6           0        0.954283   -0.028880   -0.070505
      6          8           0        0.328438   -1.058144   -0.559575
      7          7           0        2.284378   -0.085827    0.029179
      8          1           0       -1.095750    1.209905   -1.280229
      9          1           0       -1.858291    1.785172    0.187203
     10          1           0       -0.515996    2.700761   -0.522965
     11          1           0        0.474977    1.445178    1.370553
     12          1           0       -0.553707   -1.366189    1.332569
     13          1           0        2.812158    0.733662    0.262271
     14          1           0        2.768139   -0.937480   -0.194104
 ---------------------------------------------------------------------

 SCF Done:  E(RHF) =  -360.043597174     A.U. after    2 cycles

 The electronic state is 1-A.
 Alpha  occ. eigenvalues --  -20.58617 -20.50474 -15.56920 -11.39135 -11.38813
 Alpha  occ. eigenvalues --  -11.22884 -11.22653  -1.53856  -1.45336  -1.27087
 Alpha  occ. eigenvalues --   -1.05986  -0.92879  -0.89049  -0.80936  -0.78910
 Alpha  occ. eigenvalues --   -0.72840  -0.67958  -0.65527  -0.61806  -0.59148
 Alpha  occ. eigenvalues --   -0.57216  -0.53985  -0.51313  -0.50548  -0.49200
 Alpha  occ. eigenvalues --   -0.41571  -0.32013
 Alpha virt. eigenvalues --    0.01612   0.03809   0.04300   0.05015   0.05968
 Alpha virt. eigenvalues --    0.06981   0.07262   0.10036   0.10270   0.10979
 Alpha virt. eigenvalues --    0.11475   0.13199   0.13895   0.14499   0.15399

 Mulliken charges:
               1
     1  C   -0.295100
     2  C   -0.272948
     3  C    1.409910
     4  O   -1.181364
     5  C    0.269827
     6  O   -1.473357
     7  N    0.898333
     8  H    0.123791
     9  H    0.181323
    10  H    0.126363
    11  H   -0.172493
    12  H    0.153516
    13  H    0.140635
    14  H    0.091565
 Sum of Mulliken charges =  -0.00000

 Dipole moment (field-independent basis, Debye):
    X=              5.9228    Y=              1.4082    Z=              1.4242  Tot=              6.2523

 Test job not archived.
 1\1\GINC-SE338\SP\RHF\Aug-CC-pVDZ\C4H7N1O2\OHZDE\09-Apr-2025\0\\#t hf
 aug-cc-pvdz iop(5/13=1,5/36=2,99/5=2) pseudo=read geom=check guess=(re
 ad,tcheck) scf=(maxcycle=1)\\title\\0,1\C,0,-1.17293721,-1.17152812,0.
 45848299\C,0,-0.34483831,-0.34056569,-0.49590121\C,0,-0.68493795,1.450
 81667,0.37450481\O,0,-1.54124509,1.48830759,1.20256461\C,0,0.90499105,
 0.18106,-0.11399319\O,0,0.79907875,1.09496513,0.8046002\N,0,2.08476871
 ,0.02620005,-0.71936601\H,0,-0.8963056,-0.98856712,1.49472051\H,0,-2.2
 3086276,-0.91719932,0.36351696\H,0,-1.05287056,-2.23782485,0.25091192\

 Normal termination of Gaussian 16 at Wed Apr  9 04:05:50 2025.
