 Gaussian 16, Revision C.01,

 ----------------------------------------------------------------------
 #t hf aug-cc-pvdz symm=none int=(grid=ultrafine) guess=(read,tcheck) s
 table=(opt,rrhf)
 ----------------------------------------------------------------------
 -----
 title
 -----
 Symbolic Z-matrix:
 Charge =  0 Multiplicity = 1

 SCF Done:  E(RHF) =  -286.605781666     A.U. after   17 cycles
 Normal termination of Gaussian 16 at Wed Apr  9 19:20:22 2025.
 Gaussian 16:  ES64L-G16RevC.01  3-Jul-2019

 ----------------------------------------------------------------------
 #t hf aug-cc-pvdz iop(5/13=1,5/36=2,99/5=2) pseudo=read geom=check gue
 ss=(read,tcheck) scf=(maxcycle=1)
 ----------------------------------------------------------------------
 -----
 title
 -----
 Structure from the checkpoint file:  "Grambow2020_wb97xd3_009349_forward_mol1.chk"
 Charge =  0 Multiplicity = 1

                         Standard orientation:
 ---------------------------------------------------------------------
 Center     Atomic      Atomic             Coordinates (Angstroms)
 Number     Number       Type             X           Y           Z
 ---------------------------------------------------------------------
      1          6           0        2.000044   -0.250901   -0.143112
      2          7           0        0.930918    0.115450    0.664321
      3          6           0        0.358768    1.067547   -0.274802
      4          6           0       -0.991423    0.508208   -0.743399
      5          6           0       -0.783904   -1.024185   -0.698835
      6          6           0       -0.511263   -0.747331    0.789293
      7          6           0       -1.380139    0.405530    0.679388
      8          1           0        2.961136   -0.468314    0.331811
      9          1           0        1.498729    0.930995   -0.947498
     10          1           0        1.827625   -0.821174   -1.059593
     11          1           0        0.454958    2.101930    0.061194
     12          1           0       -1.517448    1.048711   -1.523815
     13          1           0        0.002798   -1.485596   -1.301753
     14          1           0       -1.727828   -1.539973   -0.854662
     15          1           0       -0.450821   -1.468283    1.594619
     16          1           0       -1.718071    1.140341    1.398258
 ---------------------------------------------------------------------

 SCF Done:  E(RHF) =  -286.911195793     A.U. after    2 cycles

 The electronic state is 1-A.
 Alpha  occ. eigenvalues --  -15.49816 -11.29689 -11.28788 -11.26897 -11.25619
 Alpha  occ. eigenvalues --  -11.23828 -11.22861  -1.27839  -1.14345  -0.96039
 Alpha  occ. eigenvalues --   -0.92013  -0.87103  -0.78997  -0.74043  -0.71501
 Alpha  occ. eigenvalues --   -0.67604  -0.66368  -0.60013  -0.56204  -0.53571
 Alpha  occ. eigenvalues --   -0.51067  -0.49419  -0.48657  -0.43068  -0.40011
 Alpha  occ. eigenvalues --   -0.26242
 Alpha virt. eigenvalues --    0.03159   0.03658   0.04012   0.04230   0.04588
 Alpha virt. eigenvalues --    0.05479   0.05543   0.06067   0.07273   0.09194
 Alpha virt. eigenvalues --    0.11462   0.12341   0.12880   0.13554   0.13666

 Mulliken charges:
               1
     1  C   -0.421601
     2  N    0.570624
     3  C   -0.655637
     4  C    0.277475
     5  C    0.264476
     6  C   -0.190208
     7  C    0.330908
     8  H   -0.074282
     9  H    0.580612
    10  H    0.121196
    11  H   -0.133597
    12  H   -0.150634
    13  H   -0.033963
    14  H   -0.046422
    15  H   -0.218457
    16  H   -0.220490
 Sum of Mulliken charges =  -0.00000

 Dipole moment (field-independent basis, Debye):
    X=              0.4026    Y=             -0.3440    Z=             -1.4608  Tot=              1.5538

 Test job not archived.
 1\1\GINC-SE125\SP\RHF\Aug-CC-pVDZ\C6H9N1\OHZDE\09-Apr-2025\0\\#t hf au
 g-cc-pvdz iop(5/13=1,5/36=2,99/5=2) pseudo=read geom=check guess=(read
 ,tcheck) scf=(maxcycle=1)\\title\\0,1\C,0,1.92651172,0.17089769,0.2329
 422\N,0,0.93568555,-0.67964016,-0.24038595\C,0,0.11551517,-0.62990422,
 0.95988154\C,0,-1.19472749,0.08445527,0.60153383\C,0,-0.77243452,1.084
 48906,-0.50068204\C,0,-0.34261493,-0.20047554,-1.22843738\C,0,-1.36989
 652,-0.90093849,-0.48671156\H,0,2.96367483,-0.02771218,-0.05230248\H,0
 ,1.16212002,-0.03324344,1.52494153\H,0,1.71286362,1.23136483,0.3899162

 Normal termination of Gaussian 16 at Wed Apr  9 19:20:29 2025.
