 Gaussian 16, Revision C.01,

 ----------------------------------------------------------------------
 #t hf aug-cc-pvdz symm=none int=(grid=ultrafine) guess=(read,tcheck) s
 table=(opt,rrhf)
 ----------------------------------------------------------------------
 -----
 title
 -----
 Symbolic Z-matrix:
 Charge =  0 Multiplicity = 1

 SCF Done:  E(RHF) =  -322.656305224     A.U. after   16 cycles
 Normal termination of Gaussian 16 at Wed Apr  9 17:52:58 2025.
 Gaussian 16:  ES64L-G16RevC.01  3-Jul-2019

 ----------------------------------------------------------------------
 #t hf aug-cc-pvdz iop(5/13=1,5/36=2,99/5=2) pseudo=read geom=check gue
 ss=(read,tcheck) scf=(maxcycle=1)
 ----------------------------------------------------------------------
 -----
 title
 -----
 Structure from the checkpoint file:  "Grambow2020_wb97xd3_006859_reverse_mol2.chk"
 Charge =  0 Multiplicity = 1

                         Standard orientation:
 ---------------------------------------------------------------------
 Center     Atomic      Atomic             Coordinates (Angstroms)
 Number     Number       Type             X           Y           Z
 ---------------------------------------------------------------------
      1          6           0        2.509485   -0.381631   -0.157952
      2          6           0        1.053054   -0.194425    0.010824
      3          6           0        0.012533   -0.984428    0.190146
      4          6           0       -1.193029   -0.105544    0.343093
      5          7           0       -2.369084   -0.438247   -0.433434
      6          6           0       -0.677358    1.292439    0.078302
      7          8           0        0.617004    1.167137   -0.034240
      8          1           0        2.842072    0.057723   -1.100268
      9          1           0        2.754083   -1.442380   -0.155883
     10          1           0        3.057496    0.108439    0.649029
     11          1           0        0.034352   -2.060499    0.257702
     12          1           0       -2.969642   -1.085361    0.056404
     13          1           0       -2.897457    0.405033   -0.616939
     14          1           0       -1.401461   -0.010791    1.431441
 ---------------------------------------------------------------------

 SCF Done:  E(RHF) =  -322.986611998     A.U. after    2 cycles

 The electronic state is 1-A.
 Alpha  occ. eigenvalues --  -20.61594 -15.49651 -11.31091 -11.30190 -11.27489
 Alpha  occ. eigenvalues --  -11.25512 -11.24052  -1.55196  -1.20109  -1.09386
 Alpha  occ. eigenvalues --   -1.03083  -0.92910  -0.82246  -0.77726  -0.70388
 Alpha  occ. eigenvalues --   -0.68253  -0.66456  -0.62206  -0.60397  -0.57176
 Alpha  occ. eigenvalues --   -0.56802  -0.56040  -0.54158  -0.44119  -0.37720
 Alpha  occ. eigenvalues --   -0.36469
 Alpha virt. eigenvalues --    0.03070   0.03479   0.04371   0.04646   0.06191
 Alpha virt. eigenvalues --    0.06519   0.07091   0.09013   0.10059   0.10868
 Alpha virt. eigenvalues --    0.11161   0.13468   0.13664   0.14360   0.15083

 Mulliken charges:
               1
     1  C   -0.607995
     2  C    1.113869
     3  C    0.334361
     4  C   -1.339334
     5  N    0.393870
     6  C    0.317937
     7  O   -1.437230
     8  H    0.230729
     9  H    0.170771
    10  H    0.231672
    11  H   -0.100464
    12  H    0.148107
    13  H    0.204749
    14  H    0.338958
 Sum of Mulliken charges =  -0.00000

 Dipole moment (field-independent basis, Debye):
    X=              0.9341    Y=             -2.8504    Z=              1.3969  Tot=              3.3088

 Test job not archived.
 1\1\GINC-SE173\SP\RHF\Aug-CC-pVDZ\C5H7N1O1\OHZDE\09-Apr-2025\0\\#t hf
 aug-cc-pvdz iop(5/13=1,5/36=2,99/5=2) pseudo=read geom=check guess=(re
 ad,tcheck) scf=(maxcycle=1)\\title\\0,1\C,0,2.41444705,-0.018987,-0.07
 341609\C,0,0.94374383,0.10408481,0.00786884\C,0,-0.06230891,-0.7154874
 9,0.2426097\C,0,-1.31762118,0.10502851,0.23017672\N,0,-2.43512116,-0.3
 8958305,-0.54657626\C,0,-0.86215952,1.48589092,-0.18953911\O,0,0.44091
 887,1.42190032,-0.22993628\H,0,2.77018054,0.3167585,-1.04929262\H,0,2.
 71294502,-1.05526516,0.07506943\H,0,2.89589551,0.59927849,0.68662227\H

 Normal termination of Gaussian 16 at Wed Apr  9 17:53:03 2025.
