 Gaussian 16, Revision C.01,

 ----------------------------------------------------------------------
 #t hf aug-cc-pvdz symm=none int=(grid=ultrafine) guess=(read,tcheck) s
 table=(opt,rrhf)
 ----------------------------------------------------------------------
 -----
 title
 -----
 Symbolic Z-matrix:
 Charge =  0 Multiplicity = 1

 SCF Done:  E(RHF) =  -306.655176397     A.U. after   16 cycles
 Normal termination of Gaussian 16 at Wed Apr  9 19:09:01 2025.
 Gaussian 16:  ES64L-G16RevC.01  3-Jul-2019

 ----------------------------------------------------------------------
 #t hf aug-cc-pvdz iop(5/13=1,5/36=2,99/5=2) pseudo=read geom=check gue
 ss=(read,tcheck) scf=(maxcycle=1)
 ----------------------------------------------------------------------
 -----
 title
 -----
 Structure from the checkpoint file:  "Grambow2020_wb97xd3_008795_reverse_mol2.chk"
 Charge =  0 Multiplicity = 1

                         Standard orientation:
 ---------------------------------------------------------------------
 Center     Atomic      Atomic             Coordinates (Angstroms)
 Number     Number       Type             X           Y           Z
 ---------------------------------------------------------------------
      1          8           0        2.300185   -0.061112   -0.165601
      2          6           0        1.109045   -0.042866    0.002929
      3          6           0        0.257256   -1.286372   -0.106128
      4          6           0       -1.177019   -1.065069    0.355872
      5          6           0       -1.751091    0.197636   -0.284023
      6          6           0       -1.000486    1.462804   -0.182888
      7          6           0        0.381968    1.266120    0.286694
      8          1           0        0.275798   -1.571517   -1.164175
      9          1           0        0.757417   -2.092090    0.433879
     10          1           0       -1.791859   -1.935654    0.118885
     11          1           0       -1.208026   -0.957863    1.445300
     12          1           0       -1.760387    0.107011   -1.390050
     13          1           0       -2.805216    0.361061   -0.044912
     14          1           0        0.162312    1.274458    1.376054
     15          1           0        1.050450    2.109968    0.115090
 ---------------------------------------------------------------------

 SCF Done:  E(RHF) =  -306.971411674     A.U. after    2 cycles

 The electronic state is 1-A.
 Alpha  occ. eigenvalues --  -20.54092 -11.34615 -11.27965 -11.25799 -11.25581
 Alpha  occ. eigenvalues --  -11.25516 -11.25503  -1.48086  -1.14732  -1.04238
 Alpha  occ. eigenvalues --   -1.00796  -0.87943  -0.79979  -0.72219  -0.67987
 Alpha  occ. eigenvalues --   -0.66250  -0.64587  -0.60280  -0.59077  -0.58348
 Alpha  occ. eigenvalues --   -0.54303  -0.52399  -0.50968  -0.48502  -0.42883
 Alpha  occ. eigenvalues --   -0.34760
 Alpha virt. eigenvalues --    0.02832   0.03264   0.03830   0.04298   0.06075
 Alpha virt. eigenvalues --    0.06426   0.06653   0.07056   0.07416   0.09120
 Alpha virt. eigenvalues --    0.11190   0.12191   0.13826   0.14107   0.14307

 Mulliken charges:
               1
     1  O   -1.397988
     2  C    1.112717
     3  C   -0.332667
     4  C   -0.083182
     5  C   -0.203244
     6  C   -0.552695
     7  C   -0.385080
     8  H    0.262061
     9  H    0.201745
    10  H    0.136633
    11  H    0.158815
    12  H    0.352293
    13  H    0.136700
    14  H    0.519323
    15  H    0.074571
 Sum of Mulliken charges =  -0.00000

 Dipole moment (field-independent basis, Debye):
    X=             -2.5366    Y=             -2.2343    Z=              0.9113  Tot=              3.5010

 Test job not archived.
 1\1\GINC-SE117\SP\RHF\Aug-CC-pVDZ\C6H8O1\OHZDE\09-Apr-2025\0\\#t hf au
 g-cc-pvdz iop(5/13=1,5/36=2,99/5=2) pseudo=read geom=check guess=(read
 ,tcheck) scf=(maxcycle=1)\\title\\0,1\O,0,0.99702074,-2.51143389,0.055
 31939\C,0,0.59922317,-1.37682991,0.09983262\C,0,-0.86309267,-1.0256610
 9,-0.04868595\C,0,-1.15525679,0.43792314,0.25483584\C,0,-0.17153159,1.
 33990954,-0.48823375\C,0,1.27584592,1.0896501,-0.35880538\C,0,1.572968
 57,-0.21510604,0.25739349\H,0,-1.12384382,-1.25753267,-1.08760753\H,0,
 -1.44418435,-1.7115017,0.57010866\H,0,-2.18546345,0.68342125,-0.010711

 Normal termination of Gaussian 16 at Wed Apr  9 19:09:06 2025.
