 Gaussian 16, Revision C.01,

 ----------------------------------------------------------------------
 #t hf aug-cc-pvdz symm=none int=(grid=ultrafine) guess=(read,tcheck) s
 table=(opt,rrhf)
 ----------------------------------------------------------------------
 -----
 title
 -----
 Symbolic Z-matrix:
 Charge =  0 Multiplicity = 1

 SCF Done:  E(RHF) =  -306.680414575     A.U. after   15 cycles
 Normal termination of Gaussian 16 at Wed Apr  9 19:08:58 2025.
 Gaussian 16:  ES64L-G16RevC.01  3-Jul-2019

 ----------------------------------------------------------------------
 #t hf aug-cc-pvdz iop(5/13=1,5/36=2,99/5=2) pseudo=read geom=check gue
 ss=(read,tcheck) scf=(maxcycle=1)
 ----------------------------------------------------------------------
 -----
 title
 -----
 Structure from the checkpoint file:  "Grambow2020_wb97xd3_008775_reverse_mol2.chk"
 Charge =  0 Multiplicity = 1

                         Standard orientation:
 ---------------------------------------------------------------------
 Center     Atomic      Atomic             Coordinates (Angstroms)
 Number     Number       Type             X           Y           Z
 ---------------------------------------------------------------------
      1          8           0       -0.688228    1.936743   -0.427720
      2          6           0       -0.605023    0.907559    0.169203
      3          6           0       -1.184989   -0.409137    0.434302
      4          6           0       -1.355139   -1.415799   -0.675204
      5          6           0        2.179077   -0.043373   -0.597010
      6          6           0        1.487639   -0.568211    0.403878
      7          6           0        0.246441    0.017945    0.967457
      8          1           0       -1.925035   -0.453449    1.228076
      9          1           0       -1.337480   -2.434774   -0.284294
     10          1           0       -0.559851   -1.323032   -1.415780
     11          1           0       -2.307168   -1.260745   -1.184619
     12          1           0        3.070155   -0.528816   -0.975777
     13          1           0        1.882814    0.890354   -1.062269
     14          1           0        1.821326   -1.497583    0.859074
     15          1           0        0.253028    0.180198    2.041591
 ---------------------------------------------------------------------

 SCF Done:  E(RHF) =  -306.997885114     A.U. after    2 cycles

 The electronic state is 1-A.
 Alpha  occ. eigenvalues --  -20.55413 -11.34871 -11.26308 -11.26201 -11.25653
 Alpha  occ. eigenvalues --  -11.24376 -11.24295  -1.48507  -1.17963  -1.05609
 Alpha  occ. eigenvalues --   -0.98363  -0.86449  -0.77702  -0.74086  -0.68866
 Alpha  occ. eigenvalues --   -0.66699  -0.64018  -0.61638  -0.58279  -0.57048
 Alpha  occ. eigenvalues --   -0.55136  -0.51847  -0.51482  -0.46372  -0.38269
 Alpha  occ. eigenvalues --   -0.37432
 Alpha virt. eigenvalues --    0.02847   0.03546   0.03909   0.04504   0.05571
 Alpha virt. eigenvalues --    0.06388   0.07110   0.07710   0.08819   0.11214
 Alpha virt. eigenvalues --    0.11364   0.11684   0.13358   0.13952   0.14518

 Mulliken charges:
               1
     1  O   -1.267670
     2  C    1.118921
     3  C   -0.050034
     4  C   -0.578374
     5  C   -0.155267
     6  C    0.543130
     7  C    0.245292
     8  H   -0.061772
     9  H    0.202773
    10  H    0.200483
    11  H    0.211613
    12  H   -0.109487
    13  H   -0.084185
    14  H   -0.178483
    15  H   -0.036940
 Sum of Mulliken charges =  -0.00000

 Dipole moment (field-independent basis, Debye):
    X=              0.1696    Y=             -2.9407    Z=              1.3042  Tot=              3.2214

 Test job not archived.
 1\1\GINC-SE083\SP\RHF\Aug-CC-pVDZ\C6H8O1\OHZDE\09-Apr-2025\0\\#t hf au
 g-cc-pvdz iop(5/13=1,5/36=2,99/5=2) pseudo=read geom=check guess=(read
 ,tcheck) scf=(maxcycle=1)\\title\\0,1\O,0,0.70507449,-0.86143891,2.226
 71874\C,0,0.48182749,-0.92131652,1.05666088\C,0,-0.48428634,-1.2394015
 8,0.00510393\C,0,-1.79406373,-0.49864874,-0.09022846\C,0,1.12885679,1.
 90583761,0.14500223\C,0,0.97281074,0.89453786,-0.69656796\C,0,0.903413
 35,-0.53195939,-0.29399833\H,0,-0.50191812,-2.27241625,-0.32997462\H,0
 ,-2.1645877,-0.49073524,-1.11691414\H,0,-1.68590547,0.53547183,0.23907

 Normal termination of Gaussian 16 at Wed Apr  9 19:09:03 2025.
