 Gaussian 16, Revision C.01,

 ----------------------------------------------------------------------
 #t hf aug-cc-pvdz symm=none int=(grid=ultrafine) guess=(read,tcheck) s
 table=(opt,rrhf)
 ----------------------------------------------------------------------
 -----
 title
 -----
 Symbolic Z-matrix:
 Charge =  0 Multiplicity = 1

 SCF Done:  E(RHF) =  -301.925990922     A.U. after   15 cycles
 Normal termination of Gaussian 16 at Wed Apr  9 03:15:01 2025.
 Gaussian 16:  ES64L-G16RevC.01  3-Jul-2019

 ----------------------------------------------------------------------
 #t hf aug-cc-pvdz iop(5/13=1,5/36=2,99/5=2) pseudo=read geom=check gue
 ss=(read,tcheck) scf=(maxcycle=1)
 ----------------------------------------------------------------------
 -----
 title
 -----
 Structure from the checkpoint file:  "Grambow2020_b97d3_006938_forward_mol1.chk"
 Charge =  0 Multiplicity = 1

                         Standard orientation:
 ---------------------------------------------------------------------
 Center     Atomic      Atomic             Coordinates (Angstroms)
 Number     Number       Type             X           Y           Z
 ---------------------------------------------------------------------
      1          6           0       -2.592838   -0.188474    0.590501
      2          7           0       -1.209789   -0.342696   -0.595497
      3          6           0        0.038258    0.261365   -0.249054
      4          8           0        0.145357    1.465304   -0.074276
      5          7           0        1.064469   -0.649731   -0.151955
      6          6           0        2.377425   -0.234624    0.328921
      7          1           0       -2.617291   -1.221922    0.978398
      8          1           0       -2.133634    0.227914   -0.786467
      9          1           0       -2.075807    0.441264    1.333190
     10          1           0       -1.212181   -1.271577   -1.014130
     11          1           0        0.821190   -1.628147   -0.037288
     12          1           0        2.466478   -0.330410    1.422339
     13          1           0        3.155775   -0.839226   -0.153166
     14          1           0        2.512791    0.817066    0.061290
 ---------------------------------------------------------------------

 SCF Done:  E(RHF) =  -302.234777750     A.U. after    2 cycles

 The electronic state is 1-A.
 Alpha  occ. eigenvalues --  -20.52546 -15.56097 -15.54720 -11.40946 -11.28431
 Alpha  occ. eigenvalues --  -11.25069  -1.47692  -1.27409  -1.21545  -0.98657
 Alpha  occ. eigenvalues --   -0.89422  -0.84249  -0.80164  -0.74597  -0.66947
 Alpha  occ. eigenvalues --   -0.65741  -0.63900  -0.58743  -0.57175  -0.54380
 Alpha  occ. eigenvalues --   -0.48663  -0.46279  -0.43796  -0.34937
 Alpha virt. eigenvalues --    0.02067   0.03935   0.04649   0.05034   0.05456
 Alpha virt. eigenvalues --    0.06526   0.07128   0.07455   0.09715   0.11394
 Alpha virt. eigenvalues --    0.12463   0.12995   0.13888   0.14223   0.14864

 Mulliken charges:
               1
     1  C   -0.489281
     2  N    0.350613
     3  C    0.133008
     4  O   -1.195512
     5  N    0.409852
     6  C   -0.440705
     7  H    0.114125
     8  H    0.547963
     9  H    0.060984
    10  H    0.027551
    11  H    0.103846
    12  H    0.157940
    13  H    0.108088
    14  H    0.111528
 Sum of Mulliken charges =  -0.00000

 Dipole moment (field-independent basis, Debye):
    X=              2.7346    Y=             -4.3642    Z=             -0.1769  Tot=              5.1532

 Test job not archived.
 1\1\GINC-SE344\SP\RHF\Aug-CC-pVDZ\C3H8N2O1\OHZDE\09-Apr-2025\0\\#t hf
 aug-cc-pvdz iop(5/13=1,5/36=2,99/5=2) pseudo=read geom=check guess=(re
 ad,tcheck) scf=(maxcycle=1)\\title\\0,1\C,0,-2.52759094,0.83985426,0.3
 1009514\N,0,-1.314186,-0.52785259,0.29507069\C,0,-0.1312731,-0.3632873
 1,-0.48989438\O,0,-0.17696617,-0.21150983,-1.7008288\N,0,1.01979675,-0
 .40659997,0.26229958\C,0,2.31231627,-0.11707815,-0.34842015\H,0,-2.347
 89471,1.23267421,1.32620506\H,0,-2.3285149,-0.59009925,-0.1325001\H,0,
 -2.0098044,1.49928669,-0.40581291\H,0,-1.2395542,-0.93719323,1.2250970

 Normal termination of Gaussian 16 at Wed Apr  9 03:15:05 2025.
