 Gaussian 16, Revision C.01,

 ----------------------------------------------------------------------
 #t hf aug-cc-pvdz symm=none int=(grid=ultrafine) guess=(read,tcheck) s
 table=(opt,rrhf)
 ----------------------------------------------------------------------
 -----
 title
 -----
 Symbolic Z-matrix:
 Charge =  0 Multiplicity = 1

 SCF Done:  E(RHF) =  -333.572553355     A.U. after   16 cycles
 Normal termination of Gaussian 16 at Wed Apr  9 03:33:16 2025.
 Gaussian 16:  ES64L-G16RevC.01  3-Jul-2019

 ----------------------------------------------------------------------
 #t hf aug-cc-pvdz iop(5/13=1,5/36=2,99/5=2) pseudo=read geom=check gue
 ss=(read,tcheck) scf=(maxcycle=1)
 ----------------------------------------------------------------------
 -----
 title
 -----
 Structure from the checkpoint file:  "Grambow2020_wb97xd3_006983_forward_mol1.chk"
 Charge =  0 Multiplicity = 1

                         Standard orientation:
 ---------------------------------------------------------------------
 Center     Atomic      Atomic             Coordinates (Angstroms)
 Number     Number       Type             X           Y           Z
 ---------------------------------------------------------------------
      1          7           0        2.213927   -0.032193   -0.064229
      2          6           0        0.852335   -0.052171   -0.019188
      3          6           0        0.114114    1.182477   -0.027330
      4          7           0       -1.172597    1.233285    0.076639
      5          6           0       -1.821622    0.021511   -0.078021
      6          7           0       -1.098925   -1.108835   -0.097880
      7          7           0        0.239351   -1.200999    0.084505
      8          1           0        2.692936    0.812786    0.188609
      9          1           0        2.678865   -0.896093    0.157816
     10          1           0        0.668337    2.121266   -0.016696
     11          1           0       -2.181398   -1.187668    0.424267
 ---------------------------------------------------------------------

 SCF Done:  E(RHF) =  -333.907247678     A.U. after    2 cycles

 The electronic state is 1-A.
 Alpha  occ. eigenvalues --  -15.57380 -15.55490 -15.54764 -15.53797 -11.35365
 Alpha  occ. eigenvalues --  -11.33023 -11.28873  -1.38403  -1.27325  -1.25496
 Alpha  occ. eigenvalues --   -1.15325  -0.97621  -0.94047  -0.83206  -0.78602
 Alpha  occ. eigenvalues --   -0.73343  -0.70748  -0.67228  -0.63023  -0.57277
 Alpha  occ. eigenvalues --   -0.56387  -0.50770  -0.46216  -0.41131  -0.37941
 Alpha virt. eigenvalues --    0.01713   0.02046   0.04153   0.05201   0.06170
 Alpha virt. eigenvalues --    0.08775   0.09255   0.09822   0.10552   0.11461
 Alpha virt. eigenvalues --    0.11988   0.12624   0.12784   0.13695   0.15877

 Mulliken charges:
               1
     1  N    0.745688
     2  C   -1.556805
     3  C   -0.221620
     4  N    0.687638
     5  C   -0.783874
     6  N    0.062702
     7  N    0.401477
     8  H    0.108787
     9  H    0.025747
    10  H   -0.047216
    11  H    0.577476
 Sum of Mulliken charges =  -0.00000

 Dipole moment (field-independent basis, Debye):
    X=              4.9045    Y=              1.7151    Z=              1.2574  Tot=              5.3457

 Test job not archived.
 1\1\GINC-SE195\SP\RHF\Aug-CC-pVDZ\C3H4N4\OHZDE\09-Apr-2025\0\\#t hf au
 g-cc-pvdz iop(5/13=1,5/36=2,99/5=2) pseudo=read geom=check guess=(read
 ,tcheck) scf=(maxcycle=1)\\title\\0,1\N,0,1.78527622,-0.21963978,-0.71
 121907\C,0,0.49022857,-0.11380662,-0.3013272\C,0,0.11955108,0.89075218
 ,0.65932418\N,0,-1.07658184,1.00204269,1.13461014\C,0,-2.04387694,0.27
 514255,0.46415693\N,0,-1.66387563,-0.63170283,-0.44885856\N,0,-0.38839
 066,-0.9683743,-0.75304682\H,0,2.50592299,0.18863942,-0.14434863\H,0,2
 .02681767,-1.05959863,-1.20913643\H,0,0.90207878,1.52026377,1.08354988

 Normal termination of Gaussian 16 at Wed Apr  9 03:33:23 2025.
