 Gaussian 16, Revision C.01,

 ----------------------------------------------------------------------
 #t hf aug-cc-pvdz symm=none int=(grid=ultrafine) guess=(read,tcheck) s
 table=(opt,rrhf)
 ----------------------------------------------------------------------
 -----
 title
 -----
 Symbolic Z-matrix:
 Charge =  0 Multiplicity = 1

 SCF Done:  E(RHF) =  -268.672836015     A.U. after   17 cycles
 Normal termination of Gaussian 16 at Wed Apr  9 15:56:55 2025.
 Gaussian 16:  ES64L-G16RevC.01  3-Jul-2019

 ----------------------------------------------------------------------
 #t hf aug-cc-pvdz iop(5/13=1,5/36=2,99/5=2) pseudo=read geom=check gue
 ss=(read,tcheck) scf=(maxcycle=1)
 ----------------------------------------------------------------------
 -----
 title
 -----
 Structure from the checkpoint file:  "Grambow2020_b97d3_007038_reverse_mol1.chk"
 Charge =  0 Multiplicity = 1

                         Standard orientation:
 ---------------------------------------------------------------------
 Center     Atomic      Atomic             Coordinates (Angstroms)
 Number     Number       Type             X           Y           Z
 ---------------------------------------------------------------------
      1          6           0        3.106992   -0.136778    0.112893
      2          6           0        1.737534   -0.002246   -0.189439
      3          6           0        0.452082   -0.039309   -0.038402
      4          6           0       -0.660813    0.901010    0.228355
      5          6           0       -2.015324    0.344838   -0.269573
      6          8           0       -2.213492   -0.981830    0.180776
      7          1           0        2.109358   -0.869075   -0.898682
      8          1           0        3.855011   -0.079780   -0.675467
      9          1           0        3.433746   -0.453146    1.106163
     10          1           0       -0.712903    0.982995    1.330272
     11          1           0       -0.475634    1.915593   -0.162707
     12          1           0       -2.841120    0.951244    0.127134
     13          1           0       -2.042121    0.416439   -1.374162
     14          1           0       -1.341223   -1.414727    0.038233
 ---------------------------------------------------------------------

 SCF Done:  E(RHF) =  -268.953922266     A.U. after    2 cycles

 The electronic state is 1-A.
 Alpha  occ. eigenvalues --  -20.53066 -11.30804 -11.27935 -11.27324 -11.25558
 Alpha  occ. eigenvalues --  -11.25018  -1.42914  -1.11228  -1.04006  -0.93731
 Alpha  occ. eigenvalues --   -0.84787  -0.72628  -0.68074  -0.65131  -0.64280
 Alpha  occ. eigenvalues --   -0.62281  -0.56274  -0.55252  -0.54431  -0.48253
 Alpha  occ. eigenvalues --   -0.42613  -0.40085  -0.30357
 Alpha virt. eigenvalues --    0.02616   0.03830   0.04026   0.04630   0.05607
 Alpha virt. eigenvalues --    0.05800   0.06198   0.07382   0.07912   0.10030
 Alpha virt. eigenvalues --    0.11625   0.12245   0.13394   0.13912   0.14234

 Mulliken charges:
               1
     1  C   -0.208330
     2  C   -0.134208
     3  C    0.175474
     4  C   -0.839272
     5  C    0.719272
     6  O   -1.167158
     7  H    0.374191
     8  H   -0.044042
     9  H   -0.032321
    10  H    0.324484
    11  H    0.183003
    12  H    0.069422
    13  H    0.150600
    14  H    0.428886
 Sum of Mulliken charges =  -0.00000

 Dipole moment (field-independent basis, Debye):
    X=              3.4830    Y=              1.3062    Z=             -0.3018  Tot=              3.7321

 Test job not archived.
 1\1\GINC-SE138\SP\RHF\Aug-CC-pVDZ\C5H8O1\OHZDE\09-Apr-2025\0\\#t hf au
 g-cc-pvdz iop(5/13=1,5/36=2,99/5=2) pseudo=read geom=check guess=(read
 ,tcheck) scf=(maxcycle=1)\\title\\0,1\C,0,2.88993465,0.00500516,-0.566
 65601\C,0,1.56513894,-0.12540224,-0.10532175\C,0,0.2969678,0.10214136,
 0.02328096\C,0,-0.9863694,-0.4858675,-0.42525403\C,0,-2.15279833,-0.10
 728883,0.51712758\O,0,-2.17101611,1.28571025,0.76482437\H,0,2.16544857
 ,0.25854354,0.83536282\H,0,3.70712761,-0.49215583,-0.04769593\H,0,3.14
 310837,0.72348851,-1.34968081\H,0,-1.18582233,-0.02743961,-1.41202548\

 Normal termination of Gaussian 16 at Wed Apr  9 15:56:59 2025.
