 Gaussian 16, Revision C.01,

 ----------------------------------------------------------------------
 #t hf aug-cc-pvdz symm=none int=(grid=ultrafine) guess=(read,tcheck) s
 table=(opt,rrhf)
 ----------------------------------------------------------------------
 -----
 title
 -----
 Symbolic Z-matrix:
 Charge =  0 Multiplicity = 1

 SCF Done:  E(RHF) =  -273.214749761     A.U. after   13 cycles
 Normal termination of Gaussian 16 at Wed Apr  9 03:46:04 2025.
 Gaussian 16:  ES64L-G16RevC.01  3-Jul-2019

 ----------------------------------------------------------------------
 #t hf aug-cc-pvdz iop(5/13=1,5/36=2,99/5=2) pseudo=read geom=check gue
 ss=(read,tcheck) scf=(maxcycle=1)
 ----------------------------------------------------------------------
 -----
 title
 -----
 Structure from the checkpoint file:  "Grambow2020_wb97xd3_007781_reverse_mol2.chk"
 Charge =  0 Multiplicity = 1

                         Standard orientation:
 ---------------------------------------------------------------------
 Center     Atomic      Atomic             Coordinates (Angstroms)
 Number     Number       Type             X           Y           Z
 ---------------------------------------------------------------------
      1          6           0        1.727963    1.355026   -0.383507
      2          6           0        1.588581   -0.087889    0.003404
      3          6           0        1.235640   -0.339182    1.439915
      4          6           0        1.758773   -1.075360   -0.867684
      5          6           0       -1.891116    0.166726   -0.503007
      6          6           0       -2.287479    1.242708    0.159992
      7          6           0       -2.082043   -1.243272   -0.046324
      8          1           0        1.970300    1.470243   -1.439940
      9          1           0        0.798502    1.893386   -0.177871
     10          1           0        2.512629    1.837695    0.206164
     11          1           0        1.984299    0.099678    2.105456
     12          1           0        0.277902    0.131543    1.681706
     13          1           0        1.162728   -1.404524    1.659396
     14          1           0       -1.117933   -1.752639    0.026474
     15          1           0        2.008554   -0.880045   -1.904387
     16          1           0        1.656530   -2.113819   -0.572566
     17          1           0       -1.376348    0.293422   -1.452430
     18          1           0       -2.799519    1.163858    1.113875
     19          1           0       -2.119320    2.241177   -0.225597
     20          1           0       -2.685693   -1.805776   -0.763283
     21          1           0       -2.574537   -1.286737    0.926270
 ---------------------------------------------------------------------

 SCF Done:  E(RHF) =  -273.519319624     A.U. after    2 cycles

 The electronic state is 1-A.
 Alpha  occ. eigenvalues --  -11.24192 -11.23907 -11.22743 -11.22551 -11.22515
 Alpha  occ. eigenvalues --  -11.22411 -11.21538  -1.09281  -1.06728  -0.94224
 Alpha  occ. eigenvalues --   -0.93381  -0.92928  -0.75940  -0.72377  -0.64830
 Alpha  occ. eigenvalues --   -0.62776  -0.61943  -0.59840  -0.59348  -0.56918
 Alpha  occ. eigenvalues --   -0.54063  -0.52945  -0.52623  -0.52296  -0.49614
 Alpha  occ. eigenvalues --   -0.48747  -0.36702  -0.35469
 Alpha virt. eigenvalues --    0.03462   0.03650   0.03867   0.04227   0.05619
 Alpha virt. eigenvalues --    0.05876   0.06047   0.06078   0.07116   0.08323
 Alpha virt. eigenvalues --    0.08677   0.09309   0.09713   0.10590   0.12204

 Mulliken charges:
               1
     1  C   -0.613325
     2  C    0.360210
     3  C   -0.503972
     4  C    0.146999
     5  C    0.620932
     6  C   -0.037086
     7  C   -0.606176
     8  H    0.110482
     9  H    0.172570
    10  H    0.232686
    11  H    0.153181
    12  H    0.247570
    13  H    0.084958
    14  H    0.180486
    15  H   -0.194239
    16  H   -0.186126
    17  H   -0.202108
    18  H   -0.121154
    19  H   -0.130396
    20  H    0.176381
    21  H    0.108129
 Sum of Mulliken charges =  -0.00000

 Dipole moment (field-independent basis, Debye):
    X=             -0.0048    Y=              0.0587    Z=              0.2695  Tot=              0.2758

 Test job not archived.
 1\1\GINC-SE226\SP\RHF\Aug-CC-pVDZ\C7H14\OHZDE\09-Apr-2025\0\\#t hf aug
 -cc-pvdz iop(5/13=1,5/36=2,99/5=2) pseudo=read geom=check guess=(read,
 tcheck) scf=(maxcycle=1)\\title\\0,1\C,0,-1.11051927,1.89077243,0.4758
 2749\C,0,-1.51015541,0.46290351,0.24644894\C,0,-1.4839687,0.00755714,-
 1.18297488\C,0,-1.85649994,-0.345212,1.241363\C,0,1.89670353,-0.443083
 04,0.2919726\C,0,2.51490009,0.38584016,-0.53575246\C,0,1.54513068,-1.8
 624017,-0.01630708\H,0,-1.13638427,2.15451609,1.53309925\H,0,-0.099769
 03,2.06633252,0.09691375\H,0,-1.77601601,2.56869257,-0.06631562\H,0,-2

 Normal termination of Gaussian 16 at Wed Apr  9 03:46:13 2025.
