 Gaussian 16, Revision C.01,

 ----------------------------------------------------------------------
 #t hf aug-cc-pvdz symm=none int=(grid=ultrafine) guess=(read,tcheck) s
 table=(opt,rrhf)
 ----------------------------------------------------------------------
 -----
 title
 -----
 Symbolic Z-matrix:
 Charge =  0 Multiplicity = 1

 SCF Done:  E(RHF) =  -357.338814024     A.U. after   16 cycles
 Normal termination of Gaussian 16 at Wed Apr  9 03:59:24 2025.
 Gaussian 16:  ES64L-G16RevC.01  3-Jul-2019

 ----------------------------------------------------------------------
 #t hf aug-cc-pvdz iop(5/13=1,5/36=2,99/5=2) pseudo=read geom=check gue
 ss=(read,tcheck) scf=(maxcycle=1)
 ----------------------------------------------------------------------
 -----
 title
 -----
 Structure from the checkpoint file:  "Grambow2020_wb97xd3_008753_reverse_mol2.chk"
 Charge =  0 Multiplicity = 1

                         Standard orientation:
 ---------------------------------------------------------------------
 Center     Atomic      Atomic             Coordinates (Angstroms)
 Number     Number       Type             X           Y           Z
 ---------------------------------------------------------------------
      1          8           0        2.325464   -0.882385    0.388348
      2          6           0        1.838800   -0.056922   -0.325166
      3          6           0        0.507094    0.541993   -0.053408
      4          7           0       -0.232567    1.439939   -0.484612
      5          8           0       -1.847752   -0.996762   -0.671105
      6          6           0       -1.803821   -0.397350    0.367913
      7          6           0       -0.737768    0.592686    0.690465
      8          1           0        2.334379    0.330382   -1.231800
      9          1           0       -2.564086   -0.554389    1.156993
     10          1           0       -0.789852    1.095170    1.650324
 ---------------------------------------------------------------------

 SCF Done:  E(RHF) =  -357.689874989     A.U. after    2 cycles

 The electronic state is 1-A.
 Alpha  occ. eigenvalues --  -20.59998 -20.56339 -15.58102 -11.39458 -11.35907
 Alpha  occ. eigenvalues --  -11.33801 -11.31782  -1.53202  -1.49869  -1.36697
 Alpha  occ. eigenvalues --   -1.00451  -0.96994  -0.83108  -0.78665  -0.73949
 Alpha  occ. eigenvalues --   -0.71780  -0.70548  -0.65719  -0.62144  -0.58631
 Alpha  occ. eigenvalues --   -0.56204  -0.50528  -0.49811  -0.44552  -0.43744
 Alpha virt. eigenvalues --    0.02461   0.03050   0.03841   0.04700   0.06562
 Alpha virt. eigenvalues --    0.08439   0.08786   0.09529   0.11232   0.11809
 Alpha virt. eigenvalues --    0.12064   0.12882   0.14057   0.14385   0.15022

 Mulliken charges:
               1
     1  O   -1.064835
     2  C    1.135990
     3  C   -0.361550
     4  N    0.747542
     5  O   -1.134693
     6  C    0.820462
     7  C   -0.267714
     8  H    0.125046
     9  H    0.154411
    10  H   -0.154659
 Sum of Mulliken charges =  -0.00000

 Dipole moment (field-independent basis, Debye):
    X=              0.5771    Y=              1.2047    Z=              2.0429  Tot=              2.4409

 Test job not archived.
 1\1\GINC-SE393\SP\RHF\Aug-CC-pVDZ\C4H3N1O2\OHZDE\09-Apr-2025\0\\#t hf
 aug-cc-pvdz iop(5/13=1,5/36=2,99/5=2) pseudo=read geom=check guess=(re
 ad,tcheck) scf=(maxcycle=1)\\title\\0,1\O,0,-1.60125964,0.99286393,-1.
 82826572\C,0,-1.62597558,0.00427273,-1.15788458\C,0,-0.74454917,-0.175
 89163,0.02390276\N,0,-0.56747518,-0.9705947,0.96008242\O,0,2.01933562,
 -0.85946181,-0.41001691\C,0,1.75107738,-0.02536972,0.41041765\C,0,0.35
 874871,0.24883026,0.86529607\H,0,-2.3021259,-0.84545303,-1.3537767\H,0
 ,2.53744497,0.598115,0.87754134\H,0,0.21662778,1.01299198,1.62186165\\

 Normal termination of Gaussian 16 at Wed Apr  9 03:59:27 2025.
