 Gaussian 16, Revision C.01,

 ----------------------------------------------------------------------
 #t hf aug-cc-pvdz symm=none int=(grid=ultrafine) guess=(read,tcheck) s
 table=(opt,rrhf)
 ----------------------------------------------------------------------
 -----
 title
 -----
 Symbolic Z-matrix:
 Charge =  0 Multiplicity = 1

 SCF Done:  E(RHF) =  -344.928707227     A.U. after   12 cycles

 1\1\GINC-SE220\Stability\RHF\Aug-CC-pVDZ\C5H10O2\OHZDE\09-Apr-2025\0\\
 #t hf aug-cc-pvdz symm=none int=(grid=ultrafine) guess=(read,tcheck) s
 table=(opt,rrhf)\\title\\0,1\C,0,-0.96417025,0.47708488,-0.24141321\C,
 0,-0.5478483,-0.94944441,-0.59726893\O,0,0.04564092,-1.01726047,-1.890
 0939\C,0,0.54679845,-1.3029323,0.42782731\C,0,0.92348216,0.00878517,1.
 13676367\C,0,0.32724305,1.11165825,0.27140558\O,0,0.1440937,2.28327389
 ,1.04269041\H,0,-1.68825963,0.46549027,0.57948696\H,0,-0.10804816,3.00
 106346,0.46021794\H,0,-1.41713569,1.00490282,-1.08502889\H,0,-1.392151

 Normal termination of Gaussian 16 at Wed Apr  9 18:05:48 2025.
 Gaussian 16:  ES64L-G16RevC.01  3-Jul-2019

 ----------------------------------------------------------------------
 #t hf aug-cc-pvdz iop(5/13=1,5/36=2,99/5=2) pseudo=read geom=check gue
 ss=(read,tcheck) scf=(maxcycle=1)
 ----------------------------------------------------------------------
 -----
 title
 -----
 Structure from the checkpoint file:  "Grambow2020_wb97xd3_007095_reverse_mol2.chk"
 Charge =  0 Multiplicity = 1

                         Standard orientation:
 ---------------------------------------------------------------------
 Center     Atomic      Atomic             Coordinates (Angstroms)
 Number     Number       Type             X           Y           Z
 ---------------------------------------------------------------------
      1          6           0       -0.061539   -0.910201    0.632199
      2          6           0        1.263340   -0.169679    0.455381
      3          8           0        1.988624   -0.650884   -0.671841
      4          6           0        0.858621    1.285676    0.151783
      5          6           0       -0.654587    1.271775   -0.122243
      6          6           0       -1.005026   -0.195614   -0.333520
      7          8           0       -2.380710   -0.403980   -0.078208
      8          1           0       -0.441260   -0.767300    1.648913
      9          1           0       -2.612018   -1.296766   -0.338019
     10          1           0        0.031182   -1.984844    0.453307
     11          1           0        1.891800   -0.238865    1.349747
     12          1           0        2.246176   -1.558982   -0.502485
     13          1           0        1.108976    1.946919    0.981544
     14          1           0        1.430875    1.621964   -0.712900
     15          1           0       -0.945960    1.894071   -0.968005
     16          1           0       -1.215192    1.620016    0.749199
     17          1           0       -0.762742   -0.489042   -1.362511
 ---------------------------------------------------------------------

 SCF Done:  E(RHF) =  -345.291780919     A.U. after    2 cycles

 The electronic state is 1-A.
 Alpha  occ. eigenvalues --  -20.54689 -20.54492 -11.28598 -11.27931 -11.22659
 Alpha  occ. eigenvalues --  -11.22385 -11.22066  -1.45177  -1.44745  -1.11793
 Alpha  occ. eigenvalues --   -0.97158  -0.95110  -0.79662  -0.78413  -0.71673
 Alpha  occ. eigenvalues --   -0.68811  -0.67161  -0.62371  -0.59772  -0.57131
 Alpha  occ. eigenvalues --   -0.54484  -0.51956  -0.51116  -0.49484  -0.47275
 Alpha  occ. eigenvalues --   -0.46413  -0.45158  -0.41460
 Alpha virt. eigenvalues --    0.03225   0.03476   0.04199   0.04571   0.06213
 Alpha virt. eigenvalues --    0.06310   0.06640   0.07052   0.07271   0.09501
 Alpha virt. eigenvalues --    0.12783   0.13203   0.14191   0.14618   0.14841

 Mulliken charges:
               1
     1  C   -0.374312
     2  C    1.106735
     3  O   -1.362787
     4  C   -0.298371
     5  C   -0.329936
     6  C    1.010912
     7  O   -1.360568
     8  H    0.173717
     9  H    0.263442
    10  H    0.095581
    11  H    0.105259
    12  H    0.264048
    13  H    0.152186
    14  H    0.163559
    15  H    0.112180
    16  H    0.156387
    17  H    0.121970
 Sum of Mulliken charges =   0.00000

 Dipole moment (field-independent basis, Debye):
    X=              0.6746    Y=             -1.8143    Z=              0.6897  Tot=              2.0549

 Test job not archived.
 1\1\GINC-SE220\SP\RHF\Aug-CC-pVDZ\C5H10O2\OHZDE\09-Apr-2025\0\\#t hf a
 ug-cc-pvdz iop(5/13=1,5/36=2,99/5=2) pseudo=read geom=check guess=(rea
 d,tcheck) scf=(maxcycle=1)\\title\\0,1\C,0,-0.96417025,0.47708488,-0.2
 4141321\C,0,-0.5478483,-0.94944441,-0.59726893\O,0,0.04564092,-1.01726
 047,-1.8900939\C,0,0.54679845,-1.3029323,0.42782731\C,0,0.92348216,0.0
 0878517,1.13676367\C,0,0.32724305,1.11165825,0.27140558\O,0,0.1440937,
 2.28327389,1.04269041\H,0,-1.68825963,0.46549027,0.57948696\H,0,-0.108
 04816,3.00106346,0.46021794\H,0,-1.41713569,1.00490282,-1.08502889\H,0

 Normal termination of Gaussian 16 at Wed Apr  9 18:05:55 2025.
