 Gaussian 16, Revision C.01,

 ----------------------------------------------------------------------
 #t hf aug-cc-pvdz symm=none int=(grid=ultrafine) guess=(read,tcheck) s
 table=(opt,rrhf)
 ----------------------------------------------------------------------
 -----
 title
 -----
 Symbolic Z-matrix:
 Charge =  0 Multiplicity = 1

 SCF Done:  E(RHF) =  -322.473797235     A.U. after   15 cycles
 Normal termination of Gaussian 16 at Wed Apr  9 03:27:17 2025.
 Gaussian 16:  ES64L-G16RevC.01  3-Jul-2019

 ----------------------------------------------------------------------
 #t hf aug-cc-pvdz iop(5/13=1,5/36=2,99/5=2) pseudo=read geom=check gue
 ss=(read,tcheck) scf=(maxcycle=1)
 ----------------------------------------------------------------------
 -----
 title
 -----
 Structure from the checkpoint file:  "Grambow2020_wb97xd3_006645_forward_mol1.chk"
 Charge =  0 Multiplicity = 1

                         Standard orientation:
 ---------------------------------------------------------------------
 Center     Atomic      Atomic             Coordinates (Angstroms)
 Number     Number       Type             X           Y           Z
 ---------------------------------------------------------------------
      1          6           0        1.908143    0.696807   -0.018013
      2          7           0        1.745894   -0.765515   -0.151846
      3          6           0        0.607777    0.037997   -0.093483
      4          6           0       -0.599248   -0.033973    0.815953
      5          6           0       -1.390527    1.039367    0.083751
      6          6           0       -1.233520   -0.074226   -0.966794
      7          8           0       -1.301927   -1.055386    0.076071
      8          1           0        2.208268    1.106726    0.942461
      9          1           0        2.345144    1.180450   -0.883108
     10          1           0        1.916066   -1.306535    0.688141
     11          1           0       -0.517047   -0.197068    1.903054
     12          1           0       -0.933204    2.011630   -0.089830
     13          1           0       -2.428568    1.112524    0.401439
     14          1           0       -0.152253   -0.101866   -1.436289
 ---------------------------------------------------------------------

 SCF Done:  E(RHF) =  -322.810216506     A.U. after    2 cycles

 The electronic state is 1-A.
 Alpha  occ. eigenvalues --  -20.55424 -15.53402 -11.32508 -11.32319 -11.30437
 Alpha  occ. eigenvalues --  -11.29868 -11.24981  -1.50044  -1.31497  -1.07729
 Alpha  occ. eigenvalues --   -0.93847  -0.91852  -0.88469  -0.79153  -0.71355
 Alpha  occ. eigenvalues --   -0.69061  -0.65772  -0.61260  -0.59252  -0.56702
 Alpha  occ. eigenvalues --   -0.53940  -0.53067  -0.50108  -0.46552  -0.43042
 Alpha  occ. eigenvalues --   -0.30976
 Alpha virt. eigenvalues --    0.02662   0.03567   0.03704   0.04824   0.05650
 Alpha virt. eigenvalues --    0.06156   0.07065   0.08725   0.10031   0.10770
 Alpha virt. eigenvalues --    0.11703   0.12386   0.13172   0.13844   0.14183

 Mulliken charges:
               1
     1  C    0.488275
     2  N    0.764832
     3  C   -1.630566
     4  C    0.861819
     5  C    0.172072
     6  C    0.110486
     7  O   -1.324097
     8  H   -0.072490
     9  H   -0.066766
    10  H    0.232704
    11  H    0.007641
    12  H   -0.040515
    13  H    0.017777
    14  H    0.478828
 Sum of Mulliken charges =   0.00000

 Dipole moment (field-independent basis, Debye):
    X=              2.3969    Y=              2.9346    Z=              2.9342  Tot=              4.7923

 Test job not archived.
 1\1\GINC-SE284\SP\RHF\Aug-CC-pVDZ\C5H7N1O1\OHZDE\09-Apr-2025\0\\#t hf
 aug-cc-pvdz iop(5/13=1,5/36=2,99/5=2) pseudo=read geom=check guess=(re
 ad,tcheck) scf=(maxcycle=1)\\title\\0,1\C,0,-1.555012,-0.88225839,-0.2
 9847258\N,0,-1.82812234,0.55272794,-0.07745852\C,0,-0.50447432,0.12021
 039,-0.14979624\C,0,0.64635176,0.3159926,0.81271802\C,0,1.70179735,-0.
 27730512,-0.10833238\C,0,1.20744207,0.96180418,-0.87553915\O,0,1.00701
 528,1.64211058,0.37022719\H,0,-1.70448492,-1.578364,0.52232731\H,0,-1.
 84861652,-1.24942578,-1.27430717\H,0,-2.13245297,0.80480387,0.85585755

 Normal termination of Gaussian 16 at Wed Apr  9 03:27:22 2025.
