 Gaussian 16, Revision C.01,

 ----------------------------------------------------------------------
 #t hf aug-cc-pvdz symm=none int=(grid=ultrafine) guess=(read,tcheck) s
 table=(opt,rrhf)
 ----------------------------------------------------------------------
 -----
 title
 -----
 Symbolic Z-matrix:
 Charge =  0 Multiplicity = 1

 SCF Done:  E(RHF) =  -306.498506024     A.U. after   15 cycles
 Normal termination of Gaussian 16 at Wed Apr  9 03:39:32 2025.
 Gaussian 16:  ES64L-G16RevC.01  3-Jul-2019

 ----------------------------------------------------------------------
 #t hf aug-cc-pvdz iop(5/13=1,5/36=2,99/5=2) pseudo=read geom=check gue
 ss=(read,tcheck) scf=(maxcycle=1)
 ----------------------------------------------------------------------
 -----
 title
 -----
 Structure from the checkpoint file:  "Grambow2020_wb97xd3_007364_reverse_mol1.chk"
 Charge =  0 Multiplicity = 1

                         Standard orientation:
 ---------------------------------------------------------------------
 Center     Atomic      Atomic             Coordinates (Angstroms)
 Number     Number       Type             X           Y           Z
 ---------------------------------------------------------------------
      1          6           0        1.207987    1.739403   -0.272042
      2          6           0        1.928716   -1.799828    0.118982
      3          6           0        0.264742    0.853707   -0.011213
      4          6           0       -0.381786    0.305345    1.262633
      5          6           0       -1.039826   -0.753857    0.371588
      6          8           0       -1.835807   -0.058838   -0.565860
      7          6           0       -0.440224   -0.172030   -0.845331
      8          1           0        1.643010    2.349105    0.510676
      9          1           0        1.579826    1.878403   -1.280604
     10          1           0        1.735131   -2.247962   -0.877002
     11          1           0        2.672641   -1.011668   -0.111748
     12          1           0        0.354567   -0.102267    1.954520
     13          1           0       -1.084235    0.957008    1.781732
     14          1           0       -1.288365   -1.780729    0.598404
     15          1           0       -0.163771   -0.607618   -1.796803
 ---------------------------------------------------------------------

 SCF Done:  E(RHF) =  -306.811297173     A.U. after    2 cycles

 The electronic state is 1-A.
 Alpha  occ. eigenvalues --  -20.56629 -11.30406 -11.30163 -11.30074 -11.25988
 Alpha  occ. eigenvalues --  -11.24627 -11.23857  -1.51467  -1.12241  -0.99707
 Alpha  occ. eigenvalues --   -0.91249  -0.89400  -0.84214  -0.75317  -0.70492
 Alpha  occ. eigenvalues --   -0.65651  -0.62257  -0.59917  -0.57135  -0.56188
 Alpha  occ. eigenvalues --   -0.54076  -0.50312  -0.45821  -0.42093  -0.40021
 Alpha  occ. eigenvalues --   -0.36964
 Alpha virt. eigenvalues --    0.02334   0.03388   0.03714   0.04263   0.05678
 Alpha virt. eigenvalues --    0.05841   0.06288   0.06753   0.07624   0.10558
 Alpha virt. eigenvalues --    0.11277   0.12099   0.12920   0.13294   0.13804

 Mulliken charges:
               1
     1  C    0.197006
     2  C   -0.391692
     3  C    0.588191
     4  C   -0.528999
     5  C    1.103578
     6  O   -1.383612
     7  C    0.211447
     8  H   -0.122789
     9  H   -0.123323
    10  H    0.167819
    11  H    0.227363
    12  H    0.160824
    13  H    0.131966
    14  H   -0.079946
    15  H   -0.157832
 Sum of Mulliken charges =  -0.00000

 Dipole moment (field-independent basis, Debye):
    X=              2.1529    Y=             -0.3795    Z=             -0.6022  Tot=              2.2675

 Test job not archived.
 1\1\GINC-SE036\SP\RHF\Aug-CC-pVDZ\C6H8O1\OHZDE\09-Apr-2025\0\\#t hf au
 g-cc-pvdz iop(5/13=1,5/36=2,99/5=2) pseudo=read geom=check guess=(read
 ,tcheck) scf=(maxcycle=1)\\title\\0,1\C,0,-1.25127851,0.23859278,-1.53
 604419\C,0,-1.15722792,-0.41613153,2.03620958\C,0,-0.1167993,0.1137764
 5,-0.87303668\C,0,0.83015792,-1.04621707,-0.55828497\C,0,1.53423714,-0
 .09593404,0.41645768\O,0,2.00456608,0.99501952,-0.34777839\C,0,0.63512
 611,1.01775155,0.05556641\H,0,-1.66612998,-0.58369897,-2.10645056\H,0,
 -1.80549674,1.16997661,-1.52384064\H,0,-1.04369375,0.57954701,2.511621

 Normal termination of Gaussian 16 at Wed Apr  9 03:39:39 2025.
