 Gaussian 16, Revision C.01,

 ----------------------------------------------------------------------
 #t hf aug-cc-pvdz symm=none int=(grid=ultrafine) guess=(read,tcheck) s
 table=(opt,rrhf)
 ----------------------------------------------------------------------
 -----
 title
 -----
 Symbolic Z-matrix:
 Charge =  0 Multiplicity = 1

 SCF Done:  E(RHF) =  -224.714340124     A.U. after   15 cycles
 Normal termination of Gaussian 16 at Wed Apr  9 15:55:36 2025.
 Gaussian 16:  ES64L-G16RevC.01  3-Jul-2019

 ----------------------------------------------------------------------
 #t hf aug-cc-pvdz iop(5/13=1,5/36=2,99/5=2) pseudo=read geom=check gue
 ss=(read,tcheck) scf=(maxcycle=1)
 ----------------------------------------------------------------------
 -----
 title
 -----
 Structure from the checkpoint file:  "Grambow2020_b97d3_006893_reverse_mol2.chk"
 Charge =  0 Multiplicity = 1

                         Standard orientation:
 ---------------------------------------------------------------------
 Center     Atomic      Atomic             Coordinates (Angstroms)
 Number     Number       Type             X           Y           Z
 ---------------------------------------------------------------------
      1          7           0       -0.699750    0.831415    0.046618
      2          6           0       -1.065357   -0.501411    0.010366
      3          6           0        0.032766   -1.376996   -0.000779
      4          6           0        1.090341   -0.449587   -0.005569
      5          7           0        0.658498    0.864932   -0.050183
      6          1           0       -1.217269    1.669077   -0.226155
      7          1           0       -2.138997   -0.694302   -0.009959
      8          1           0        1.130839    1.722615    0.238945
      9          1           0        2.167697   -0.603852   -0.001980
 ---------------------------------------------------------------------

 SCF Done:  E(RHF) =  -224.942908930     A.U. after    2 cycles

 The electronic state is 1-A.
 Alpha  occ. eigenvalues --  -15.60420 -15.59753 -11.29475 -11.29439 -11.16505
 Alpha  occ. eigenvalues --   -1.39456  -1.14549  -1.06438  -0.86202  -0.84666
 Alpha  occ. eigenvalues --   -0.81954  -0.69846  -0.65529  -0.65309  -0.54580
 Alpha  occ. eigenvalues --   -0.44905  -0.34863  -0.31798
 Alpha virt. eigenvalues --    0.01591   0.03761   0.04992   0.05156   0.06920
 Alpha virt. eigenvalues --    0.09569   0.10818   0.11572   0.13454   0.13614
 Alpha virt. eigenvalues --    0.14061   0.15032   0.16392   0.16477   0.17058

 Mulliken charges:
               1
     1  N    0.189600
     2  C   -0.066370
     3  C   -0.317037
     4  C   -0.059620
     5  N    0.176847
     6  H    0.097826
     7  H   -0.059020
     8  H    0.099351
     9  H   -0.061577
 Sum of Mulliken charges =  -0.00000

 Dipole moment (field-independent basis, Debye):
    X=             -0.1633    Y=              6.3514    Z=              0.0215  Tot=              6.3535

 Test job not archived.
 1\1\GINC-SE168\SP\RHF\Aug-CC-pVDZ\C3H4N2\OHZDE\09-Apr-2025\0\\#t hf au
 g-cc-pvdz iop(5/13=1,5/36=2,99/5=2) pseudo=read geom=check guess=(read
 ,tcheck) scf=(maxcycle=1)\\title\\0,1\N,0,-0.84970358,-0.31809329,-0.3
 7886323\C,0,-0.79202669,0.88405402,0.30152176\C,0,0.5014117,1.21036718
 ,0.74104814\C,0,1.20827881,0.07862231,0.29599919\N,0,0.39535229,-0.865
 81858,-0.30700986\H,0,-1.63698168,-0.94631755,-0.55043536\H,0,-1.74222
 732,1.4090194,0.41039531\H,0,0.62627353,-1.60139639,-0.97628043\H,0,2.
 26490293,-0.1712371,0.37097847\\Version=ES64L-G16RevC.01\State=1-A\HF=

 Normal termination of Gaussian 16 at Wed Apr  9 15:55:38 2025.
