 Gaussian 16, Revision C.01,

 ----------------------------------------------------------------------
 #t hf aug-cc-pvdz symm=none int=(grid=ultrafine) guess=(read,tcheck) s
 table=(opt,rrhf)
 ----------------------------------------------------------------------
 -----
 title
 -----
 Symbolic Z-matrix:
 Charge =  0 Multiplicity = 1

 SCF Done:  E(RHF) =  -323.704956779     A.U. after   15 cycles
 Normal termination of Gaussian 16 at Wed Apr  9 17:48:56 2025.
 Gaussian 16:  ES64L-G16RevC.01  3-Jul-2019

 ----------------------------------------------------------------------
 #t hf aug-cc-pvdz iop(5/13=1,5/36=2,99/5=2) pseudo=read geom=check gue
 ss=(read,tcheck) scf=(maxcycle=1)
 ----------------------------------------------------------------------
 -----
 title
 -----
 Structure from the checkpoint file:  "Grambow2020_wb97xd3_006830_forward_mol1.chk"
 Charge =  0 Multiplicity = 1

                         Standard orientation:
 ---------------------------------------------------------------------
 Center     Atomic      Atomic             Coordinates (Angstroms)
 Number     Number       Type             X           Y           Z
 ---------------------------------------------------------------------
      1          6           0        2.174825   -0.960020   -0.258510
      2          6           0        1.165371   -0.058650    0.431066
      3          6           0        0.845413    1.297466   -0.237813
      4          6           0       -0.664673    1.474980    0.068494
      5          6           0       -0.247649   -0.452980    0.342057
      6          7           0       -1.229587   -1.123080    0.100411
      7          8           0       -2.332746   -0.562546   -0.257306
      8          1           0        3.159790   -0.490387   -0.237747
      9          1           0        1.893646   -1.131207   -1.298623
     10          1           0        2.250690   -1.926803    0.239875
     11          1           0        1.437580    0.092746    1.479648
     12          1           0        1.464294    2.123550    0.116843
     13          1           0        0.993932    1.195322   -1.314393
     14          1           0       -1.103068    2.219247   -0.605547
     15          1           0       -0.813787    1.831429    1.088875
     16          1           0       -1.653721    0.643254   -0.185128
 ---------------------------------------------------------------------

 SCF Done:  E(RHF) =  -324.044199257     A.U. after    2 cycles

 The electronic state is 1-A.
 Alpha  occ. eigenvalues --  -20.53522 -15.59740 -11.33598 -11.29516 -11.26755
 Alpha  occ. eigenvalues --  -11.25787 -11.24027  -1.50499  -1.20545  -1.13125
 Alpha  occ. eigenvalues --   -1.01802  -0.91051  -0.86577  -0.75654  -0.72045
 Alpha  occ. eigenvalues --   -0.67757  -0.66178  -0.61787  -0.61606  -0.59533
 Alpha  occ. eigenvalues --   -0.55558  -0.53951  -0.51911  -0.51117  -0.45685
 Alpha  occ. eigenvalues --   -0.39674  -0.37870
 Alpha virt. eigenvalues --    0.02637   0.03261   0.03422   0.04349   0.05588
 Alpha virt. eigenvalues --    0.05778   0.06678   0.08184   0.08944   0.10330
 Alpha virt. eigenvalues --    0.10521   0.11585   0.12724   0.13486   0.13658

 Mulliken charges:
               1
     1  C   -0.044975
     2  C   -0.541724
     3  C    0.006099
     4  C   -0.418020
     5  C   -1.292962
     6  N    1.937281
     7  O   -1.584467
     8  H    0.203872
     9  H    0.238435
    10  H    0.194456
    11  H    0.163805
    12  H    0.111659
    13  H    0.128764
    14  H    0.057799
    15  H    0.148882
    16  H    0.691097
 Sum of Mulliken charges =  -0.00000

 Dipole moment (field-independent basis, Debye):
    X=              5.1105    Y=              2.3648    Z=              0.5616  Tot=              5.6590

 Test job not archived.
 1\1\GINC-SE045\SP\RHF\Aug-CC-pVDZ\C5H9N1O1\OHZDE\09-Apr-2025\0\\#t hf
 aug-cc-pvdz iop(5/13=1,5/36=2,99/5=2) pseudo=read geom=check guess=(re
 ad,tcheck) scf=(maxcycle=1)\\title\\0,1\C,0,-1.68411252,-1.26130109,-0
 .21839998\C,0,-0.53633013,-0.35435035,-0.62707629\C,0,-0.45557586,1.03
 847223,0.0380143\C,0,1.07380336,1.255867,0.17741717\C,0,0.79657979,-0.
 69509879,-0.11008017\N,0,1.67859122,-1.31999233,0.44054863\O,0,2.61615
 988,-0.70703818,1.07645176\H,0,-2.62949747,-0.82760365,-0.5489985\H,0,
 -1.71665299,-1.37964383,0.86563849\H,0,-1.58985949,-2.24982214,-0.6686

 Normal termination of Gaussian 16 at Wed Apr  9 17:49:06 2025.
