 Gaussian 16, Revision C.01,

 ----------------------------------------------------------------------
 #t hf aug-cc-pvdz symm=none int=(grid=ultrafine) guess=(read,tcheck) s
 table=(opt,rrhf)
 ----------------------------------------------------------------------
 -----
 title
 -----
 Symbolic Z-matrix:
 Charge =  0 Multiplicity = 1

 SCF Done:  E(RHF) =  -338.640148272     A.U. after   16 cycles
 Normal termination of Gaussian 16 at Wed Apr  9 19:09:51 2025.
 Gaussian 16:  ES64L-G16RevC.01  3-Jul-2019

 ----------------------------------------------------------------------
 #t hf aug-cc-pvdz iop(5/13=1,5/36=2,99/5=2) pseudo=read geom=check gue
 ss=(read,tcheck) scf=(maxcycle=1)
 ----------------------------------------------------------------------
 -----
 title
 -----
 Structure from the checkpoint file:  "Grambow2020_wb97xd3_008805_reverse_mol2.chk"
 Charge =  0 Multiplicity = 1

                         Standard orientation:
 ---------------------------------------------------------------------
 Center     Atomic      Atomic             Coordinates (Angstroms)
 Number     Number       Type             X           Y           Z
 ---------------------------------------------------------------------
      1          7           0        1.322366    1.523376   -0.079069
      2          6           0        2.008197    0.510463    0.361235
      3          6           0       -1.300179    0.291727   -0.349208
      4          8           0       -2.536130    0.485441    0.133686
      5          7           0       -0.837808   -0.835588    0.174695
      6          6           0        0.418666   -1.418399   -0.094034
      7          6           0        1.609096   -0.805184   -0.120464
      8          1           0        0.496723    1.430193   -0.680500
      9          1           0        1.526040    2.443201    0.280495
     10          1           0       -2.880368    1.283443   -0.269557
     11          1           0       -1.469152   -1.381931    0.754121
     12          1           0        0.363390   -2.489763   -0.250310
     13          1           0        2.445818   -1.454832   -0.358290
 ---------------------------------------------------------------------

 SCF Done:  E(RHF) =  -338.981385204     A.U. after    2 cycles

 The electronic state is 1-A.
 Alpha  occ. eigenvalues --  -20.60098 -15.55017 -15.53317 -11.32115 -11.28515
 Alpha  occ. eigenvalues --  -11.24835 -11.23981  -1.52663  -1.27294  -1.23865
 Alpha  occ. eigenvalues --   -1.05639  -0.93427  -0.86481  -0.79810  -0.76846
 Alpha  occ. eigenvalues --   -0.74048  -0.68454  -0.66972  -0.65077  -0.60285
 Alpha  occ. eigenvalues --   -0.56314  -0.51956  -0.50331  -0.40177  -0.39094
 Alpha  occ. eigenvalues --   -0.32146
 Alpha virt. eigenvalues --    0.03179   0.03820   0.04619   0.05158   0.06156
 Alpha virt. eigenvalues --    0.07066   0.08899   0.09531   0.10404   0.11199
 Alpha virt. eigenvalues --    0.12066   0.13335   0.13910   0.14757   0.15101

 Mulliken charges:
               1
     1  N    0.743135
     2  C   -1.119394
     3  C    0.275248
     4  O   -1.132933
     5  N    0.645856
     6  C   -0.335630
     7  C    0.465595
     8  H    0.032388
     9  H    0.136491
    10  H    0.435117
    11  H    0.142758
    12  H   -0.155911
    13  H   -0.132718
 Sum of Mulliken charges =  -0.00000

 Dipole moment (field-independent basis, Debye):
    X=             -3.0738    Y=              0.0394    Z=             -0.7942  Tot=              3.1749

 Test job not archived.
 1\1\GINC-SE168\SP\RHF\Aug-CC-pVDZ\C4H6N2O1\OHZDE\09-Apr-2025\0\\#t hf
 aug-cc-pvdz iop(5/13=1,5/36=2,99/5=2) pseudo=read geom=check guess=(re
 ad,tcheck) scf=(maxcycle=1)\\title\\0,1\N,0,-1.67358759,1.05701325,0.1
 6209366\C,0,-0.71595076,1.79191251,0.64487649\C,0,-0.19510071,-1.36979
 525,-0.46428687\O,0,-0.23814077,-2.66680887,-0.12636594\N,0,0.90304669
 ,-0.85297173,0.07056527\C,0,1.34091931,0.48124647,-0.06633977\C,0,0.60
 882446,1.59423406,0.07204462\H,0,-1.52568713,0.32105769,-0.53689356\H,
 0,-2.59100364,1.11817378,0.57616406\H,0,-1.01532631,-3.04564407,-0.539

 Normal termination of Gaussian 16 at Wed Apr  9 19:09:55 2025.
