 Gaussian 16, Revision C.01,

 ----------------------------------------------------------------------
 #t hf aug-cc-pvdz symm=none int=(grid=ultrafine) guess=(read,tcheck) s
 table=(opt,rrhf)
 ----------------------------------------------------------------------
 -----
 title
 -----
 Symbolic Z-matrix:
 Charge =  0 Multiplicity = 1

 SCF Done:  E(RHF) =  -306.756771456     A.U. after   13 cycles
 Normal termination of Gaussian 16 at Wed Apr  9 03:59:41 2025.
 Gaussian 16:  ES64L-G16RevC.01  3-Jul-2019

 ----------------------------------------------------------------------
 #t hf aug-cc-pvdz iop(5/13=1,5/36=2,99/5=2) pseudo=read geom=check gue
 ss=(read,tcheck) scf=(maxcycle=1)
 ----------------------------------------------------------------------
 -----
 title
 -----
 Structure from the checkpoint file:  "Grambow2020_wb97xd3_008778_reverse_mol2.chk"
 Charge =  0 Multiplicity = 1

                         Standard orientation:
 ---------------------------------------------------------------------
 Center     Atomic      Atomic             Coordinates (Angstroms)
 Number     Number       Type             X           Y           Z
 ---------------------------------------------------------------------
      1          8           0       -2.228556   -0.078427   -0.362393
      2          6           0       -1.092733   -0.000979    0.032425
      3          6           0       -0.291072   -1.206494    0.458749
      4          6           0        1.080013   -1.237353   -0.221213
      5          6           0        1.762522    0.098640   -0.156823
      6          6           0        1.111178    1.238606    0.029173
      7          6           0       -0.382437    1.332288    0.155197
      8          1           0       -0.142819   -1.123011    1.541679
      9          1           0       -0.873105   -2.106125    0.262681
     10          1           0        1.705529   -1.999500    0.249098
     11          1           0        0.971368   -1.543577   -1.267725
     12          1           0       -0.657627    1.756423    1.128916
     13          1           0        2.840769    0.115729   -0.277609
     14          1           0        1.663277    2.171952    0.070204
     15          1           0       -0.803768    2.007277   -0.593153
 ---------------------------------------------------------------------

 SCF Done:  E(RHF) =  -307.076402838     A.U. after    2 cycles

 The electronic state is 1-A.
 Alpha  occ. eigenvalues --  -20.53275 -11.33494 -11.25188 -11.24965 -11.24834
 Alpha  occ. eigenvalues --  -11.24613 -11.24582  -1.47102  -1.13741  -1.03472
 Alpha  occ. eigenvalues --   -1.00082  -0.88299  -0.79465  -0.71024  -0.69090
 Alpha  occ. eigenvalues --   -0.65126  -0.63903  -0.61009  -0.60097  -0.56595
 Alpha  occ. eigenvalues --   -0.55362  -0.53474  -0.49592  -0.47998  -0.40207
 Alpha  occ. eigenvalues --   -0.37105
 Alpha virt. eigenvalues --    0.03088   0.03501   0.03770   0.04567   0.05755
 Alpha virt. eigenvalues --    0.06205   0.06562   0.07219   0.10717   0.12369
 Alpha virt. eigenvalues --    0.12489   0.13102   0.13779   0.14150   0.14364

 Mulliken charges:
               1
     1  O   -1.415176
     2  C    1.370924
     3  C   -0.259174
     4  C   -0.588423
     5  C    0.371067
     6  C    0.307591
     7  C   -0.728114
     8  H    0.216354
     9  H    0.110381
    10  H    0.201995
    11  H    0.236893
    12  H    0.327200
    13  H   -0.194121
    14  H   -0.190312
    15  H    0.232914
 Sum of Mulliken charges =  -0.00000

 Dipole moment (field-independent basis, Debye):
    X=              3.0458    Y=              0.0344    Z=              0.9945  Tot=              3.2042

 Test job not archived.
 1\1\GINC-SE455\SP\RHF\Aug-CC-pVDZ\C6H8O1\OHZDE\09-Apr-2025\0\\#t hf au
 g-cc-pvdz iop(5/13=1,5/36=2,99/5=2) pseudo=read geom=check guess=(read
 ,tcheck) scf=(maxcycle=1)\\title\\0,1\O,0,0.61623962,-2.43842841,0.605
 94552\C,0,0.37342294,-1.35724738,0.13259426\C,0,-1.03062235,-0.8930043
 7,-0.16875791\C,0,-1.30130801,0.49382368,0.41997949\C,0,-0.18323209,1.
 45136013,0.1235434\C,0,1.04673397,1.05989381,-0.1802723\C,0,1.47511195
 ,-0.37893106,-0.22289958\H,0,-1.11847196,-0.83322486,-1.25980984\H,0,-
 1.73573977,-1.64199941,0.18951017\H,0,-2.24176556,0.88333286,0.0235563

 Normal termination of Gaussian 16 at Wed Apr  9 03:59:46 2025.
