 Gaussian 16, Revision C.01,

 ----------------------------------------------------------------------
 #t hf aug-cc-pvdz symm=none int=(grid=ultrafine) guess=(read,tcheck) s
 table=(opt,rrhf)
 ----------------------------------------------------------------------
 -----
 title
 -----
 Symbolic Z-matrix:
 Charge =  0 Multiplicity = 1

 SCF Done:  E(RHF) =  -186.879215857     A.U. after   14 cycles
 Normal termination of Gaussian 16 at Wed Apr  9 03:08:36 2025.
 Gaussian 16:  ES64L-G16RevC.01  3-Jul-2019

 ----------------------------------------------------------------------
 #t hf aug-cc-pvdz iop(5/13=1,5/36=2,99/5=2) pseudo=read geom=check gue
 ss=(read,tcheck) scf=(maxcycle=1)
 ----------------------------------------------------------------------
 -----
 title
 -----
 Structure from the checkpoint file:  "Grambow2020_b97d3_006605_forward_mol1.chk"
 Charge =  0 Multiplicity = 1

                         Standard orientation:
 ---------------------------------------------------------------------
 Center     Atomic      Atomic             Coordinates (Angstroms)
 Number     Number       Type             X           Y           Z
 ---------------------------------------------------------------------
      1          7           0        1.134861   -0.660680   -0.024015
      2          6           0        1.206643    0.631223    0.140548
      3          6           0       -1.345650    0.615396   -0.322253
      4          7           0       -1.652054   -0.420169    0.175276
      5          1           0        0.212750   -1.071936    0.243778
      6          1           0        1.713356   -1.145722   -0.705581
      7          1           0        2.002397    1.197179   -0.341328
      8          1           0        0.525883    1.106703    0.834532
 ---------------------------------------------------------------------

 SCF Done:  E(RHF) =  -187.063559098     A.U. after    2 cycles

 The electronic state is 1-A.
 Alpha  occ. eigenvalues --  -15.63484 -15.41770 -11.42007 -11.17173  -1.34072
 Alpha  occ. eigenvalues --   -1.12711  -0.99292  -0.85895  -0.79314  -0.67410
 Alpha  occ. eigenvalues --   -0.61789  -0.56262  -0.42168  -0.41379  -0.39954
 Alpha virt. eigenvalues --    0.00108   0.01190   0.02945   0.05110   0.07156
 Alpha virt. eigenvalues --    0.08159   0.09380   0.12340   0.12738   0.13481
 Alpha virt. eigenvalues --    0.14377   0.15102   0.16702   0.19022   0.19798

 Mulliken charges:
               1
     1  N    0.511771
     2  C   -0.284154
     3  C   -1.109036
     4  N    0.156233
     5  H    0.244222
     6  H    0.155350
     7  H    0.090193
     8  H    0.235421
 Sum of Mulliken charges =  -0.00000

 Dipole moment (field-independent basis, Debye):
    X=              9.8129    Y=              0.4278    Z=             -0.1782  Tot=              9.8238

 Test job not archived.
 1\1\GINC-SE120\SP\RHF\Aug-CC-pVDZ\C2H4N2\OHZDE\09-Apr-2025\0\\#t hf au
 g-cc-pvdz iop(5/13=1,5/36=2,99/5=2) pseudo=read geom=check guess=(read
 ,tcheck) scf=(maxcycle=1)\\title\\0,1\N,0,-0.78154063,-0.45198727,0.30
 667383\C,0,-0.48736656,0.80914619,0.15094534\C,0,1.88752289,-0.0413280
 9,-0.45339633\N,0,1.62143049,-1.06068421,-1.00468851\H,0,-0.22456258,-
 1.09552389,-0.2989402\H,0,-1.17282506,-0.80624476,1.1760719\H,0,-0.801
 86472,1.53686419,0.89743852\H,0,-0.01586984,1.12423884,-0.77075856\\Ve
 rsion=ES64L-G16RevC.01\State=1-A\HF=-187.0635591\RMSD=1.232e-02\Dipole

 Normal termination of Gaussian 16 at Wed Apr  9 03:08:38 2025.
