 Gaussian 16, Revision C.01,

 ----------------------------------------------------------------------
 #t hf aug-cc-pvdz symm=none int=(grid=ultrafine) guess=(read,tcheck) s
 table=(opt,rrhf)
 ----------------------------------------------------------------------
 -----
 title
 -----
 Symbolic Z-matrix:
 Charge =  0 Multiplicity = 1

 SCF Done:  E(RHF) =  -232.740241596     A.U. after   15 cycles
 Normal termination of Gaussian 16 at Wed Apr  9 15:40:00 2025.
 Gaussian 16:  ES64L-G16RevC.01  3-Jul-2019

 ----------------------------------------------------------------------
 #t hf aug-cc-pvdz iop(5/13=1,5/36=2,99/5=2) pseudo=read geom=check gue
 ss=(read,tcheck) scf=(maxcycle=1)
 ----------------------------------------------------------------------
 -----
 title
 -----
 Structure from the checkpoint file:  "Grambow2020_b97d3_006593_reverse_mol1.chk"
 Charge =  0 Multiplicity = 1

                         Standard orientation:
 ---------------------------------------------------------------------
 Center     Atomic      Atomic             Coordinates (Angstroms)
 Number     Number       Type             X           Y           Z
 ---------------------------------------------------------------------
      1          6           0        1.524705   -0.026470    0.863586
      2          6           0        1.716638   -0.218672   -0.629297
      3          6           0        0.339035   -0.047121   -0.060348
      4          6           0       -0.653996    1.188130   -0.256124
      5          6           0       -1.764925    0.182216    0.139389
      6          6           0       -0.894380   -0.943103   -0.093508
      7          1           0        1.826953    0.927008    1.298624
      8          1           0        1.674613   -0.887626    1.514374
      9          1           0        2.008207   -1.205010   -0.993785
     10          1           0        2.141299    0.613211   -1.194056
     11          1           0       -0.636832    1.486233   -1.313585
     12          1           0       -0.482039    2.069156    0.381099
     13          1           0       -2.824046   -0.922711    0.002516
     14          1           0       -2.193005    0.357020    1.122993
     15          1           0       -0.979761   -1.554368   -0.992213
     16          1           0       -2.137845   -1.692796    0.391846
 ---------------------------------------------------------------------

 SCF Done:  E(RHF) =  -232.994601947     A.U. after    2 cycles

 The electronic state is 1-A.
 Alpha  occ. eigenvalues --  -11.26935 -11.26831 -11.25773 -11.25062 -11.24321
 Alpha  occ. eigenvalues --  -11.23974  -1.17953  -1.09293  -0.91396  -0.83828
 Alpha  occ. eigenvalues --   -0.82775  -0.73218  -0.68868  -0.65879  -0.60744
 Alpha  occ. eigenvalues --   -0.57179  -0.55570  -0.52514  -0.48570  -0.43725
 Alpha  occ. eigenvalues --   -0.43173  -0.37653  -0.34760
 Alpha virt. eigenvalues --    0.03629   0.03653   0.03909   0.04333   0.05631
 Alpha virt. eigenvalues --    0.06039   0.06166   0.06962   0.07837   0.08342
 Alpha virt. eigenvalues --    0.09472   0.11424   0.12975   0.13322   0.13673

 Mulliken charges:
               1
     1  C    0.085035
     2  C    0.094960
     3  C    0.424200
     4  C   -0.619264
     5  C    0.173537
     6  C   -0.364066
     7  H   -0.074387
     8  H   -0.081909
     9  H   -0.069983
    10  H   -0.054812
    11  H    0.154447
    12  H    0.047348
    13  H    0.223606
    14  H   -0.074606
    15  H   -0.068614
    16  H    0.204509
 Sum of Mulliken charges =  -0.00000

 Dipole moment (field-independent basis, Debye):
    X=              1.3721    Y=              0.9535    Z=             -0.1415  Tot=              1.6769

 Test job not archived.
 1\1\GINC-SE042\SP\RHF\Aug-CC-pVDZ\C6H10\OHZDE\09-Apr-2025\0\\#t hf aug
 -cc-pvdz iop(5/13=1,5/36=2,99/5=2) pseudo=read geom=check guess=(read,
 tcheck) scf=(maxcycle=1)\\title\\0,1\C,0,-1.62157772,0.26491081,0.7786
 8744\C,0,-1.78514889,-0.07607064,-0.69082081\C,0,-0.41810436,-0.022890
 95,-0.07496139\C,0,0.58511282,-1.23735759,0.1875444\C,0,1.68270911,-0.
 14365444,0.22692649\C,0,0.81096048,0.82018468,-0.39717416\H,0,-1.92726
 129,-0.48139156,1.51307276\H,0,-1.78880629,1.29674709,1.08680411\H,0,-
 2.07472049,0.71855578,-1.38034546\H,0,-2.19421586,-1.05733822,-0.93799

 Normal termination of Gaussian 16 at Wed Apr  9 15:40:04 2025.
