 Gaussian 16, Revision C.01,

 ----------------------------------------------------------------------
 #t hf aug-cc-pvdz symm=none int=(grid=ultrafine) guess=(read,tcheck) s
 table=(opt,rrhf)
 ----------------------------------------------------------------------
 -----
 title
 -----
 Symbolic Z-matrix:
 Charge =  0 Multiplicity = 1

 SCF Done:  E(RHF) =  -268.652814311     A.U. after   18 cycles
 Normal termination of Gaussian 16 at Wed Apr  9 15:56:56 2025.
 Gaussian 16:  ES64L-G16RevC.01  3-Jul-2019

 ----------------------------------------------------------------------
 #t hf aug-cc-pvdz iop(5/13=1,5/36=2,99/5=2) pseudo=read geom=check gue
 ss=(read,tcheck) scf=(maxcycle=1)
 ----------------------------------------------------------------------
 -----
 title
 -----
 Structure from the checkpoint file:  "Grambow2020_b97d3_007029_forward_mol1.chk"
 Charge =  0 Multiplicity = 1

                         Standard orientation:
 ---------------------------------------------------------------------
 Center     Atomic      Atomic             Coordinates (Angstroms)
 Number     Number       Type             X           Y           Z
 ---------------------------------------------------------------------
      1          6           0       -2.481145   -0.407614    0.101565
      2          6           0       -1.089793    0.135012    0.094634
      3          6           0       -0.369425    1.041962   -0.526855
      4          6           0        0.990604    1.165415    0.000724
      5          6           0        1.454072   -0.247059    0.539608
      6          8           0        1.492504   -1.255997   -0.352613
      7          1           0       -2.494645   -1.502975   -0.006837
      8          1           0       -2.994426   -0.167147    1.045510
      9          1           0       -3.056161    0.032488   -0.723453
     10          1           0        1.783983    1.435970   -0.724682
     11          1           0        1.046178    1.907071    0.812094
     12          1           0        2.382632   -0.287535    1.130116
     13          1           0       -0.305127   -0.340004    0.927404
     14          1           0        0.671663   -1.156180   -0.897301
 ---------------------------------------------------------------------

 SCF Done:  E(RHF) =  -268.931786241     A.U. after    2 cycles

 The electronic state is 1-A.
 Alpha  occ. eigenvalues --  -20.63864 -11.41126 -11.27403 -11.23602 -11.23394
 Alpha  occ. eigenvalues --  -11.19508  -1.54672  -1.10114  -1.00977  -0.93405
 Alpha  occ. eigenvalues --   -0.86838  -0.74159  -0.70583  -0.65494  -0.64785
 Alpha  occ. eigenvalues --   -0.59859  -0.58436  -0.56652  -0.55408  -0.53220
 Alpha  occ. eigenvalues --   -0.47197  -0.34430  -0.28760
 Alpha virt. eigenvalues --    0.00869   0.02767   0.03946   0.04260   0.04775
 Alpha virt. eigenvalues --    0.06180   0.06526   0.07056   0.08243   0.10520
 Alpha virt. eigenvalues --    0.11551   0.12338   0.13301   0.13647   0.14741

 Mulliken charges:
               1
     1  C   -0.713004
     2  C    0.338268
     3  C   -0.647206
     4  C   -0.606971
     5  C    0.822099
     6  O   -1.145583
     7  H    0.187866
     8  H    0.215678
     9  H    0.211941
    10  H    0.254885
    11  H    0.228375
    12  H    0.071256
    13  H    0.269123
    14  H    0.513272
 Sum of Mulliken charges =  -0.00000

 Dipole moment (field-independent basis, Debye):
    X=              2.6933    Y=             -1.6472    Z=              1.8101  Tot=              3.6392

 Test job not archived.
 1\1\GINC-SE037\SP\RHF\Aug-CC-pVDZ\C5H8O1\OHZDE\09-Apr-2025\0\\#t hf au
 g-cc-pvdz iop(5/13=1,5/36=2,99/5=2) pseudo=read geom=check guess=(read
 ,tcheck) scf=(maxcycle=1)\\title\\0,1\C,0,2.29768492,0.21831919,0.1790
 7148\C,0,0.87106492,-0.09505187,-0.13222535\C,0,0.07334006,-0.21511233
 ,-1.16999093\C,0,-1.27973656,-0.64758632,-0.81586091\C,0,-1.62792976,-
 0.09174367,0.62291689\O,0,-1.61381094,1.2466314,0.77797781\H,0,2.38758
 259,1.02939452,0.91787014\H,0,2.81358115,-0.66067828,0.59564019\H,0,2.
 82065614,0.52070042,-0.73747272\H,0,-2.10678399,-0.2634248,-1.44616018

 Normal termination of Gaussian 16 at Wed Apr  9 15:57:00 2025.
