 Gaussian 16, Revision C.01,

 ----------------------------------------------------------------------
 #t hf aug-cc-pvdz symm=none int=(grid=ultrafine) guess=(read,tcheck) s
 table=(opt,rrhf)
 ----------------------------------------------------------------------
 -----
 title
 -----
 Symbolic Z-matrix:
 Charge =  0 Multiplicity = 1

 SCF Done:  E(RHF) =  -307.794166969     A.U. after   14 cycles

 1\1\GINC-SE173\Stability\RHF\Aug-CC-pVDZ\C6H10O1\OHZDE\09-Apr-2025\0\\
 #t hf aug-cc-pvdz symm=none int=(grid=ultrafine) guess=(read,tcheck) s
 table=(opt,rrhf)\\title\\0,1\O,0,1.8043427,-0.58964158,1.31062167\C,0,
 1.30477546,-0.38665536,-0.00237815\C,0,0.07683825,-1.23480195,-0.30849
 767\C,0,-1.1747881,-0.62605577,0.31007767\C,0,-1.40939223,0.78292064,-
 0.23703579\C,0,-0.23277116,1.72628649,-0.2097631\C,0,1.02050974,1.0995
 5133,-0.18770584\H,0,1.15296906,-0.27504106,1.94200251\H,0,2.12986081,
 -0.67929702,-0.65558118\H,0,0.25773668,-2.25016864,0.04962921\H,0,-0.0

 Normal termination of Gaussian 16 at Wed Apr  9 18:58:59 2025.
 Gaussian 16:  ES64L-G16RevC.01  3-Jul-2019

 ----------------------------------------------------------------------
 #t hf aug-cc-pvdz iop(5/13=1,5/36=2,99/5=2) pseudo=read geom=check gue
 ss=(read,tcheck) scf=(maxcycle=1)
 ----------------------------------------------------------------------
 -----
 title
 -----
 Structure from the checkpoint file:  "Grambow2020_wb97xd3_008411_forward_mol1.chk"
 Charge =  0 Multiplicity = 1

                         Standard orientation:
 ---------------------------------------------------------------------
 Center     Atomic      Atomic             Coordinates (Angstroms)
 Number     Number       Type             X           Y           Z
 ---------------------------------------------------------------------
      1          8           0       -1.994043   -0.073284   -0.663067
      2          6           0       -1.105604    0.075426    0.433883
      3          6           0       -0.234525   -1.153124    0.663617
      4          6           0        0.922685   -1.194259   -0.325802
      5          6           0        1.795004    0.053581   -0.179037
      6          6           0        1.082766    1.383179   -0.176361
      7          6           0       -0.263532    1.326081    0.208631
      8          1           0       -1.480093   -0.136610   -1.471614
      9          1           0       -1.759796    0.232380    1.294393
     10          1           0       -0.863449   -2.042871    0.594679
     11          1           0        0.162807   -1.117823    1.684445
     12          1           0        0.534629   -1.252177   -1.350197
     13          1           0        1.517894   -2.099055   -0.184945
     14          1           0        2.378069    0.005937    0.749797
     15          1           0        2.554425    0.095386   -0.963726
     16          1           0        0.570801    1.706699    1.043880
     17          1           0       -0.843702    2.249105    0.158241
 ---------------------------------------------------------------------

 SCF Done:  E(RHF) =  -308.119789391     A.U. after    2 cycles

 The electronic state is 1-A.
 Alpha  occ. eigenvalues --  -20.56025 -11.30149 -11.27620 -11.24242 -11.23843
 Alpha  occ. eigenvalues --  -11.23753 -11.23410  -1.46437  -1.14539  -1.04738
 Alpha  occ. eigenvalues --   -1.00592  -0.87599  -0.83669  -0.72651  -0.71638
 Alpha  occ. eigenvalues --   -0.65452  -0.63753  -0.61195  -0.59107  -0.56832
 Alpha  occ. eigenvalues --   -0.53348  -0.51798  -0.51311  -0.48570  -0.47579
 Alpha  occ. eigenvalues --   -0.44627  -0.32942
 Alpha virt. eigenvalues --    0.03091   0.03397   0.03962   0.04138   0.05742
 Alpha virt. eigenvalues --    0.05887   0.06551   0.06919   0.07406   0.09550
 Alpha virt. eigenvalues --    0.11323   0.11515   0.13512   0.13820   0.14085

 Mulliken charges:
               1
     1  O   -1.426545
     2  C    1.114479
     3  C   -0.344536
     4  C   -0.139531
     5  C   -0.407732
     6  C   -0.909273
     7  C    0.304453
     8  H    0.320277
     9  H    0.125876
    10  H    0.139792
    11  H    0.146632
    12  H    0.116409
    13  H    0.127954
    14  H    0.226052
    15  H    0.176582
    16  H    0.451305
    17  H   -0.022194
 Sum of Mulliken charges =   0.00000

 Dipole moment (field-independent basis, Debye):
    X=              0.0323    Y=             -1.7870    Z=              1.1553  Tot=              2.1282

 Test job not archived.
 1\1\GINC-SE173\SP\RHF\Aug-CC-pVDZ\C6H10O1\OHZDE\09-Apr-2025\0\\#t hf a
 ug-cc-pvdz iop(5/13=1,5/36=2,99/5=2) pseudo=read geom=check guess=(rea
 d,tcheck) scf=(maxcycle=1)\\title\\0,1\O,0,1.8043427,-0.58964158,1.310
 62167\C,0,1.30477546,-0.38665536,-0.00237815\C,0,0.07683825,-1.2348019
 5,-0.30849767\C,0,-1.1747881,-0.62605577,0.31007767\C,0,-1.40939223,0.
 78292064,-0.23703579\C,0,-0.23277116,1.72628649,-0.2097631\C,0,1.02050
 974,1.09955133,-0.18770584\H,0,1.15296906,-0.27504106,1.94200251\H,0,2
 .12986081,-0.67929702,-0.65558118\H,0,0.25773668,-2.25016864,0.0496292

 Normal termination of Gaussian 16 at Wed Apr  9 18:59:06 2025.
