 Gaussian 16, Revision C.01,

 ----------------------------------------------------------------------
 #t hf aug-cc-pvdz symm=none int=(grid=ultrafine) guess=(read,tcheck) s
 table=(opt,rrhf)
 ----------------------------------------------------------------------
 -----
 title
 -----
 Symbolic Z-matrix:
 Charge =  0 Multiplicity = 1

 SCF Done:  E(RHF) =  -306.650757122     A.U. after   14 cycles
 Normal termination of Gaussian 16 at Wed Apr  9 19:08:57 2025.
 Gaussian 16:  ES64L-G16RevC.01  3-Jul-2019

 ----------------------------------------------------------------------
 #t hf aug-cc-pvdz iop(5/13=1,5/36=2,99/5=2) pseudo=read geom=check gue
 ss=(read,tcheck) scf=(maxcycle=1)
 ----------------------------------------------------------------------
 -----
 title
 -----
 Structure from the checkpoint file:  "Grambow2020_wb97xd3_008781_reverse_mol2.chk"
 Charge =  0 Multiplicity = 1

                         Standard orientation:
 ---------------------------------------------------------------------
 Center     Atomic      Atomic             Coordinates (Angstroms)
 Number     Number       Type             X           Y           Z
 ---------------------------------------------------------------------
      1          8           0       -1.232182   -1.143266    0.449292
      2          6           0       -1.312299    0.071248   -0.116973
      3          6           0       -2.049165    1.157834   -0.045698
      4          6           0        1.530476    0.394161    0.911414
      5          6           0        1.891464    0.672790   -0.512609
      6          6           0        1.167862   -0.596453   -0.150453
      7          6           0       -0.242935   -0.761913   -0.579437
      8          1           0       -1.822308    2.003726   -0.677460
      9          1           0       -2.885997    1.214493    0.636720
     10          1           0        0.727859    0.972632    1.349605
     11          1           0        2.318196    0.116755    1.598181
     12          1           0        1.324567    1.435273   -1.031547
     13          1           0        2.927185    0.595112   -0.814399
     14          1           0        1.751616   -1.508834   -0.186567
     15          1           0       -0.396076   -1.309031   -1.506337
 ---------------------------------------------------------------------

 SCF Done:  E(RHF) =  -306.970173760     A.U. after    2 cycles

 The electronic state is 1-A.
 Alpha  occ. eigenvalues --  -20.57891 -11.31598 -11.31333 -11.25244 -11.24606
 Alpha  occ. eigenvalues --  -11.24090 -11.22969  -1.53015  -1.16648  -1.02639
 Alpha  occ. eigenvalues --   -0.96779  -0.83758  -0.83586  -0.75406  -0.71389
 Alpha  occ. eigenvalues --   -0.67739  -0.66363  -0.63091  -0.58493  -0.55656
 Alpha  occ. eigenvalues --   -0.53148  -0.50473  -0.47609  -0.44183  -0.42939
 Alpha  occ. eigenvalues --   -0.35923
 Alpha virt. eigenvalues --    0.03322   0.03790   0.03914   0.04247   0.05689
 Alpha virt. eigenvalues --    0.05957   0.07038   0.08222   0.10261   0.10586
 Alpha virt. eigenvalues --    0.12115   0.12877   0.13426   0.14308   0.14621

 Mulliken charges:
               1
     1  O   -1.406455
     2  C    1.035300
     3  C   -0.154586
     4  C    0.239121
     5  C    0.188410
     6  C    0.462277
     7  C    0.394650
     8  H   -0.080799
     9  H   -0.102340
    10  H   -0.057921
    11  H   -0.119727
    12  H   -0.092438
    13  H   -0.125528
    14  H   -0.124849
    15  H   -0.055113
 Sum of Mulliken charges =  -0.00000

 Dipole moment (field-independent basis, Debye):
    X=              1.6967    Y=              0.6229    Z=             -1.0870  Tot=              2.1091

 Test job not archived.
 1\1\GINC-SE098\SP\RHF\Aug-CC-pVDZ\C6H8O1\OHZDE\09-Apr-2025\0\\#t hf au
 g-cc-pvdz iop(5/13=1,5/36=2,99/5=2) pseudo=read geom=check guess=(read
 ,tcheck) scf=(maxcycle=1)\\title\\0,1\O,0,0.45759142,-1.53609201,1.350
 2011\C,0,0.03135867,-1.60083806,0.07888215\C,0,-0.8287746,-2.27615575,
 -0.65107474\C,0,-0.67863365,1.32570332,0.49659898\C,0,0.19580482,1.587
 87424,-0.68763564\C,0,0.73499231,0.83374263,0.49823733\C,0,1.03191135,
 -0.61254323,0.35043217\H,0,-0.92812718,-2.05826547,-1.7040577\H,0,-1.4
 3749178,-3.05357289,-0.21030278\H,0,-1.46362321,0.58874365,0.38928599\

 Normal termination of Gaussian 16 at Wed Apr  9 19:09:02 2025.
