 Gaussian 16, Revision C.01,

 ----------------------------------------------------------------------
 #t hf aug-cc-pvdz symm=none int=(grid=ultrafine) guess=(read,tcheck) s
 table=(opt,rrhf)
 ----------------------------------------------------------------------
 -----
 title
 -----
 Symbolic Z-matrix:
 Charge =  0 Multiplicity = 1

 SCF Done:  E(RHF) =  -373.409544280     A.U. after   15 cycles
 Normal termination of Gaussian 16 at Wed Apr  9 04:05:25 2025.
 Gaussian 16:  ES64L-G16RevC.01  3-Jul-2019

 ----------------------------------------------------------------------
 #t hf aug-cc-pvdz iop(5/13=1,5/36=2,99/5=2) pseudo=read geom=check gue
 ss=(read,tcheck) scf=(maxcycle=1)
 ----------------------------------------------------------------------
 -----
 title
 -----
 Structure from the checkpoint file:  "Grambow2020_wb97xd3_009220_forward_mol2.chk"
 Charge =  0 Multiplicity = 1

                         Standard orientation:
 ---------------------------------------------------------------------
 Center     Atomic      Atomic             Coordinates (Angstroms)
 Number     Number       Type             X           Y           Z
 ---------------------------------------------------------------------
      1          7           0       -1.096167    1.642247    0.458440
      2          6           0       -0.534340    0.643860   -0.033470
      3          8           0        0.693503    0.681476   -0.669323
      4          6           0        1.670547   -0.163663   -0.228416
      5          8           0        1.584330   -0.850674    0.733010
      6          6           0       -1.204476   -0.641685   -0.084393
      7          7           0       -1.738569   -1.652154   -0.163404
      8          1           0       -0.503436    2.468534    0.400568
      9          1           0        2.533534   -0.076673   -0.897648
 ---------------------------------------------------------------------

 SCF Done:  E(RHF) =  -373.768055988     A.U. after    2 cycles

 The electronic state is 1-A.
 Alpha  occ. eigenvalues --  -20.65915 -20.59391 -15.55871 -15.54967 -11.44239
 Alpha  occ. eigenvalues --  -11.42733 -11.30944  -1.61776  -1.52272  -1.29391
 Alpha  occ. eigenvalues --   -1.26190  -1.00548  -0.92850  -0.79767  -0.78119
 Alpha  occ. eigenvalues --   -0.75686  -0.68189  -0.65901  -0.63389  -0.58445
 Alpha  occ. eigenvalues --   -0.56096  -0.54041  -0.52629  -0.50826  -0.49008
 Alpha virt. eigenvalues --    0.02502   0.03581   0.04002   0.06683   0.08089
 Alpha virt. eigenvalues --    0.09177   0.10834   0.11288   0.11494   0.12516
 Alpha virt. eigenvalues --    0.12847   0.13781   0.14095   0.15897   0.16392

 Mulliken charges:
               1
     1  N    0.645438
     2  C    0.739754
     3  O   -1.337106
     4  C    1.295091
     5  O   -0.869491
     6  C   -1.786133
     7  N    0.937261
     8  H    0.244606
     9  H    0.130580
 Sum of Mulliken charges =  -0.00000

 Dipole moment (field-independent basis, Debye):
    X=              3.7891    Y=              3.6087    Z=             -1.8921  Tot=              5.5642

 Test job not archived.
 1\1\GINC-SE396\SP\RHF\Aug-CC-pVDZ\C3H2N2O2\OHZDE\09-Apr-2025\0\\#t hf
 aug-cc-pvdz iop(5/13=1,5/36=2,99/5=2) pseudo=read geom=check guess=(re
 ad,tcheck) scf=(maxcycle=1)\\title\\0,1\N,0,-1.68843588,-0.97397771,-0
 .17746741\C,0,-0.7640277,-0.20612863,0.15461593\O,0,0.51755557,-0.6254
 8484,0.46284717\C,0,1.55867009,-0.05586742,-0.21160943\O,0,1.44286811,
 0.69205585,-1.12317842\C,0,-1.00691739,1.20811165,0.36729039\N,0,-1.19
 525783,2.3191145,0.57404118\H,0,-1.36019675,-1.9340139,-0.26701879\H,0
 ,2.49574178,-0.42380949,0.22047938\\Version=ES64L-G16RevC.01\State=1-A

 Normal termination of Gaussian 16 at Wed Apr  9 04:05:28 2025.
