 Gaussian 16, Revision C.01,

 ----------------------------------------------------------------------
 #t hf aug-cc-pvdz symm=none int=(grid=ultrafine) guess=(read,tcheck) s
 table=(opt,rrhf)
 ----------------------------------------------------------------------
 -----
 title
 -----
 Symbolic Z-matrix:
 Charge =  0 Multiplicity = 1

 SCF Done:  E(RHF) =  -305.888256609     A.U. after   14 cycles
 Normal termination of Gaussian 16 at Wed Apr  9 16:01:50 2025.
 Gaussian 16:  ES64L-G16RevC.01  3-Jul-2019

 ----------------------------------------------------------------------
 #t hf aug-cc-pvdz iop(5/13=1,5/36=2,99/5=2) pseudo=read geom=check gue
 ss=(read,tcheck) scf=(maxcycle=1)
 ----------------------------------------------------------------------
 -----
 title
 -----
 Structure from the checkpoint file:  "Grambow2020_b97d3_007093_reverse_mol2.chk"
 Charge =  0 Multiplicity = 1

                         Standard orientation:
 ---------------------------------------------------------------------
 Center     Atomic      Atomic             Coordinates (Angstroms)
 Number     Number       Type             X           Y           Z
 ---------------------------------------------------------------------
      1          6           0        0.690289    2.595066   -0.124612
      2          6           0        0.956493   -0.807582    0.253060
      3          6           0        2.457948   -0.909859    0.143075
      4          8           0        0.172055   -1.169546   -0.607166
      5          6           0       -2.199814   -0.005111    0.506221
      6          8           0       -3.082690   -0.391227   -0.115414
      7          1           0        1.426807    2.546686    0.687560
      8          1           0        1.096918    2.111608   -1.021268
      9          1           0        0.465970    3.645150   -0.347271
     10          1           0        0.589025   -0.357222    1.205370
     11          1           0        2.850923   -1.514233    0.976036
     12          1           0        2.899184    0.093923    0.247192
     13          1           0        2.753255   -1.352492   -0.814459
     14          1           0       -0.226495    2.077685    0.181019
 ---------------------------------------------------------------------

 SCF Done:  E(RHF) =  -306.194159353     A.U. after    2 cycles

 The electronic state is 1-A.
 Alpha  occ. eigenvalues --  -20.63838 -20.55287 -11.36616 -11.35273 -11.25832
 Alpha  occ. eigenvalues --  -11.22871  -1.57608  -1.47437  -1.02778  -0.94995
 Alpha  occ. eigenvalues --   -0.81075  -0.79128  -0.68452  -0.63093  -0.61240
 Alpha  occ. eigenvalues --   -0.61135  -0.60999  -0.57156  -0.55781  -0.55562
 Alpha  occ. eigenvalues --   -0.55388  -0.53782  -0.50467  -0.42551
 Alpha virt. eigenvalues --    0.03199   0.03899   0.04224   0.05285   0.06327
 Alpha virt. eigenvalues --    0.06870   0.07575   0.08976   0.09792   0.10673
 Alpha virt. eigenvalues --    0.11506   0.12512   0.12847   0.14085   0.14677

 Mulliken charges:
               1
     1  C   -0.317600
     2  C    1.008241
     3  C   -0.706280
     4  O   -1.120481
     5  C    0.628875
     6  O   -0.645068
     7  H    0.101627
     8  H    0.105766
     9  H    0.044071
    10  H    0.181315
    11  H    0.236979
    12  H    0.222689
    13  H    0.182342
    14  H    0.077525
 Sum of Mulliken charges =  -0.00000

 Dipole moment (field-independent basis, Debye):
    X=              2.5751    Y=              0.7951    Z=              1.8358  Tot=              3.2609

 Test job not archived.
 1\1\GINC-SE131\SP\RHF\Aug-CC-pVDZ\C4H8O2\OHZDE\09-Apr-2025\0\\#t hf au
 g-cc-pvdz iop(5/13=1,5/36=2,99/5=2) pseudo=read geom=check guess=(read
 ,tcheck) scf=(maxcycle=1)\\title\\0,1\C,0,0.39099645,2.13499026,0.0619
 7265\C,0,-0.38628449,-1.20684918,-0.07752069\C,0,-1.87458728,-1.080949
 59,0.13702134\O,0,0.40000422,-1.63316007,0.75094722\C,0,2.82474333,-0.
 89249986,-0.58821859\O,0,3.68702073,-1.3700788,-0.00223067\H,0,-0.4031
 0301,2.15158657,-0.69536053\H,0,-0.01289172,1.76593672,1.01262749\H,0,
 0.77905751,3.15113682,0.20135814\H,0,-0.02990881,-0.86773688,-1.078895

 Normal termination of Gaussian 16 at Wed Apr  9 16:01:53 2025.
