 Gaussian 16, Revision C.01,

 ----------------------------------------------------------------------
 #t hf aug-cc-pvdz symm=none int=(grid=ultrafine) guess=(read,tcheck) s
 table=(opt,rrhf)
 ----------------------------------------------------------------------
 -----
 title
 -----
 Symbolic Z-matrix:
 Charge =  0 Multiplicity = 1

 SCF Done:  E(RHF) =  -323.739740303     A.U. after   15 cycles
 Normal termination of Gaussian 16 at Wed Apr  9 03:33:30 2025.
 Gaussian 16:  ES64L-G16RevC.01  3-Jul-2019

 ----------------------------------------------------------------------
 #t hf aug-cc-pvdz iop(5/13=1,5/36=2,99/5=2) pseudo=read geom=check gue
 ss=(read,tcheck) scf=(maxcycle=1)
 ----------------------------------------------------------------------
 -----
 title
 -----
 Structure from the checkpoint file:  "Grambow2020_wb97xd3_006973_forward_mol1.chk"
 Charge =  0 Multiplicity = 1

                         Standard orientation:
 ---------------------------------------------------------------------
 Center     Atomic      Atomic             Coordinates (Angstroms)
 Number     Number       Type             X           Y           Z
 ---------------------------------------------------------------------
      1          6           0       -2.746351   -0.894799   -0.100674
      2          6           0       -0.564248   -0.716510    0.385533
      3          6           0       -0.313895    0.538734   -0.345534
      4          8           0       -1.150625    1.491124   -0.071253
      5          6           0        1.152949    0.826568    0.294557
      6          6           0        2.182104   -0.160061    0.003191
      7          7           0        2.956031   -0.971244   -0.243732
      8          1           0       -3.121055   -0.943941   -1.122384
      9          1           0       -2.227792   -1.845875    0.075632
     10          1           0       -3.550255   -0.862612    0.634716
     11          1           0       -0.128128   -1.664629    0.076254
     12          1           0       -0.826113   -0.614202    1.434224
     13          1           0       -0.100195    0.318667   -1.413421
     14          1           0       -2.269746    0.145037   -0.027765
     15          1           0        1.062927    0.996633    1.367518
     16          1           0        1.409780    1.777049   -0.171068
 ---------------------------------------------------------------------

 SCF Done:  E(RHF) =  -324.073801913     A.U. after    2 cycles

 The electronic state is 1-A.
 Alpha  occ. eigenvalues --  -20.44578 -15.52355 -11.39495 -11.31914 -11.30281
 Alpha  occ. eigenvalues --  -11.29284 -11.25671  -1.37960  -1.25006  -1.10947
 Alpha  occ. eigenvalues --   -1.03289  -0.96644  -0.84117  -0.74375  -0.72104
 Alpha  occ. eigenvalues --   -0.66487  -0.64335  -0.61498  -0.60664  -0.59861
 Alpha  occ. eigenvalues --   -0.58999  -0.54935  -0.53712  -0.50723  -0.49077
 Alpha  occ. eigenvalues --   -0.37283  -0.36141
 Alpha virt. eigenvalues --    0.01247   0.02130   0.03199   0.04436   0.04902
 Alpha virt. eigenvalues --    0.05829   0.06141   0.07192   0.07632   0.08338
 Alpha virt. eigenvalues --    0.10646   0.11237   0.11933   0.13419   0.13686

 Mulliken charges:
               1
     1  C   -0.438536
     2  C   -0.128016
     3  C    1.280087
     4  O   -1.634392
     5  C   -0.172546
     6  C   -1.365910
     7  N    0.891544
     8  H    0.127552
     9  H    0.232294
    10  H    0.158192
    11  H   -0.023445
    12  H    0.139022
    13  H    0.166348
    14  H    0.225613
    15  H    0.232237
    16  H    0.309956
 Sum of Mulliken charges =   0.00000

 Dipole moment (field-independent basis, Debye):
    X=             -2.4439    Y=             -2.8486    Z=              1.7260  Tot=              4.1311

 Test job not archived.
 1\1\GINC-SE029\SP\RHF\Aug-CC-pVDZ\C5H9N1O1\OHZDE\09-Apr-2025\0\\#t hf
 aug-cc-pvdz iop(5/13=1,5/36=2,99/5=2) pseudo=read geom=check guess=(re
 ad,tcheck) scf=(maxcycle=1)\\title\\0,1\C,0,2.22589896,-0.74816071,0.1
 8004299\C,0,0.14278378,-0.05674198,0.64083113\C,0,-0.31164648,0.102316
 57,-0.75235483\O,0,-0.08996527,-0.92959799,-1.50628107\C,0,-1.89217866
 ,0.26297927,-0.40551406\C,0,-2.25587727,1.42143095,0.39648683\N,0,-2.4
 9146966,2.34202447,1.04065651\H,0,2.92797233,-0.15615097,-0.40589733\H
 ,0,2.10968942,-0.21912995,1.13458702\H,0,2.62548283,-1.7286239,0.43912

 Normal termination of Gaussian 16 at Wed Apr  9 03:33:35 2025.
