 Gaussian 16, Revision C.01,

 ----------------------------------------------------------------------
 #t hf aug-cc-pvdz symm=none int=(grid=ultrafine) guess=(read,tcheck) s
 table=(opt,rrhf)
 ----------------------------------------------------------------------
 -----
 title
 -----
 Symbolic Z-matrix:
 Charge =  0 Multiplicity = 1

 SCF Done:  E(RHF) =  -302.825303130     A.U. after   15 cycles
 Normal termination of Gaussian 16 at Wed Apr  9 18:04:44 2025.
 Gaussian 16:  ES64L-G16RevC.01  3-Jul-2019

 ----------------------------------------------------------------------
 #t hf aug-cc-pvdz iop(5/13=1,5/36=2,99/5=2) pseudo=read geom=check gue
 ss=(read,tcheck) scf=(maxcycle=1)
 ----------------------------------------------------------------------
 -----
 title
 -----
 Structure from the checkpoint file:  "Grambow2020_wb97xd3_006965_reverse_mol2.chk"
 Charge =  0 Multiplicity = 1

                         Standard orientation:
 ---------------------------------------------------------------------
 Center     Atomic      Atomic             Coordinates (Angstroms)
 Number     Number       Type             X           Y           Z
 ---------------------------------------------------------------------
      1          6           0       -2.233685   -0.662008   -0.480070
      2          6           0       -1.161340   -0.068215    0.047112
      3          6           0       -1.079306    1.423159    0.203022
      4          7           0       -0.099030   -0.808596    0.565020
      5          6           0        1.264672   -0.438238    0.535987
      6          6           0        1.795852    0.684165   -0.187397
      7          7           0        2.027259   -0.380082   -0.793102
      8          1           0        1.961786    1.747400   -0.305046
      9          1           0       -3.098198   -0.082893   -0.770472
     10          1           0       -2.280594   -1.736011   -0.615431
     11          1           0       -0.698850    1.695151    1.189495
     12          1           0       -0.427176    1.873330   -0.548473
     13          1           0       -2.067506    1.860655    0.074714
     14          1           0       -0.236940   -1.805303    0.503319
     15          1           0        1.832710   -0.864749    1.356547
 ---------------------------------------------------------------------

 SCF Done:  E(RHF) =  -303.145161211     A.U. after    2 cycles

 The electronic state is 1-A.
 Alpha  occ. eigenvalues --  -15.53141 -15.51026 -11.31943 -11.30518 -11.28258
 Alpha  occ. eigenvalues --  -11.24076 -11.20680  -1.33754  -1.23068  -1.05361
 Alpha  occ. eigenvalues --   -0.95417  -0.88650  -0.82256  -0.78978  -0.71919
 Alpha  occ. eigenvalues --   -0.69241  -0.65989  -0.62988  -0.58401  -0.58213
 Alpha  occ. eigenvalues --   -0.56081  -0.52463  -0.50786  -0.47438  -0.43134
 Alpha  occ. eigenvalues --   -0.32916
 Alpha virt. eigenvalues --    0.03297   0.04014   0.04279   0.04601   0.05245
 Alpha virt. eigenvalues --    0.05672   0.07545   0.08540   0.09390   0.10017
 Alpha virt. eigenvalues --    0.10832   0.12260   0.13470   0.13833   0.14663

 Mulliken charges:
               1
     1  C    0.260764
     2  C   -0.603776
     3  C   -0.405162
     4  N    0.794034
     5  C   -0.468418
     6  C   -0.384277
     7  N    0.597693
     8  H   -0.112802
     9  H   -0.120527
    10  H   -0.250036
    11  H    0.261910
    12  H    0.317097
    13  H    0.016104
    14  H    0.264144
    15  H   -0.166749
 Sum of Mulliken charges =   0.00000

 Dipole moment (field-independent basis, Debye):
    X=             -0.1131    Y=              1.9143    Z=              1.6969  Tot=              2.5606

 Test job not archived.
 1\1\GINC-SE135\SP\RHF\Aug-CC-pVDZ\C5H8N2\OHZDE\09-Apr-2025\0\\#t hf au
 g-cc-pvdz iop(5/13=1,5/36=2,99/5=2) pseudo=read geom=check guess=(read
 ,tcheck) scf=(maxcycle=1)\\title\\0,1\C,0,-1.56420207,0.98222699,-1.09
 984253\C,0,-0.72831452,0.17009833,-0.45009264\C,0,-1.10182836,-0.46886
 617,0.85659943\N,0,0.50026195,-0.2000379,-0.99643924\C,0,1.68918889,-0
 .45148168,-0.27469161\C,0,1.86761345,-0.19765335,1.12850498\N,0,2.4176
 2517,0.6888011,0.44678932\H,0,1.70702575,-0.45087212,2.16866708\H,0,-2
 .55883344,1.16796162,-0.72129039\H,0,-1.28328993,1.46263007,-2.0295231

 Normal termination of Gaussian 16 at Wed Apr  9 18:04:50 2025.
