 Gaussian 16, Revision C.01,

 ----------------------------------------------------------------------
 #t hf aug-cc-pvdz symm=none int=(grid=ultrafine) guess=(read,tcheck) s
 table=(opt,rrhf)
 ----------------------------------------------------------------------
 -----
 title
 -----
 Symbolic Z-matrix:
 Charge =  0 Multiplicity = 1

 SCF Done:  E(RHF) =  -307.724442183     A.U. after   15 cycles

 1\1\GINC-SE168\Stability\RHF\Aug-CC-pVDZ\C6H10O1\OHZDE\09-Apr-2025\0\\
 #t hf aug-cc-pvdz symm=none int=(grid=ultrafine) guess=(read,tcheck) s
 table=(opt,rrhf)\\title\\0,1\C,0,2.03856349,0.58730438,-0.32138279\C,0
 ,1.08191189,-0.50931982,-0.63618194\C,0,-0.10979749,-0.90645152,1.1521
 5086\C,0,-1.12386454,-0.41316444,0.14602439\O,0,-2.33554406,-1.0885404
 ,0.04583984\C,0,-1.01551069,1.01083358,-0.29296722\C,0,-0.30479707,-0.
 09376487,-1.0520811\H,0,2.91200032,0.24157336,0.23179697\H,0,1.6370081
 2,1.4964866,0.14419484\H,0,2.39330429,0.88272198,-1.31857642\H,0,0.868

 Normal termination of Gaussian 16 at Wed Apr  9 19:08:08 2025.
 Gaussian 16:  ES64L-G16RevC.01  3-Jul-2019

 ----------------------------------------------------------------------
 #t hf aug-cc-pvdz iop(5/13=1,5/36=2,99/5=2) pseudo=read geom=check gue
 ss=(read,tcheck) scf=(maxcycle=1)
 ----------------------------------------------------------------------
 -----
 title
 -----
 Structure from the checkpoint file:  "Grambow2020_wb97xd3_008611_forward_mol1.chk"
 Charge =  0 Multiplicity = 1

                         Standard orientation:
 ---------------------------------------------------------------------
 Center     Atomic      Atomic             Coordinates (Angstroms)
 Number     Number       Type             X           Y           Z
 ---------------------------------------------------------------------
      1          6           0       -2.421105   -0.018719    0.139233
      2          6           0       -1.255967    0.242404   -0.750225
      3          6           0        0.228810    1.372021    0.387940
      4          6           0        0.926962    0.067320    0.080865
      5          8           0        2.250748    0.111848   -0.343333
      6          6           0        0.380689   -1.167997    0.719459
      7          6           0       -0.101859   -0.719911   -0.647242
      8          1           0       -3.086082    0.840420    0.229319
      9          1           0       -2.220323   -0.441732    1.131890
     10          1           0       -2.973598   -0.788271   -0.417587
     11          1           0       -0.701425    1.442374   -0.405683
     12          1           0       -0.076535    1.541878    1.418488
     13          1           0        0.767766    2.229077   -0.017760
     14          1           0        2.819014    0.073570    0.428890
     15          1           0        1.054541   -2.015386    0.722612
     16          1           0       -0.267456   -1.095057    1.584953
     17          1           0        0.132933   -1.332372   -1.508638
 ---------------------------------------------------------------------

 SCF Done:  E(RHF) =  -308.049012159     A.U. after    2 cycles

 The electronic state is 1-A.
 Alpha  occ. eigenvalues --  -20.56011 -11.29947 -11.26120 -11.25874 -11.23752
 Alpha  occ. eigenvalues --  -11.23450 -11.23051  -1.46884  -1.18257  -1.02169
 Alpha  occ. eigenvalues --   -0.98170  -0.87443  -0.80804  -0.72492  -0.70806
 Alpha  occ. eigenvalues --   -0.66402  -0.63687  -0.61810  -0.58685  -0.57543
 Alpha  occ. eigenvalues --   -0.54984  -0.53845  -0.50195  -0.48738  -0.43571
 Alpha  occ. eigenvalues --   -0.40437  -0.31073
 Alpha virt. eigenvalues --    0.03131   0.03713   0.03829   0.04458   0.05795
 Alpha virt. eigenvalues --    0.06091   0.06471   0.07252   0.07529   0.09428
 Alpha virt. eigenvalues --    0.10465   0.11270   0.13278   0.13896   0.14180

 Mulliken charges:
               1
     1  C   -0.273090
     2  C   -0.921829
     3  C   -0.344113
     4  C    1.340546
     5  O   -1.508172
     6  C    0.310050
     7  C    0.486826
     8  H    0.153353
     9  H    0.119324
    10  H    0.230608
    11  H    0.447050
    12  H    0.075655
    13  H    0.098075
    14  H    0.237638
    15  H   -0.142153
    16  H   -0.148908
    17  H   -0.160861
 Sum of Mulliken charges =  -0.00000

 Dipole moment (field-independent basis, Debye):
    X=              0.3682    Y=             -0.2321    Z=              2.9086  Tot=              2.9410

 Test job not archived.
 1\1\GINC-SE168\SP\RHF\Aug-CC-pVDZ\C6H10O1\OHZDE\09-Apr-2025\0\\#t hf a
 ug-cc-pvdz iop(5/13=1,5/36=2,99/5=2) pseudo=read geom=check guess=(rea
 d,tcheck) scf=(maxcycle=1)\\title\\0,1\C,0,2.03856349,0.58730438,-0.32
 138279\C,0,1.08191189,-0.50931982,-0.63618194\C,0,-0.10979749,-0.90645
 152,1.15215086\C,0,-1.12386454,-0.41316444,0.14602439\O,0,-2.33554406,
 -1.0885404,0.04583984\C,0,-1.01551069,1.01083358,-0.29296722\C,0,-0.30
 479707,-0.09376487,-1.0520811\H,0,2.91200032,0.24157336,0.23179697\H,0
 ,1.63700812,1.4964866,0.14419484\H,0,2.39330429,0.88272198,-1.31857642

 Normal termination of Gaussian 16 at Wed Apr  9 19:08:14 2025.
