 Gaussian 16, Revision C.01,

 ----------------------------------------------------------------------
 #t hf aug-cc-pvdz symm=none int=(grid=ultrafine) guess=(read,tcheck) s
 table=(opt,rrhf)
 ----------------------------------------------------------------------
 -----
 title
 -----
 Symbolic Z-matrix:
 Charge =  0 Multiplicity = 1

 SCF Done:  E(RHF) =  -307.853929735     A.U. after   13 cycles

 1\1\GINC-SE220\Stability\RHF\Aug-CC-pVDZ\C6H10O1\OHZDE\09-Apr-2025\0\\
 #t hf aug-cc-pvdz symm=none int=(grid=ultrafine) guess=(read,tcheck) s
 table=(opt,rrhf)\\title\\0,1\C,0,1.80459163,-0.55507443,-0.22013399\C,
 0,0.77313448,0.33671978,0.43986983\C,0,0.04404087,1.39558648,-0.435840
 43\C,0,-1.30900242,0.83786663,0.03020177\O,0,-1.85203215,-0.13167499,-
 0.87634463\C,0,-1.26312104,-1.21497224,-0.13448578\C,0,-0.59728101,-0.
 25712856,0.85470851\H,0,2.12571402,-1.3560709,0.45023218\H,0,2.6885355
 9,0.02253945,-0.49947448\H,0,1.41439621,-1.01294667,-1.13173698\H,0,1.

 Normal termination of Gaussian 16 at Wed Apr  9 19:03:05 2025.
 Gaussian 16:  ES64L-G16RevC.01  3-Jul-2019

 ----------------------------------------------------------------------
 #t hf aug-cc-pvdz iop(5/13=1,5/36=2,99/5=2) pseudo=read geom=check gue
 ss=(read,tcheck) scf=(maxcycle=1)
 ----------------------------------------------------------------------
 -----
 title
 -----
 Structure from the checkpoint file:  "Grambow2020_wb97xd3_008492_forward_mol2.chk"
 Charge =  0 Multiplicity = 1

                         Standard orientation:
 ---------------------------------------------------------------------
 Center     Atomic      Atomic             Coordinates (Angstroms)
 Number     Number       Type             X           Y           Z
 ---------------------------------------------------------------------
      1          6           0        2.054223   -0.635215   -0.371067
      2          6           0        1.112355    0.243879    0.425730
      3          6           0        0.345836    1.372304   -0.321767
      4          6           0       -0.979822    0.825263    0.228097
      5          8           0       -1.629434   -0.073675   -0.681097
      6          6           0       -1.014736   -1.214714   -0.055893
      7          6           0       -0.236147   -0.335706    0.924136
      8          1           0        2.405296   -1.482985    0.222347
      9          1           0        2.929334   -0.066519   -0.693233
     10          1           0        1.572958   -1.027461   -1.269647
     11          1           0        1.649074    0.661869    1.280283
     12          1           0        0.599353    2.382995   -0.000252
     13          1           0        0.391981    1.322896   -1.410803
     14          1           0       -1.678689    1.510885    0.708837
     15          1           0       -0.436142   -1.815375   -0.763410
     16          1           0       -1.766172   -1.852511    0.418640
     17          1           0       -0.321776   -0.579260    1.980589
 ---------------------------------------------------------------------

 SCF Done:  E(RHF) =  -308.181480746     A.U. after    2 cycles

 The electronic state is 1-A.
 Alpha  occ. eigenvalues --  -20.53110 -11.28230 -11.28145 -11.23763 -11.23238
 Alpha  occ. eigenvalues --  -11.22532 -11.22431  -1.46202  -1.12874  -0.98307
 Alpha  occ. eigenvalues --   -0.97515  -0.86470  -0.82873  -0.72078  -0.70239
 Alpha  occ. eigenvalues --   -0.65631  -0.63450  -0.60202  -0.57688  -0.57201
 Alpha  occ. eigenvalues --   -0.54594  -0.51282  -0.49225  -0.46163  -0.44493
 Alpha  occ. eigenvalues --   -0.41946  -0.39306
 Alpha virt. eigenvalues --    0.03182   0.03584   0.03720   0.04543   0.05843
 Alpha virt. eigenvalues --    0.06032   0.06344   0.06782   0.07488   0.10002
 Alpha virt. eigenvalues --    0.11365   0.12671   0.13137   0.13985   0.14402

 Mulliken charges:
               1
     1  C   -0.400831
     2  C   -0.386439
     3  C   -0.054331
     4  C    1.326608
     5  O   -1.466500
     6  C    0.819175
     7  C   -0.308673
     8  H    0.182341
     9  H    0.165071
    10  H    0.172517
    11  H    0.032076
    12  H    0.020739
    13  H    0.059514
    14  H   -0.068656
    15  H    0.071415
    16  H    0.022349
    17  H   -0.186376
 Sum of Mulliken charges =  -0.00000

 Dipole moment (field-independent basis, Debye):
    X=              1.4451    Y=             -0.1227    Z=              1.5084  Tot=              2.0925

 Test job not archived.
 1\1\GINC-SE220\SP\RHF\Aug-CC-pVDZ\C6H10O1\OHZDE\09-Apr-2025\0\\#t hf a
 ug-cc-pvdz iop(5/13=1,5/36=2,99/5=2) pseudo=read geom=check guess=(rea
 d,tcheck) scf=(maxcycle=1)\\title\\0,1\C,0,1.80459163,-0.55507443,-0.2
 2013399\C,0,0.77313448,0.33671978,0.43986983\C,0,0.04404087,1.39558648
 ,-0.43584043\C,0,-1.30900242,0.83786663,0.03020177\O,0,-1.85203215,-0.
 13167499,-0.87634463\C,0,-1.26312104,-1.21497224,-0.13448578\C,0,-0.59
 728101,-0.25712856,0.85470851\H,0,2.12571402,-1.3560709,0.45023218\H,0
 ,2.68853559,0.02253945,-0.49947448\H,0,1.41439621,-1.01294667,-1.13173

 Normal termination of Gaussian 16 at Wed Apr  9 19:03:11 2025.
