 Gaussian 16, Revision C.01,

 ----------------------------------------------------------------------
 #t hf aug-cc-pvdz symm=none int=(grid=ultrafine) guess=(read,tcheck) s
 table=(opt,rrhf)
 ----------------------------------------------------------------------
 -----
 title
 -----
 Symbolic Z-matrix:
 Charge =  0 Multiplicity = 1

 SCF Done:  E(RHF) =  -344.784580808     A.U. after   15 cycles

 1\1\GINC-SE113\Stability\RHF\Aug-CC-pVDZ\C5H10O2\OHZDE\09-Apr-2025\0\\
 #t hf aug-cc-pvdz symm=none int=(grid=ultrafine) guess=(read,tcheck) s
 table=(opt,rrhf)\\title\\0,1\C,0,-2.34935841,-0.56114424,-0.3661786\C,
 0,-1.14201002,0.32679769,-0.63040748\C,0,0.16417083,-0.26984934,-0.125
 92722\O,0,0.32956591,-1.50622902,-0.8138629\C,0,1.34343605,0.67288206,
 -0.37506477\C,0,2.46872714,0.58347393,0.46848133\O,0,2.19518343,1.0016
 1137,1.64193542\H,0,-3.26308951,-0.09413738,-0.73777183\H,0,-2.2380772
 9,-1.52806358,-0.85646788\H,0,-2.47937113,-0.74015822,0.70433316\H,0,-

 Normal termination of Gaussian 16 at Wed Apr  9 18:37:43 2025.
 Gaussian 16:  ES64L-G16RevC.01  3-Jul-2019

 ----------------------------------------------------------------------
 #t hf aug-cc-pvdz iop(5/13=1,5/36=2,99/5=2) pseudo=read geom=check gue
 ss=(read,tcheck) scf=(maxcycle=1)
 ----------------------------------------------------------------------
 -----
 title
 -----
 Structure from the checkpoint file:  "Grambow2020_wb97xd3_007831_forward_mol1.chk"
 Charge =  0 Multiplicity = 1

                         Standard orientation:
 ---------------------------------------------------------------------
 Center     Atomic      Atomic             Coordinates (Angstroms)
 Number     Number       Type             X           Y           Z
 ---------------------------------------------------------------------
      1          6           0       -2.714880   -0.542491   -0.322381
      2          6           0       -1.450735   -0.581703    0.523992
      3          6           0       -0.283975    0.167078   -0.104176
      4          8           0       -0.710330    1.518322   -0.251170
      5          6           0        0.975445    0.066966    0.759142
      6          6           0        2.233002    0.185888    0.134439
      7          8           0        2.478354   -0.829757   -0.596949
      8          1           0       -3.522623   -1.094740    0.160997
      9          1           0       -3.049534    0.482986   -0.477635
     10          1           0       -2.545385   -0.992911   -1.303879
     11          1           0       -1.642939   -0.143048    1.508225
     12          1           0       -1.137316   -1.614341    0.693694
     13          1           0       -0.079527   -0.259266   -1.096375
     14          1           0       -0.015919    2.014535   -0.686489
     15          1           0        1.462194   -1.174930    0.077437
     16          1           0        0.835904    0.538354    1.730368
     17          1           0        2.997817    0.960412    0.232515
 ---------------------------------------------------------------------

 SCF Done:  E(RHF) =  -345.144070359     A.U. after    2 cycles

 The electronic state is 1-A.
 Alpha  occ. eigenvalues --  -20.58249 -20.54508 -11.37311 -11.30065 -11.22528
 Alpha  occ. eigenvalues --  -11.22004 -11.21536  -1.51572  -1.45076  -1.07752
 Alpha  occ. eigenvalues --   -1.02318  -0.91533  -0.83400  -0.79284  -0.73867
 Alpha  occ. eigenvalues --   -0.70736  -0.65364  -0.61807  -0.58759  -0.58179
 Alpha  occ. eigenvalues --   -0.57745  -0.54598  -0.50679  -0.49198  -0.48570
 Alpha  occ. eigenvalues --   -0.47417  -0.44486  -0.34681
 Alpha virt. eigenvalues --    0.02818   0.03957   0.04186   0.04793   0.05303
 Alpha virt. eigenvalues --    0.05903   0.07158   0.07260   0.07909   0.08900
 Alpha virt. eigenvalues --    0.10036   0.10901   0.12091   0.13513   0.13870

 Mulliken charges:
               1
     1  C   -0.397220
     2  C   -0.205883
     3  C    0.467471
     4  O   -1.300118
     5  C   -0.359582
     6  C    1.151549
     7  O   -1.257131
     8  H    0.130534
     9  H    0.200845
    10  H    0.156525
    11  H    0.151106
    12  H    0.163468
    13  H    0.027411
    14  H    0.289116
    15  H    0.811938
    16  H   -0.105550
    17  H    0.075519
 Sum of Mulliken charges =  -0.00000

 Dipole moment (field-independent basis, Debye):
    X=              1.2890    Y=              0.9226    Z=              0.2865  Tot=              1.6109

 Test job not archived.
 1\1\GINC-SE113\SP\RHF\Aug-CC-pVDZ\C5H10O2\OHZDE\09-Apr-2025\0\\#t hf a
 ug-cc-pvdz iop(5/13=1,5/36=2,99/5=2) pseudo=read geom=check guess=(rea
 d,tcheck) scf=(maxcycle=1)\\title\\0,1\C,0,-2.34935841,-0.56114424,-0.
 3661786\C,0,-1.14201002,0.32679769,-0.63040748\C,0,0.16417083,-0.26984
 934,-0.12592722\O,0,0.32956591,-1.50622902,-0.8138629\C,0,1.34343605,0
 .67288206,-0.37506477\C,0,2.46872714,0.58347393,0.46848133\O,0,2.19518
 343,1.00161137,1.64193542\H,0,-3.26308951,-0.09413738,-0.73777183\H,0,
 -2.23807729,-1.52806358,-0.85646788\H,0,-2.47937113,-0.74015822,0.7043

 Normal termination of Gaussian 16 at Wed Apr  9 18:37:49 2025.
