 Gaussian 16, Revision C.01,

 ----------------------------------------------------------------------
 #t hf aug-cc-pvdz symm=none int=(grid=ultrafine) guess=(read,tcheck) s
 table=(opt,rrhf)
 ----------------------------------------------------------------------
 -----
 title
 -----
 Symbolic Z-matrix:
 Charge =  0 Multiplicity = 1

 SCF Done:  E(RHF) =  -320.684359772     A.U. after   15 cycles
 Normal termination of Gaussian 16 at Wed Apr  9 16:11:42 2025.
 Gaussian 16:  ES64L-G16RevC.01  3-Jul-2019

 ----------------------------------------------------------------------
 #t hf aug-cc-pvdz iop(5/13=1,5/36=2,99/5=2) pseudo=read geom=check gue
 ss=(read,tcheck) scf=(maxcycle=1)
 ----------------------------------------------------------------------
 -----
 title
 -----
 Structure from the checkpoint file:  "Grambow2020_b97d3_007146_reverse_mol2.chk"
 Charge =  0 Multiplicity = 1

                         Standard orientation:
 ---------------------------------------------------------------------
 Center     Atomic      Atomic             Coordinates (Angstroms)
 Number     Number       Type             X           Y           Z
 ---------------------------------------------------------------------
      1          8           0        2.832891   -0.898421   -0.017909
      2          6           0        1.711165   -1.075049    0.130046
      3          7           0       -1.638524   -0.473548    0.323458
      4          6           0       -2.541395   -1.194470   -0.216100
      5          6           0       -0.405990    1.879248    0.221938
      6          8           0        0.582801    1.586228   -0.426113
      7          1           0       -0.717117   -0.933084    0.304737
      8          1           0       -2.386600   -2.201588   -0.638442
      9          1           0       -3.564992   -0.802437   -0.274619
     10          1           0       -0.450431    1.782783    1.329016
     11          1           0       -1.319404    2.308337   -0.248023
 ---------------------------------------------------------------------

 SCF Done:  E(RHF) =  -320.993827194     A.U. after    2 cycles

 The electronic state is 1-A.
 Alpha  occ. eigenvalues --  -20.64471 -20.54434 -15.51434 -11.37221 -11.34398
 Alpha  occ. eigenvalues --  -11.30588  -1.58260  -1.46424  -1.21867  -0.86909
 Alpha  occ. eigenvalues --   -0.85665  -0.79699  -0.71926  -0.67598  -0.64515
 Alpha  occ. eigenvalues --   -0.63419  -0.61759  -0.61529  -0.55712  -0.52160
 Alpha  occ. eigenvalues --   -0.48633  -0.46742  -0.41716
 Alpha virt. eigenvalues --    0.03284   0.04397   0.04972   0.05713   0.06494
 Alpha virt. eigenvalues --    0.07144   0.08895   0.09181   0.10311   0.11428
 Alpha virt. eigenvalues --    0.12432   0.13672   0.15145   0.15640   0.16106

 Mulliken charges:
               1
     1  O   -0.610369
     2  C    0.534386
     3  N    0.685429
     4  C   -0.643290
     5  C    0.549773
     6  O   -0.857465
     7  H    0.015359
     8  H    0.049999
     9  H    0.000519
    10  H    0.160108
    11  H    0.115552
 Sum of Mulliken charges =  -0.00000

 Dipole moment (field-independent basis, Debye):
    X=             -2.9882    Y=             -1.6190    Z=              0.3684  Tot=              3.4185

 Test job not archived.
 1\1\GINC-SE113\SP\RHF\Aug-CC-pVDZ\C3H5N1O2\OHZDE\09-Apr-2025\0\\#t hf
 aug-cc-pvdz iop(5/13=1,5/36=2,99/5=2) pseudo=read geom=check guess=(re
 ad,tcheck) scf=(maxcycle=1)\\title\\0,1\O,0,3.56358198,0.37610659,-0.7
 4928724\C,0,2.63718288,-0.11416259,-0.28800825\N,0,-0.61054246,-0.6489
 3371,0.59851779\C,0,-1.22489939,-1.76025568,0.48208562\C,0,-0.43424914
 ,1.83056434,-0.34281512\O,0,0.48313456,1.70492791,-1.13411841\H,0,0.40
 375678,-0.75313975,0.45410884\H,0,-0.74966404,-2.73393233,0.27538571\H
 ,0,-2.31666081,-1.77422795,0.59489271\H,0,-0.2739445,2.06817637,0.7317

 Normal termination of Gaussian 16 at Wed Apr  9 16:11:46 2025.
