 Gaussian 16, Revision C.01,

 ----------------------------------------------------------------------
 #t hf aug-cc-pvdz symm=none int=(grid=ultrafine) guess=(read,tcheck) s
 table=(opt,rrhf)
 ----------------------------------------------------------------------
 -----
 title
 -----
 Symbolic Z-matrix:
 Charge =  0 Multiplicity = 1

 SCF Done:  E(RHF) =  -320.229804122     A.U. after   17 cycles
 Normal termination of Gaussian 16 at Wed Apr  9 19:20:46 2025.
 Gaussian 16:  ES64L-G16RevC.01  3-Jul-2019

 ----------------------------------------------------------------------
 #t hf aug-cc-pvdz iop(5/13=1,5/36=2,99/5=2) pseudo=read geom=check gue
 ss=(read,tcheck) scf=(maxcycle=1)
 ----------------------------------------------------------------------
 -----
 title
 -----
 Structure from the checkpoint file:  "Grambow2020_wb97xd3_009382_reverse_mol1.chk"
 Charge =  0 Multiplicity = 1

                         Standard orientation:
 ---------------------------------------------------------------------
 Center     Atomic      Atomic             Coordinates (Angstroms)
 Number     Number       Type             X           Y           Z
 ---------------------------------------------------------------------
      1          8           0       -0.385288   -1.041929    0.022647
      2          6           0        0.312813    0.054711   -0.007812
      3          6           0       -0.568319    1.166866   -0.018047
      4          6           0       -1.980370    0.642610   -0.105683
      5          6           0       -1.727721   -0.702339   -0.006386
      6          6           0        1.728214   -0.025823   -0.008632
      7          7           0        2.877061   -0.034653   -0.011664
      8          1           0       -0.248406    2.174136   -0.247298
      9          1           0       -1.029039    1.157663    1.042775
     10          1           0       -2.367380   -1.569942   -0.015642
 ---------------------------------------------------------------------

 SCF Done:  E(RHF) =  -320.542878209     A.U. after    2 cycles

 The electronic state is 1-A.
 Alpha  occ. eigenvalues --  -20.70410 -15.57053 -11.41345 -11.33002 -11.31792
 Alpha  occ. eigenvalues --  -11.30516 -11.24649  -1.63875  -1.28576  -1.15649
 Alpha  occ. eigenvalues --   -1.09135  -0.91042  -0.86407  -0.80894  -0.72428
 Alpha  occ. eigenvalues --   -0.70136  -0.65551  -0.62744  -0.61291  -0.56826
 Alpha  occ. eigenvalues --   -0.55767  -0.52628  -0.37852  -0.36111
 Alpha virt. eigenvalues --   -0.00978   0.02929   0.03664   0.04597   0.06304
 Alpha virt. eigenvalues --    0.08524   0.09319   0.10267   0.10553   0.11240
 Alpha virt. eigenvalues --    0.12061   0.13033   0.14005   0.14103   0.14423

 Mulliken charges:
               1
     1  O   -1.402120
     2  C    2.745592
     3  C   -0.541926
     4  C   -0.657575
     5  C    0.926705
     6  C   -2.782563
     7  N    1.118020
     8  H   -0.026125
     9  H    0.684221
    10  H   -0.064229
 Sum of Mulliken charges =  -0.00000

 Dipole moment (field-independent basis, Debye):
    X=             -0.5442    Y=             -0.3924    Z=              0.6732  Tot=              0.9504

 Test job not archived.
 1\1\GINC-SE014\SP\RHF\Aug-CC-pVDZ\C5H3N1O1\OHZDE\09-Apr-2025\0\\#t hf
 aug-cc-pvdz iop(5/13=1,5/36=2,99/5=2) pseudo=read geom=check guess=(re
 ad,tcheck) scf=(maxcycle=1)\\title\\0,1\O,0,0.21712778,0.67336585,0.98
 708222\C,0,-0.5140694,0.44793071,-0.06430866\C,0,0.04782251,-0.6276262
 4,-0.799727\C,0,1.34459858,-1.01977302,-0.13564614\C,0,1.29064386,-0.2
 0147101,0.96437732\C,0,-1.67201955,1.23586277,-0.28376892\N,0,-2.61939
 29,1.84541657,-0.50929599\H,0,-0.24930789,-0.87371698,-1.80999776\H,0,
 -0.14245402,-1.54684553,-0.1240636\H,0,1.95940502,-0.04748412,1.795658

 Normal termination of Gaussian 16 at Wed Apr  9 19:20:50 2025.
