 Gaussian 16, Revision C.01,

 ----------------------------------------------------------------------
 #t hf aug-cc-pvdz symm=none int=(grid=ultrafine) guess=(read,tcheck) s
 table=(opt,rrhf)
 ----------------------------------------------------------------------
 -----
 title
 -----
 Symbolic Z-matrix:
 Charge =  0 Multiplicity = 1

 SCF Done:  E(RHF) =  -266.675510984     A.U. after   14 cycles
 Normal termination of Gaussian 16 at Wed Apr  9 03:05:12 2025.
 Gaussian 16:  ES64L-G16RevC.01  3-Jul-2019

 ----------------------------------------------------------------------
 #t hf aug-cc-pvdz iop(5/13=1,5/36=2,99/5=2) pseudo=read geom=check gue
 ss=(read,tcheck) scf=(maxcycle=1)
 ----------------------------------------------------------------------
 -----
 title
 -----
 Structure from the checkpoint file:  "Grambow2020_b97d3_006476_forward_mol1.chk"
 Charge =  0 Multiplicity = 1

                         Standard orientation:
 ---------------------------------------------------------------------
 Center     Atomic      Atomic             Coordinates (Angstroms)
 Number     Number       Type             X           Y           Z
 ---------------------------------------------------------------------
      1          8           0       -1.447304   -0.815543   -0.035789
      2          6           0       -1.134106    0.547661    0.198343
      3          6           0        0.308984    1.013069    0.021906
      4          6           0        1.384577   -0.451522    0.479992
      5          8           0        0.980199    0.017550   -0.796122
      6          1           0       -0.861017   -1.075939   -0.778041
      7          1           0       -1.647941    1.217008   -0.531895
      8          1           0       -1.513727    0.822988    1.190444
      9          1           0        1.118772    0.560321    1.128159
     10          1           0        0.809957   -1.297917    0.860542
     11          1           0        2.474059   -0.497767    0.584631
 ---------------------------------------------------------------------

 SCF Done:  E(RHF) =  -266.945144925     A.U. after    2 cycles

 The electronic state is 1-A.
 Alpha  occ. eigenvalues --  -20.58918 -20.55796 -11.34330 -11.33263 -11.30070
 Alpha  occ. eigenvalues --   -1.51367  -1.45069  -1.00232  -0.95945  -0.82264
 Alpha  occ. eigenvalues --   -0.73000  -0.68699  -0.63570  -0.62518  -0.59944
 Alpha  occ. eigenvalues --   -0.55061  -0.52379  -0.49696  -0.45381  -0.36765
 Alpha virt. eigenvalues --    0.03299   0.04398   0.04670   0.05086   0.06916
 Alpha virt. eigenvalues --    0.07519   0.09461   0.10201   0.12049   0.12396
 Alpha virt. eigenvalues --    0.14208   0.15547   0.15980   0.16294   0.17107

 Mulliken charges:
               1
     1  O   -1.138586
     2  C    0.672857
     3  C   -0.115591
     4  C    0.284211
     5  O   -1.112023
     6  H    0.414885
     7  H    0.195673
     8  H    0.149160
     9  H    0.524625
    10  H    0.138729
    11  H   -0.013939
 Sum of Mulliken charges =  -0.00000

 Dipole moment (field-independent basis, Debye):
    X=              1.0401    Y=             -1.0153    Z=              1.2210  Tot=              1.8983

 Test job not archived.
 1\1\GINC-SE332\SP\RHF\Aug-CC-pVDZ\C3H6O2\OHZDE\09-Apr-2025\0\\#t hf au
 g-cc-pvdz iop(5/13=1,5/36=2,99/5=2) pseudo=read geom=check guess=(read
 ,tcheck) scf=(maxcycle=1)\\title\\0,1\O,0,-1.6313841,-0.46056717,-0.20
 980027\C,0,-0.99547089,0.80054094,-0.08151133\C,0,0.51872417,0.8835188
 6,-0.25635642\C,0,1.20014028,-0.75291338,0.35153599\O,0,0.93093593,-0.
 31304516,-0.96985015\H,0,-1.12202693,-0.91971607,-0.91137942\H,0,-1.32
 520466,1.50826706,-0.87881741\H,0,-1.30237177,1.24568191,0.87339379\H,
 0,1.18605848,0.34590527,0.90561106\H,0,0.4334181,-1.39739576,0.7853227

 Normal termination of Gaussian 16 at Wed Apr  9 03:05:15 2025.
