 Gaussian 16, Revision C.01,

 ----------------------------------------------------------------------
 #t hf aug-cc-pvdz symm=none int=(grid=ultrafine) guess=(read,tcheck) s
 table=(opt,rrhf)
 ----------------------------------------------------------------------
 -----
 title
 -----
 Symbolic Z-matrix:
 Charge =  0 Multiplicity = 1

 SCF Done:  E(RHF) =  -322.561542002     A.U. after   17 cycles
 Normal termination of Gaussian 16 at Wed Apr  9 18:09:15 2025.
 Gaussian 16:  ES64L-G16RevC.01  3-Jul-2019

 ----------------------------------------------------------------------
 #t hf aug-cc-pvdz iop(5/13=1,5/36=2,99/5=2) pseudo=read geom=check gue
 ss=(read,tcheck) scf=(maxcycle=1)
 ----------------------------------------------------------------------
 -----
 title
 -----
 Structure from the checkpoint file:  "Grambow2020_wb97xd3_007140_forward_mol1.chk"
 Charge =  0 Multiplicity = 1

                         Standard orientation:
 ---------------------------------------------------------------------
 Center     Atomic      Atomic             Coordinates (Angstroms)
 Number     Number       Type             X           Y           Z
 ---------------------------------------------------------------------
      1          7           0        2.302038    0.051832    0.096092
      2          6           0        1.048733    0.216552   -0.009679
      3          8           0        0.268944   -1.043447   -0.314769
      4          6           0       -0.935600   -1.293078    0.425450
      5          6           0       -1.409884   -0.195341   -0.400664
      6          6           0       -1.282190    1.152775    0.149240
      7          6           0        0.214939    1.323365    0.022817
      8          1           0        2.596009   -0.876010   -0.178767
      9          1           0       -0.841162   -1.084942    1.490440
     10          1           0       -1.279568   -2.301869    0.216272
     11          1           0       -1.714080   -0.392808   -1.419183
     12          1           0       -1.688177    1.228692    1.168296
     13          1           0       -1.792177    1.874112   -0.491864
     14          1           0        0.637337    2.311942   -0.062665
 ---------------------------------------------------------------------

 SCF Done:  E(RHF) =  -322.892862203     A.U. after    2 cycles

 The electronic state is 1-A.
 Alpha  occ. eigenvalues --  -20.61148 -15.42054 -11.39243 -11.34995 -11.32059
 Alpha  occ. eigenvalues --  -11.27360 -11.18607  -1.51676  -1.17191  -1.13441
 Alpha  occ. eigenvalues --   -1.02304  -0.91258  -0.86627  -0.77798  -0.73291
 Alpha  occ. eigenvalues --   -0.69125  -0.65951  -0.63090  -0.60349  -0.59943
 Alpha  occ. eigenvalues --   -0.57222  -0.54506  -0.48187  -0.45553  -0.41478
 Alpha  occ. eigenvalues --   -0.26425
 Alpha virt. eigenvalues --    0.01482   0.02821   0.03088   0.03524   0.05623
 Alpha virt. eigenvalues --    0.05960   0.06496   0.07227   0.09720   0.11227
 Alpha virt. eigenvalues --    0.12092   0.12660   0.12695   0.13861   0.13976

 Mulliken charges:
               1
     1  N    0.631423
     2  C   -0.555103
     3  O   -1.448861
     4  C    0.563805
     5  C    0.592299
     6  C   -0.508945
     7  C    0.554941
     8  H    0.076509
     9  H    0.100416
    10  H    0.026233
    11  H   -0.141183
    12  H    0.145520
    13  H    0.179964
    14  H   -0.217019
 Sum of Mulliken charges =  -0.00000

 Dipole moment (field-independent basis, Debye):
    X=             -8.0011    Y=             -2.8548    Z=             -0.4598  Tot=              8.5076

 Test job not archived.
 1\1\GINC-SE114\SP\RHF\Aug-CC-pVDZ\C5H7N1O1\OHZDE\09-Apr-2025\0\\#t hf
 aug-cc-pvdz iop(5/13=1,5/36=2,99/5=2) pseudo=read geom=check guess=(re
 ad,tcheck) scf=(maxcycle=1)\\title\\0,1\N,0,1.94639752,-1.63319405,-0.
 10623671\C,0,0.88904292,-0.94431293,-0.23483522\O,0,1.09185395,0.55110
 909,-0.1283999\C,0,0.44407687,1.39500386,-1.09245019\C,0,-0.7274573,0.
 99078016,-0.33314372\C,0,-1.44563745,-0.19320787,-0.80059324\C,0,-0.45
 310149,-1.25595002,-0.38594767\H,0,2.73872176,-1.07692133,0.18640764\H
 ,0,0.50787429,1.01702936,-2.1120129\H,0,0.82029945,2.40858777,-0.98837

 Normal termination of Gaussian 16 at Wed Apr  9 18:09:19 2025.
