 Gaussian 16, Revision C.01,

 ----------------------------------------------------------------------
 #t hf aug-cc-pvdz symm=none int=(grid=ultrafine) guess=(read,tcheck) s
 table=(opt,rrhf)
 ----------------------------------------------------------------------
 -----
 title
 -----
 Symbolic Z-matrix:
 Charge =  0 Multiplicity = 1

 SCF Done:  E(RHF) =  -268.898132666     A.U. after   14 cycles
 Normal termination of Gaussian 16 at Wed Apr  9 03:05:28 2025.
 Gaussian 16:  ES64L-G16RevC.01  3-Jul-2019

 ----------------------------------------------------------------------
 #t hf aug-cc-pvdz iop(5/13=1,5/36=2,99/5=2) pseudo=read geom=check gue
 ss=(read,tcheck) scf=(maxcycle=1)
 ----------------------------------------------------------------------
 -----
 title
 -----
 Structure from the checkpoint file:  "Grambow2020_b97d3_006486_forward_mol2.chk"
 Charge =  0 Multiplicity = 1

                         Standard orientation:
 ---------------------------------------------------------------------
 Center     Atomic      Atomic             Coordinates (Angstroms)
 Number     Number       Type             X           Y           Z
 ---------------------------------------------------------------------
      1          8           0        2.147947    0.000445   -0.001907
      2          6           0        0.930541    0.000153    0.000737
      3          6           0        0.025699    1.238410    0.126642
      4          6           0       -1.383454    0.738294   -0.234893
      5          6           0       -1.384136   -0.738751    0.232199
      6          6           0        0.026859   -1.238598   -0.122944
      7          1           0        0.066917    1.565498    1.179332
      8          1           0        0.403310    2.067715   -0.484293
      9          1           0       -2.185353    1.328139    0.226781
     10          1           0       -1.525137    0.780229   -1.325519
     11          1           0       -2.183332   -1.329740   -0.232522
     12          1           0       -1.530271   -0.779450    1.322330
     13          1           0        0.404365   -2.064134    0.492982
     14          1           0        0.072869   -1.568869   -1.174285
 ---------------------------------------------------------------------

 SCF Done:  E(RHF) =  -269.180772932     A.U. after    2 cycles

 The electronic state is 1-A.
 Alpha  occ. eigenvalues --  -20.53338 -11.33924 -11.24861 -11.24852 -11.24827
 Alpha  occ. eigenvalues --  -11.24819  -1.45908  -1.13306  -0.99081  -0.94171
 Alpha  occ. eigenvalues --   -0.81300  -0.74082  -0.67593  -0.67038  -0.59966
 Alpha  occ. eigenvalues --   -0.59687  -0.56949  -0.56310  -0.51647  -0.50162
 Alpha  occ. eigenvalues --   -0.48831  -0.47520  -0.39427
 Alpha virt. eigenvalues --    0.03251   0.03522   0.03803   0.04483   0.06309
 Alpha virt. eigenvalues --    0.06451   0.06657   0.07219   0.09378   0.12012
 Alpha virt. eigenvalues --    0.14124   0.14129   0.14572   0.14878   0.15403

 Mulliken charges:
               1
     1  O   -1.377890
     2  C    1.175160
     3  C   -0.429786
     4  C   -0.164554
     5  C   -0.162864
     6  C   -0.430611
     7  H    0.251796
     8  H    0.171146
     9  H    0.152361
    10  H    0.119068
    11  H    0.151666
    12  H    0.120138
    13  H    0.172700
    14  H    0.251670
 Sum of Mulliken charges =  -0.00000

 Dipole moment (field-independent basis, Debye):
    X=             -3.5323    Y=             -0.0009    Z=              0.0061  Tot=              3.5323

 Test job not archived.
 1\1\GINC-SE029\SP\RHF\Aug-CC-pVDZ\C5H8O1\OHZDE\09-Apr-2025\0\\#t hf au
 g-cc-pvdz iop(5/13=1,5/36=2,99/5=2) pseudo=read geom=check guess=(read
 ,tcheck) scf=(maxcycle=1)\\title\\0,1\O,0,-0.5957034,2.51372734,0.0805
 5824\C,0,-0.31500532,1.32967836,0.0442007\C,0,-1.30708938,0.16027785,0
 .17125861\C,0,-0.50743984,-1.08546673,-0.24732904\C,0,0.94388285,-0.75
 673855,0.18329331\C,0,1.09407584,0.74016556,-0.13857345\H,0,-1.6019230
 1,0.09790823,1.23240196\H,0,-2.21967858,0.35150359,-0.40683451\H,0,-0.
 88210552,-2.0134814,0.20268923\H,0,-0.54957643,-1.20511495,-1.34058417

 Normal termination of Gaussian 16 at Wed Apr  9 03:05:33 2025.
