 Gaussian 16, Revision C.01,

 ----------------------------------------------------------------------
 #t hf aug-cc-pvdz symm=none int=(grid=ultrafine) guess=(read,tcheck) s
 table=(opt,rrhf)
 ----------------------------------------------------------------------
 -----
 title
 -----
 Symbolic Z-matrix:
 Charge =  0 Multiplicity = 1

 SCF Done:  E(RHF) =  -321.815149346     A.U. after   14 cycles
 Normal termination of Gaussian 16 at Wed Apr  9 15:42:48 2025.
 Gaussian 16:  ES64L-G16RevC.01  3-Jul-2019

 ----------------------------------------------------------------------
 #t hf aug-cc-pvdz iop(5/13=1,5/36=2,99/5=2) pseudo=read geom=check gue
 ss=(read,tcheck) scf=(maxcycle=1)
 ----------------------------------------------------------------------
 -----
 title
 -----
 Structure from the checkpoint file:  "Grambow2020_b97d3_006703_forward_mol1.chk"
 Charge =  0 Multiplicity = 1

                         Standard orientation:
 ---------------------------------------------------------------------
 Center     Atomic      Atomic             Coordinates (Angstroms)
 Number     Number       Type             X           Y           Z
 ---------------------------------------------------------------------
      1          6           0        2.218634   -0.690833   -0.001055
      2          7           0        1.290970    0.429182   -0.002269
      3          6           0       -0.017440    0.338096    0.002480
      4          8           0       -0.531480    1.536113    0.001150
      5          8           0       -0.717945   -0.795889    0.006665
      6          6           0       -2.152494   -0.623224   -0.004145
      7          1           0        2.771619   -0.755957    0.949927
      8          1           0        2.955244   -0.588016   -0.811786
      9          1           0        1.684071   -1.642371   -0.146954
     10          1           0        0.760707    1.701094   -0.001706
     11          1           0       -2.473606   -0.065540    0.883236
     12          1           0       -2.568120   -1.634374    0.004170
     13          1           0       -2.463509   -0.085136   -0.907204
 ---------------------------------------------------------------------

 SCF Done:  E(RHF) =  -322.141362876     A.U. after    2 cycles

 The electronic state is 1-A.
 Alpha  occ. eigenvalues --  -20.61035 -20.54450 -15.49177 -11.41057 -11.31190
 Alpha  occ. eigenvalues --  -11.26684  -1.55445  -1.46313  -1.20913  -0.98915
 Alpha  occ. eigenvalues --   -0.95685  -0.80226  -0.72246  -0.69630  -0.69315
 Alpha  occ. eigenvalues --   -0.62184  -0.61521  -0.60756  -0.56096  -0.54406
 Alpha  occ. eigenvalues --   -0.52831  -0.48666  -0.45206  -0.39825
 Alpha virt. eigenvalues --    0.03486   0.04265   0.05020   0.05636   0.06160
 Alpha virt. eigenvalues --    0.06550   0.07064   0.09636   0.12492   0.13112
 Alpha virt. eigenvalues --    0.13673   0.13970   0.15253   0.15650   0.16024

 Mulliken charges:
               1
     1  C   -0.379542
     2  N    0.591812
     3  C    0.863772
     4  O   -1.195458
     5  O   -1.304498
     6  C    0.113357
     7  H    0.132313
     8  H    0.104030
     9  H    0.100911
    10  H    0.575261
    11  H    0.187425
    12  H    0.022325
    13  H    0.188293
 Sum of Mulliken charges =  -0.00000

 Dipole moment (field-independent basis, Debye):
    X=             -1.0719    Y=             -1.8823    Z=             -0.0175  Tot=              2.1662

 Test job not archived.
 1\1\GINC-SE042\SP\RHF\Aug-CC-pVDZ\C3H7N1O2\OHZDE\09-Apr-2025\0\\#t hf
 aug-cc-pvdz iop(5/13=1,5/36=2,99/5=2) pseudo=read geom=check guess=(re
 ad,tcheck) scf=(maxcycle=1)\\title\\0,1\C,0,-2.14271154,-0.05032112,-0
 .6959606\N,0,-1.24646244,-0.06445705,0.44926094\C,0,0.06343637,-0.0254
 8232,0.39538219\O,0,0.54420288,-0.05210051,1.60684394\O,0,0.79454797,0
 .03109571,-0.71768637\C,0,2.22363096,0.04926694,-0.5049562\H,0,-2.7171
 4825,0.88870586,-0.74744945\H,0,-2.86150355,-0.88130775,-0.63895545\H,
 0,-1.57871725,-0.15341616,-1.63604146\H,0,-0.75156282,-0.09111327,1.73

 Normal termination of Gaussian 16 at Wed Apr  9 15:42:52 2025.
