 Gaussian 16, Revision C.01,

 ----------------------------------------------------------------------
 #t hf aug-cc-pvdz symm=none int=(grid=ultrafine) guess=(read,tcheck) s
 table=(opt,rrhf)
 ----------------------------------------------------------------------
 -----
 title
 -----
 Symbolic Z-matrix:
 Charge =  0 Multiplicity = 1

 SCF Done:  E(RHF) =  -310.247338058     A.U. after   12 cycles

 1\1\GINC-SE162\Stability\RHF\Aug-CC-pVDZ\C6H14O1\OHZDE\09-Apr-2025\0\\
 #t hf aug-cc-pvdz symm=none int=(grid=ultrafine) guess=(read,tcheck) s
 table=(opt,rrhf)\\title\\0,1\C,0,-3.48398155,-0.28320674,-0.74256241\C
 ,0,-2.26924926,-0.31705619,0.17526688\C,0,-0.96189889,-0.04017691,-0.5
 5763118\C,0,0.25631684,-0.07471894,0.3564993\C,0,1.54734923,0.19770207
 ,-0.38477325\O,0,2.62205865,0.13927575,0.52014495\C,0,3.8603325,0.3690
 191,-0.0935875\H,0,-4.40590114,-0.48743818,-0.19522583\H,0,-3.39609732
 ,-1.02811236,-1.53738652\H,0,-3.5894206,0.69499627,-1.21852206\H,0,-2.

 Normal termination of Gaussian 16 at Wed Apr  9 18:34:52 2025.
 Gaussian 16:  ES64L-G16RevC.01  3-Jul-2019

 ----------------------------------------------------------------------
 #t hf aug-cc-pvdz iop(5/13=1,5/36=2,99/5=2) pseudo=read geom=check gue
 ss=(read,tcheck) scf=(maxcycle=1)
 ----------------------------------------------------------------------
 -----
 title
 -----
 Structure from the checkpoint file:  "Grambow2020_wb97xd3_007724_forward_mol2.chk"
 Charge =  0 Multiplicity = 1

                         Standard orientation:
 ---------------------------------------------------------------------
 Center     Atomic      Atomic             Coordinates (Angstroms)
 Number     Number       Type             X           Y           Z
 ---------------------------------------------------------------------
      1          6           0        3.755526   -0.331992   -0.005908
      2          6           0        2.483776    0.505730   -0.003265
      3          6           0        1.215053   -0.338807    0.004938
      4          6           0       -0.059816    0.495210    0.005897
      5          6           0       -1.311303   -0.355805    0.009946
      6          8           0       -2.440803    0.481712    0.000671
      7          6           0       -3.645540   -0.233328   -0.009297
      8          1           0        4.648745    0.295143   -0.015142
      9          1           0        3.795393   -0.981994   -0.883553
     10          1           0        3.806764   -0.970891    0.879370
     11          1           0        2.482012    1.167277    0.869310
     12          1           0        2.473690    1.161386   -0.880267
     13          1           0        1.218247   -1.001510   -0.868543
     14          1           0        1.225438   -0.995175    0.883181
     15          1           0       -0.082903    1.145844   -0.873515
     16          1           0       -0.078167    1.151412    0.881190
     17          1           0       -1.327081   -1.016155   -0.871663
     18          1           0       -1.330576   -1.005262    0.899552
     19          1           0       -3.722853   -0.878866   -0.894840
     20          1           0       -4.459167    0.490789   -0.030077
     21          1           0       -3.749292   -0.861736    0.885762
 ---------------------------------------------------------------------

 SCF Done:  E(RHF) =  -310.588175015     A.U. after    2 cycles

 The electronic state is 1-A.
 Alpha  occ. eigenvalues --  -20.53875 -11.27700 -11.27621 -11.22467 -11.22437
 Alpha  occ. eigenvalues --  -11.22093 -11.22046  -1.46276  -1.08818  -1.02104
 Alpha  occ. eigenvalues --   -0.94433  -0.88641  -0.82255  -0.79457  -0.68113
 Alpha  occ. eigenvalues --   -0.65415  -0.64135  -0.63483  -0.58985  -0.58687
 Alpha  occ. eigenvalues --   -0.55514  -0.54007  -0.51780  -0.49023  -0.47960
 Alpha  occ. eigenvalues --   -0.47751  -0.46767  -0.46222  -0.41200
 Alpha virt. eigenvalues --    0.03525   0.03774   0.03861   0.04211   0.05304
 Alpha virt. eigenvalues --    0.05734   0.05799   0.06837   0.07929   0.08095
 Alpha virt. eigenvalues --    0.08536   0.10258   0.10874   0.11070   0.12073

 Mulliken charges:
               1
     1  C   -0.386461
     2  C   -0.203521
     3  C   -0.182846
     4  C   -0.286239
     5  C    0.615160
     6  O   -1.267881
     7  C    0.027406
     8  H    0.114736
     9  H    0.158324
    10  H    0.157671
    11  H    0.109958
    12  H    0.109500
    13  H    0.110387
    14  H    0.111393
    15  H    0.120609
    16  H    0.120378
    17  H    0.122688
    18  H    0.122758
    19  H    0.185853
    20  H   -0.044285
    21  H    0.184414
 Sum of Mulliken charges =   0.00000

 Dipole moment (field-independent basis, Debye):
    X=              0.0720    Y=             -1.1392    Z=             -0.0040  Tot=              1.1415

 Test job not archived.
 1\1\GINC-SE162\SP\RHF\Aug-CC-pVDZ\C6H14O1\OHZDE\09-Apr-2025\0\\#t hf a
 ug-cc-pvdz iop(5/13=1,5/36=2,99/5=2) pseudo=read geom=check guess=(rea
 d,tcheck) scf=(maxcycle=1)\\title\\0,1\C,0,-3.48398155,-0.28320674,-0.
 74256241\C,0,-2.26924926,-0.31705619,0.17526688\C,0,-0.96189889,-0.040
 17691,-0.55763118\C,0,0.25631684,-0.07471894,0.3564993\C,0,1.54734923,
 0.19770207,-0.38477325\O,0,2.62205865,0.13927575,0.52014495\C,0,3.8603
 325,0.3690191,-0.0935875\H,0,-4.40590114,-0.48743818,-0.19522583\H,0,-
 3.39609732,-1.02811236,-1.53738652\H,0,-3.5894206,0.69499627,-1.218522

 Normal termination of Gaussian 16 at Wed Apr  9 18:35:00 2025.
