 Gaussian 16, Revision C.01,

 ----------------------------------------------------------------------
 #t hf aug-cc-pvdz symm=none int=(grid=ultrafine) guess=(read,tcheck) s
 table=(opt,rrhf)
 ----------------------------------------------------------------------
 -----
 title
 -----
 Symbolic Z-matrix:
 Charge =  0 Multiplicity = 1

 SCF Done:  E(RHF) =  -206.635443962     A.U. after   15 cycles
 Normal termination of Gaussian 16 at Wed Apr  9 03:09:37 2025.
 Gaussian 16:  ES64L-G16RevC.01  3-Jul-2019

 ----------------------------------------------------------------------
 #t hf aug-cc-pvdz iop(5/13=1,5/36=2,99/5=2) pseudo=read geom=check gue
 ss=(read,tcheck) scf=(maxcycle=1)
 ----------------------------------------------------------------------
 -----
 title
 -----
 Structure from the checkpoint file:  "Grambow2020_b97d3_006673_reverse_mol2.chk"
 Charge =  0 Multiplicity = 1

                         Standard orientation:
 ---------------------------------------------------------------------
 Center     Atomic      Atomic             Coordinates (Angstroms)
 Number     Number       Type             X           Y           Z
 ---------------------------------------------------------------------
      1          8           0       -1.408167   -0.005490   -0.324508
      2          6           0       -0.329951   -0.104833    0.462124
      3          6           0        0.864804   -0.790812   -0.041307
      4          7           0        1.361572    0.433616   -0.221360
      5          1           0       -2.014762    0.687707    0.006269
      6          1           0       -0.382844    0.365483    1.450516
      7          1           0        0.922818    1.329287    0.163899
 ---------------------------------------------------------------------

 SCF Done:  E(RHF) =  -206.837057649     A.U. after    2 cycles

 The electronic state is 1-A.
 Alpha  occ. eigenvalues --  -20.65380 -15.53229 -11.41225 -11.27234  -1.56648
 Alpha  occ. eigenvalues --   -1.24219  -0.95442  -0.83534  -0.79900  -0.69503
 Alpha  occ. eigenvalues --   -0.64344  -0.59023  -0.49244  -0.47499  -0.35517
 Alpha virt. eigenvalues --    0.01256   0.03861   0.04653   0.07131   0.08602
 Alpha virt. eigenvalues --    0.09784   0.11582   0.12098   0.12643   0.13879
 Alpha virt. eigenvalues --    0.15979   0.16658   0.19527   0.20849   0.21362

 Mulliken charges:
               1
     1  O   -1.094977
     2  C    1.020341
     3  C   -0.677033
     4  N    0.234964
     5  H    0.391356
     6  H    0.076126
     7  H    0.049223
 Sum of Mulliken charges =  -0.00000

 Dipole moment (field-independent basis, Debye):
    X=             -5.2556    Y=              3.2143    Z=              3.2805  Tot=              6.9796

 Test job not archived.
 1\1\GINC-SE273\SP\RHF\Aug-CC-pVDZ\C2H3N1O1\OHZDE\09-Apr-2025\0\\#t hf
 aug-cc-pvdz iop(5/13=1,5/36=2,99/5=2) pseudo=read geom=check guess=(re
 ad,tcheck) scf=(maxcycle=1)\\title\\0,1\O,0,-0.92801061,0.96166401,-0.
 38647213\C,0,-0.09885462,-0.08676276,-0.4536293\C,0,1.32959208,0.14244
 365,-0.69540433\N,0,1.47785799,-0.08371698,0.6104633\H,0,-1.77213373,0
 .70815778,0.0390675\H,0,-0.5304371,-1.08104872,-0.29224191\H,0,0.71644
 699,-0.47969998,1.24811985\\Version=ES64L-G16RevC.01\State=1-A\HF=-206
 .8370576\RMSD=1.260e-02\Dipole=-2.5990631,-0.8017601,0.3774591\Quadrup

 Normal termination of Gaussian 16 at Wed Apr  9 03:09:39 2025.
