 Gaussian 16, Revision C.01,

 ----------------------------------------------------------------------
 #t hf aug-cc-pvdz symm=none int=(grid=ultrafine) guess=(read,tcheck) s
 table=(opt,rrhf)
 ----------------------------------------------------------------------
 -----
 title
 -----
 Symbolic Z-matrix:
 Charge =  0 Multiplicity = 1

 SCF Done:  E(RHF) =  -323.819068986     A.U. after   16 cycles
 Normal termination of Gaussian 16 at Wed Apr  9 19:14:09 2025.
 Gaussian 16:  ES64L-G16RevC.01  3-Jul-2019

 ----------------------------------------------------------------------
 #t hf aug-cc-pvdz iop(5/13=1,5/36=2,99/5=2) pseudo=read geom=check gue
 ss=(read,tcheck) scf=(maxcycle=1)
 ----------------------------------------------------------------------
 -----
 title
 -----
 Structure from the checkpoint file:  "Grambow2020_wb97xd3_008936_reverse_mol2.chk"
 Charge =  0 Multiplicity = 1

                         Standard orientation:
 ---------------------------------------------------------------------
 Center     Atomic      Atomic             Coordinates (Angstroms)
 Number     Number       Type             X           Y           Z
 ---------------------------------------------------------------------
      1          6           0       -2.449776    0.408052    0.426073
      2          6           0       -1.453573    0.168476   -0.627703
      3          6           0        1.087136    1.599774   -0.124141
      4          7           0        0.953331    0.169947    0.005643
      5          6           0        2.130103   -0.617057    0.290062
      6          6           0       -0.230088   -0.424869   -0.198805
      7          8           0       -0.468580   -1.638716   -0.161636
      8          1           0       -2.312147   -0.158561    1.352462
      9          1           0       -3.477022    0.334106    0.069996
     10          1           0       -2.287780    1.475543    0.657938
     11          1           0        0.161744    2.017737   -0.523635
     12          1           0        1.892523    1.844415   -0.821623
     13          1           0        1.303386    2.072566    0.838338
     14          1           0        1.844687   -1.666171    0.330506
     15          1           0        2.881493   -0.480161   -0.492697
     16          1           0        2.565630   -0.325635    1.249379
 ---------------------------------------------------------------------

 SCF Done:  E(RHF) =  -324.154253827     A.U. after    2 cycles

 The electronic state is 1-A.
 Alpha  occ. eigenvalues --  -20.51052 -15.53987 -11.35291 -11.28965 -11.28435
 Alpha  occ. eigenvalues --  -11.27438 -11.25269  -1.45845  -1.27668  -1.06518
 Alpha  occ. eigenvalues --   -1.00281  -0.97870  -0.87324  -0.76582  -0.69099
 Alpha  occ. eigenvalues --   -0.68581  -0.65561  -0.60903  -0.59015  -0.58617
 Alpha  occ. eigenvalues --   -0.58458  -0.57861  -0.56029  -0.52855  -0.42989
 Alpha  occ. eigenvalues --   -0.41135  -0.35958
 Alpha virt. eigenvalues --    0.02888   0.03842   0.04232   0.04587   0.05620
 Alpha virt. eigenvalues --    0.05915   0.06112   0.07331   0.08161   0.08573
 Alpha virt. eigenvalues --    0.09988   0.12141   0.12891   0.13243   0.13876

 Mulliken charges:
               1
     1  C   -0.256837
     2  C   -0.398040
     3  C   -0.420639
     4  N    1.016030
     5  C   -0.356380
     6  C    0.369098
     7  O   -1.239871
     8  H    0.153870
     9  H    0.140368
    10  H    0.276861
    11  H    0.054985
    12  H    0.142706
    13  H    0.159737
    14  H   -0.014402
    15  H    0.182612
    16  H    0.189903
 Sum of Mulliken charges =  -0.00000

 Dipole moment (field-independent basis, Debye):
    X=              1.8879    Y=              3.5524    Z=              2.0242  Tot=              4.5035

 Test job not archived.
 1\1\GINC-SE029\SP\RHF\Aug-CC-pVDZ\C5H9N1O1\OHZDE\09-Apr-2025\0\\#t hf
 aug-cc-pvdz iop(5/13=1,5/36=2,99/5=2) pseudo=read geom=check guess=(re
 ad,tcheck) scf=(maxcycle=1)\\title\\0,1\C,0,2.47324064,-0.10429788,0.7
 6706362\C,0,1.45933324,0.91005004,0.44557728\C,0,-0.47338468,-0.032181
 27,-1.58769354\N,0,-0.81709329,0.13633007,-0.19750546\C,0,-2.18853447,
 -0.05927576,0.20986452\C,0,0.10656044,0.53136374,0.68956628\O,0,-0.066
 85846,0.75380079,1.89461124\H,0,2.15220267,-0.90507812,1.44076519\H,0,
 3.42119593,0.32447363,1.09114598\H,0,2.66940852,-0.55547483,-0.2216209

 Normal termination of Gaussian 16 at Wed Apr  9 19:14:15 2025.
