 Gaussian 16, Revision C.01,

 ----------------------------------------------------------------------
 #t hf aug-cc-pvdz symm=none int=(grid=ultrafine) guess=(read,tcheck) s
 table=(opt,rrhf)
 ----------------------------------------------------------------------
 -----
 title
 -----
 Symbolic Z-matrix:
 Charge =  0 Multiplicity = 1

 SCF Done:  E(RHF) =  -322.568469454     A.U. after   17 cycles
 Normal termination of Gaussian 16 at Wed Apr  9 18:02:09 2025.
 Gaussian 16:  ES64L-G16RevC.01  3-Jul-2019

 ----------------------------------------------------------------------
 #t hf aug-cc-pvdz iop(5/13=1,5/36=2,99/5=2) pseudo=read geom=check gue
 ss=(read,tcheck) scf=(maxcycle=1)
 ----------------------------------------------------------------------
 -----
 title
 -----
 Structure from the checkpoint file:  "Grambow2020_wb97xd3_006942_forward_mol1.chk"
 Charge =  0 Multiplicity = 1

                         Standard orientation:
 ---------------------------------------------------------------------
 Center     Atomic      Atomic             Coordinates (Angstroms)
 Number     Number       Type             X           Y           Z
 ---------------------------------------------------------------------
      1          8           0        1.973473   -0.403973   -0.948512
      2          6           0        1.606740   -0.647257    0.175426
      3          7           0        0.784048    0.148407    0.906993
      4          6           0        0.147128    1.297087    0.323889
      5          6           0       -1.082253    0.958439   -0.485360
      6          6           0       -1.765790   -0.222655   -0.332185
      7          6           0       -2.030970   -1.364960    0.232993
      8          1           0        1.930748   -1.544278    0.731014
      9          1           0        0.427277   -0.216777    1.772919
     10          1           0        0.859659    1.779199   -0.349804
     11          1           0       -0.091577    2.014968    1.112219
     12          1           0       -2.588782    0.603754   -0.168277
     13          1           0       -1.453106    1.713790   -1.168819
     14          1           0       -1.609473   -2.281632   -0.178688
 ---------------------------------------------------------------------

 SCF Done:  E(RHF) =  -322.897307802     A.U. after    2 cycles

 The electronic state is 1-A.
 Alpha  occ. eigenvalues --  -20.52625 -15.54471 -11.36858 -11.31612 -11.30472
 Alpha  occ. eigenvalues --  -11.26151 -11.24009  -1.47628  -1.26787  -1.12752
 Alpha  occ. eigenvalues --   -1.01980  -0.93424  -0.85344  -0.79003  -0.73590
 Alpha  occ. eigenvalues --   -0.70279  -0.66585  -0.63176  -0.61755  -0.59755
 Alpha  occ. eigenvalues --   -0.57615  -0.53069  -0.44566  -0.43789  -0.41092
 Alpha  occ. eigenvalues --   -0.31985
 Alpha virt. eigenvalues --    0.02547   0.03423   0.04242   0.04644   0.05562
 Alpha virt. eigenvalues --    0.06028   0.06450   0.06919   0.08867   0.09966
 Alpha virt. eigenvalues --    0.11615   0.12031   0.12453   0.12801   0.14268

 Mulliken charges:
               1
     1  O   -1.078366
     2  C    0.630012
     3  N    0.647669
     4  C   -0.881759
     5  C    0.151807
     6  C    0.144773
     7  C   -0.430832
     8  H    0.089326
     9  H    0.224171
    10  H    0.205821
    11  H    0.125824
    12  H    0.348746
    13  H   -0.144643
    14  H   -0.032550
 Sum of Mulliken charges =   0.00000

 Dipole moment (field-independent basis, Debye):
    X=             -0.0117    Y=              2.5455    Z=              1.8677  Tot=              3.1572

 Test job not archived.
 1\1\GINC-SE135\SP\RHF\Aug-CC-pVDZ\C5H7N1O1\OHZDE\09-Apr-2025\0\\#t hf
 aug-cc-pvdz iop(5/13=1,5/36=2,99/5=2) pseudo=read geom=check guess=(re
 ad,tcheck) scf=(maxcycle=1)\\title\\0,1\O,0,-2.08067575,0.38770584,-1.
 04793145\C,0,-1.69587552,0.96512807,-0.06029354\N,0,-0.99538222,0.3844
 6355,0.94828478\C,0,-0.51325221,-0.96491482,0.83932734\C,0,0.75867388,
 -1.08714757,0.03421343\C,0,1.59359664,-0.0213314,-0.19515046\C,0,2.004
 60818,1.20521759,-0.04936355\H,0,-1.90160985,2.03300325,0.12844371\H,0
 ,-0.60141213,0.98510717,1.65148393\H,0,-1.27742082,-1.56255131,0.33646

 Normal termination of Gaussian 16 at Wed Apr  9 18:02:13 2025.
