 Gaussian 16, Revision C.01,

 ----------------------------------------------------------------------
 #t hf aug-cc-pvdz symm=none int=(grid=ultrafine) guess=(read,tcheck) s
 table=(opt,rrhf)
 ----------------------------------------------------------------------
 -----
 title
 -----
 Symbolic Z-matrix:
 Charge =  0 Multiplicity = 1

 SCF Done:  E(RHF) =  -260.201702443     A.U. after   16 cycles
 Normal termination of Gaussian 16 at Wed Apr  9 03:05:10 2025.
 Gaussian 16:  ES64L-G16RevC.01  3-Jul-2019

 ----------------------------------------------------------------------
 #t hf aug-cc-pvdz iop(5/13=1,5/36=2,99/5=2) pseudo=read geom=check gue
 ss=(read,tcheck) scf=(maxcycle=1)
 ----------------------------------------------------------------------
 -----
 title
 -----
 Structure from the checkpoint file:  "Grambow2020_b97d3_006468_forward_mol1.chk"
 Charge =  0 Multiplicity = 1

                         Standard orientation:
 ---------------------------------------------------------------------
 Center     Atomic      Atomic             Coordinates (Angstroms)
 Number     Number       Type             X           Y           Z
 ---------------------------------------------------------------------
      1          6           0        0.089945    0.488128    0.001265
      2          6           0       -0.703262    1.556361   -0.000984
      3          6           0       -1.184300   -0.232594    0.000251
      4          7           0       -2.111561   -0.966621   -0.000378
      5          6           0        1.382495   -0.075598    0.001117
      6          7           0        2.467379   -0.521634   -0.001036
 ---------------------------------------------------------------------

 SCF Done:  E(RHF) =  -260.439971526     A.U. after    2 cycles

 The electronic state is 1-A.
 Alpha  occ. eigenvalues --  -15.59703 -15.58826 -11.41335 -11.38185 -11.36589
 Alpha  occ. eigenvalues --  -11.35723  -1.30070  -1.28050  -1.20821  -0.95646
 Alpha  occ. eigenvalues --   -0.80504  -0.67420  -0.66612  -0.63809  -0.58083
 Alpha  occ. eigenvalues --   -0.57026  -0.55927  -0.52522  -0.46861
 Alpha virt. eigenvalues --   -0.03407   0.01445   0.04570   0.06291   0.06608
 Alpha virt. eigenvalues --    0.08394   0.08914   0.10332   0.10760   0.11780
 Alpha virt. eigenvalues --    0.12041   0.13176   0.13809   0.14769   0.16265

 Mulliken charges:
               1
     1  C    1.534784
     2  C   -0.293294
     3  C   -1.332042
     4  N    0.770224
     5  C   -1.358097
     6  N    0.678426
 Sum of Mulliken charges =  -0.00000

 Dipole moment (field-independent basis, Debye):
    X=              0.1224    Y=              2.3288    Z=              0.0061  Tot=              2.3320

 Test job not archived.
 1\1\GINC-SE143\SP\RHF\Aug-CC-pVDZ\C4N2\OHZDE\09-Apr-2025\0\\#t hf aug-
 cc-pvdz iop(5/13=1,5/36=2,99/5=2) pseudo=read geom=check guess=(read,t
 check) scf=(maxcycle=1)\\title\\0,1\C,0,-0.14939085,0.14811849,0.40651
 789\C,0,0.5134214,0.43779942,1.52324067\C,0,1.19238267,-0.1515281,-0.0
 9647061\N,0,2.1925946,-0.43547628,-0.65999269\C,0,-1.3634997,0.0431550
 5,-0.30298557\N,0,-2.38582113,-0.03832459,-0.87232369\\Version=ES64L-G
 16RevC.01\State=1-A\HF=-260.4399715\RMSD=2.537e-02\Dipole=-0.1514398,0
 .2935552,0.8559447\Quadrupole=-6.7541548,4.2126729,2.5414819,0.5035264

 Normal termination of Gaussian 16 at Wed Apr  9 03:05:13 2025.
