 Gaussian 16, Revision C.01,

 ----------------------------------------------------------------------
 #t hf aug-cc-pvdz symm=none int=(grid=ultrafine) guess=(read,tcheck) s
 table=(opt,rrhf)
 ----------------------------------------------------------------------
 -----
 title
 -----
 Symbolic Z-matrix:
 Charge =  0 Multiplicity = 1

 SCF Done:  E(RHF) =  -320.256229935     A.U. after   18 cycles
 Normal termination of Gaussian 16 at Wed Apr  9 18:30:07 2025.
 Gaussian 16:  ES64L-G16RevC.01  3-Jul-2019

 ----------------------------------------------------------------------
 #t hf aug-cc-pvdz iop(5/13=1,5/36=2,99/5=2) pseudo=read geom=check gue
 ss=(read,tcheck) scf=(maxcycle=1)
 ----------------------------------------------------------------------
 -----
 title
 -----
 Structure from the checkpoint file:  "Grambow2020_wb97xd3_007650_forward_mol1.chk"
 Charge =  0 Multiplicity = 1

                         Standard orientation:
 ---------------------------------------------------------------------
 Center     Atomic      Atomic             Coordinates (Angstroms)
 Number     Number       Type             X           Y           Z
 ---------------------------------------------------------------------
      1          7           0       -2.311107    0.123064   -0.670700
      2          6           0       -1.366921    0.025318   -0.010726
      3          6           0       -0.041120    0.785461    0.889752
      4          6           0       -0.136304   -0.632397    0.692172
      5          8           0        0.867724   -1.123868   -0.147236
      6          6           0        1.527433   -0.028499   -0.545521
      7          6           0        1.021213    1.116431   -0.031282
      8          1           0       -0.504241   -1.370956    1.394024
      9          1           0        2.343110   -0.208843   -1.231390
     10          1           0        1.371287    2.111413   -0.256212
 ---------------------------------------------------------------------

 SCF Done:  E(RHF) =  -320.569376209     A.U. after    2 cycles

 The electronic state is 1-A.
 Alpha  occ. eigenvalues --  -20.64796 -15.53653 -11.37491 -11.36323 -11.31471
 Alpha  occ. eigenvalues --  -11.28476 -11.26517  -1.59233  -1.25700  -1.16153
 Alpha  occ. eigenvalues --   -1.07824  -0.87519  -0.83940  -0.76785  -0.74133
 Alpha  occ. eigenvalues --   -0.66431  -0.63697  -0.60801  -0.60570  -0.55560
 Alpha  occ. eigenvalues --   -0.52965  -0.51897  -0.41235  -0.38658
 Alpha virt. eigenvalues --    0.02439   0.02725   0.03716   0.04189   0.06770
 Alpha virt. eigenvalues --    0.08706   0.08912   0.10191   0.10498   0.12221
 Alpha virt. eigenvalues --    0.12968   0.13604   0.14236   0.14343   0.14795

 Mulliken charges:
               1
     1  N    1.094923
     2  C   -1.682459
     3  C   -0.515030
     4  C    1.194142
     5  O   -1.334970
     6  C    0.740060
     7  C    0.573304
     8  H    0.075767
     9  H   -0.066455
    10  H   -0.079283
 Sum of Mulliken charges =  -0.00000

 Dipole moment (field-independent basis, Debye):
    X=              4.9865    Y=             -1.5324    Z=              0.3557  Tot=              5.2287

 Test job not archived.
 1\1\GINC-SE219\SP\RHF\Aug-CC-pVDZ\C5H3N1O1\OHZDE\09-Apr-2025\0\\#t hf
 aug-cc-pvdz iop(5/13=1,5/36=2,99/5=2) pseudo=read geom=check guess=(re
 ad,tcheck) scf=(maxcycle=1)\\title\\0,1\N,0,2.34417995,0.56225472,-1.1
 6043994\C,0,1.5679278,0.37488918,-0.32441741\C,0,0.61641656,-0.7543907
 8,0.65832299\C,0,0.43580459,0.66791468,0.71168468\O,0,-0.79582417,1.07
 054666,0.1870891\C,0,-1.34277401,-0.0624466,-0.27209927\C,0,-0.5572012
 2,-1.14859057,-0.0857371\H,0,0.82734953,1.35317203,1.45367997\H,0,-2.3
 0901997,0.05297537,-0.74254141\H,0,-0.78392706,-2.14893269,-0.41897362

 Normal termination of Gaussian 16 at Wed Apr  9 18:30:10 2025.
