 Gaussian 16, Revision C.01,

 ----------------------------------------------------------------------
 #t hf aug-cc-pvdz symm=none int=(grid=ultrafine) guess=(read,tcheck) s
 table=(opt,rrhf)
 ----------------------------------------------------------------------
 -----
 title
 -----
 Symbolic Z-matrix:
 Charge =  0 Multiplicity = 1

 SCF Done:  E(RHF) =  -359.655792528     A.U. after   16 cycles
 Normal termination of Gaussian 16 at Wed Apr  9 18:18:19 2025.
 Gaussian 16:  ES64L-G16RevC.01  3-Jul-2019

 ----------------------------------------------------------------------
 #t hf aug-cc-pvdz iop(5/13=1,5/36=2,99/5=2) pseudo=read geom=check gue
 ss=(read,tcheck) scf=(maxcycle=1)
 ----------------------------------------------------------------------
 -----
 title
 -----
 Structure from the checkpoint file:  "Grambow2020_wb97xd3_007288_forward_mol1.chk"
 Charge =  0 Multiplicity = 1

                         Standard orientation:
 ---------------------------------------------------------------------
 Center     Atomic      Atomic             Coordinates (Angstroms)
 Number     Number       Type             X           Y           Z
 ---------------------------------------------------------------------
      1          8           0       -1.231391    1.307712    0.469611
      2          6           0       -0.284259    0.888059   -0.408167
      3          6           0        1.203518    1.016167    0.014376
      4          7           0        1.739340   -0.339313   -0.176932
      5          6           0        0.712297   -1.270059    0.262301
      6          6           0       -0.507331   -0.551830   -0.159522
      7          8           0       -1.679513   -1.057110   -0.134305
      8          1           0       -2.235161   -0.225489   -0.123167
      9          1           0       -0.412026    1.192236   -1.466284
     10          1           0        1.758705    1.729214   -0.593675
     11          1           0        1.208486    1.347754    1.060213
     12          1           0        2.624242   -0.485231    0.284808
     13          1           0        0.643624   -1.428937    1.351957
     14          1           0        0.778632   -2.253196   -0.211703
 ---------------------------------------------------------------------

 SCF Done:  E(RHF) =  -360.023098230     A.U. after    2 cycles

 The electronic state is 1-A.
 Alpha  occ. eigenvalues --  -20.64970 -20.44205 -15.51496 -11.40898 -11.30953
 Alpha  occ. eigenvalues --  -11.28323 -11.26175  -1.59265  -1.34667  -1.25467
 Alpha  occ. eigenvalues --   -1.04440  -1.00038  -0.86311  -0.84170  -0.75597
 Alpha  occ. eigenvalues --   -0.73513  -0.68918  -0.65816  -0.64026  -0.62170
 Alpha  occ. eigenvalues --   -0.58447  -0.55340  -0.54099  -0.50582  -0.43385
 Alpha  occ. eigenvalues --   -0.35834  -0.34885
 Alpha virt. eigenvalues --    0.02729   0.03948   0.04335   0.04870   0.05815
 Alpha virt. eigenvalues --    0.06172   0.06601   0.06917   0.09308   0.10919
 Alpha virt. eigenvalues --    0.12501   0.13521   0.13789   0.14347   0.14940

 Mulliken charges:
               1
     1  O   -1.557016
     2  C    0.844947
     3  C   -0.310286
     4  N    0.269712
     5  C   -0.358118
     6  C    1.205069
     7  O   -1.496114
     8  H    0.332319
     9  H    0.223203
    10  H    0.063589
    11  H    0.132717
    12  H    0.196530
    13  H    0.274730
    14  H    0.178718
 Sum of Mulliken charges =  -0.00000

 Dipole moment (field-independent basis, Debye):
    X=              2.5396    Y=             -3.7171    Z=             -0.7097  Tot=              4.5574

 Test job not archived.
 1\1\GINC-SE108\SP\RHF\Aug-CC-pVDZ\C4H7N1O2\OHZDE\09-Apr-2025\0\\#t hf
 aug-cc-pvdz iop(5/13=1,5/36=2,99/5=2) pseudo=read geom=check guess=(re
 ad,tcheck) scf=(maxcycle=1)\\title\\0,1\O,0,2.07018136,-0.11159659,-0.
 36688808\C,0,0.9704928,0.24226672,0.34664368\C,0,0.06042906,1.35919229
 ,-0.23015451\N,0,-1.27664924,0.74840942,-0.24414686\C,0,-1.10904321,-0
 .63606665,-0.65544491\C,0,0.18667256,-0.95529332,-0.02259797\O,0,0.683
 69487,-2.12980565,0.03610011\H,0,1.64964253,-1.91106914,0.17596399\H,0
 ,1.10450716,0.37959544,1.43826694\H,0,0.05528248,2.26140756,0.38007168

 Normal termination of Gaussian 16 at Wed Apr  9 18:18:23 2025.
