 Gaussian 16, Revision C.01,

 ----------------------------------------------------------------------
 #t hf aug-cc-pvdz symm=none int=(grid=ultrafine) guess=(read,tcheck) s
 table=(opt,rrhf)
 ----------------------------------------------------------------------
 -----
 title
 -----
 Symbolic Z-matrix:
 Charge =  0 Multiplicity = 1

 SCF Done:  E(RHF) =  -380.758572973     A.U. after   13 cycles
 Normal termination of Gaussian 16 at Wed Apr  9 18:23:43 2025.
 Gaussian 16:  ES64L-G16RevC.01  3-Jul-2019

 ----------------------------------------------------------------------
 #t hf aug-cc-pvdz iop(5/13=1,5/36=2,99/5=2) pseudo=read geom=check gue
 ss=(read,tcheck) scf=(maxcycle=1)
 ----------------------------------------------------------------------
 -----
 title
 -----
 Structure from the checkpoint file:  "Grambow2020_wb97xd3_007514_reverse_mol2.chk"
 Charge =  0 Multiplicity = 1

                         Standard orientation:
 ---------------------------------------------------------------------
 Center     Atomic      Atomic             Coordinates (Angstroms)
 Number     Number       Type             X           Y           Z
 ---------------------------------------------------------------------
      1          8           0        2.460595   -0.241454   -0.740508
      2          6           0        1.952171    0.084454    0.541730
      3          6           0        0.586853   -0.557534    0.680110
      4          6           0       -0.426726    0.056461   -0.285211
      5          8           0       -0.642167    1.409285    0.000180
      6          6           0       -1.722734   -0.707214   -0.242156
      7          8           0       -2.771311   -0.178076    0.016871
      8          1           0        3.190945    0.342286   -0.945790
      9          1           0        1.856102    1.168222    0.664960
     10          1           0        2.614929   -0.295495    1.328558
     11          1           0        0.226485   -0.425266    1.703942
     12          1           0        0.681217   -1.630908    0.488214
     13          1           0       -0.028878   -0.055249   -1.305661
     14          1           0       -1.663219   -1.790099   -0.461359
     15          1           0       -1.591903    1.511463    0.147959
 ---------------------------------------------------------------------

 SCF Done:  E(RHF) =  -381.147232113     A.U. after    2 cycles

 The electronic state is 1-A.
 Alpha  occ. eigenvalues --  -20.56549 -20.55569 -20.55038 -11.35305 -11.30150
 Alpha  occ. eigenvalues --  -11.29155 -11.24794  -1.50647  -1.46067  -1.45444
 Alpha  occ. eigenvalues --   -1.08006  -0.97303  -0.84617  -0.80439  -0.74002
 Alpha  occ. eigenvalues --   -0.72585  -0.68404  -0.65773  -0.64244  -0.59421
 Alpha  occ. eigenvalues --   -0.56928  -0.54726  -0.54406  -0.53145  -0.50162
 Alpha  occ. eigenvalues --   -0.46087  -0.43723  -0.43294
 Alpha virt. eigenvalues --    0.03411   0.03770   0.03935   0.04967   0.06445
 Alpha virt. eigenvalues --    0.06547   0.06958   0.07860   0.10304   0.11936
 Alpha virt. eigenvalues --    0.12782   0.13159   0.14193   0.14515   0.14739

 Mulliken charges:
               1
     1  O   -1.147164
     2  C    0.675203
     3  C   -0.432045
     4  C    0.790592
     5  O   -1.370941
     6  C    1.145458
     7  O   -1.166105
     8  H    0.301400
     9  H    0.148991
    10  H    0.107808
    11  H    0.155351
    12  H    0.155482
    13  H    0.249783
    14  H    0.093046
    15  H    0.293141
 Sum of Mulliken charges =  -0.00000

 Dipole moment (field-independent basis, Debye):
    X=              2.2462    Y=             -0.9635    Z=              0.3847  Tot=              2.4742

 Test job not archived.
 1\1\GINC-SE041\SP\RHF\Aug-CC-pVDZ\C4H8O3\OHZDE\09-Apr-2025\0\\#t hf au
 g-cc-pvdz iop(5/13=1,5/36=2,99/5=2) pseudo=read geom=check guess=(read
 ,tcheck) scf=(maxcycle=1)\\title\\0,1\O,0,-1.61646107,1.64618647,0.116
 01531\C,0,-1.5241598,0.33101389,-0.40422062\C,0,-0.60663593,-0.4660430
 9,0.50034451\C,0,0.82997997,0.05305571,0.44697189\O,0,1.37593191,-0.09
 933515,-0.83236738\C,0,1.68003518,-0.64681,1.4727815\O,0,2.67838769,-1
 .24861705,1.17661344\H,0,-1.97818483,2.224336,-0.55570011\H,0,-1.11541
 47,0.33567336,-1.4200329\H,0,-2.51208521,-0.14435582,-0.43133105\H,0,-

 Normal termination of Gaussian 16 at Wed Apr  9 18:23:48 2025.
