 Gaussian 16, Revision C.01,

 ----------------------------------------------------------------------
 #t hf aug-cc-pvdz symm=none int=(grid=ultrafine) guess=(read,tcheck) s
 table=(opt,rrhf)
 ----------------------------------------------------------------------
 -----
 title
 -----
 Symbolic Z-matrix:
 Charge =  0 Multiplicity = 1

 SCF Done:  E(RHF) =  -286.693034474     A.U. after   15 cycles
 Normal termination of Gaussian 16 at Wed Apr  9 19:08:05 2025.
 Gaussian 16:  ES64L-G16RevC.01  3-Jul-2019

 ----------------------------------------------------------------------
 #t hf aug-cc-pvdz iop(5/13=1,5/36=2,99/5=2) pseudo=read geom=check gue
 ss=(read,tcheck) scf=(maxcycle=1)
 ----------------------------------------------------------------------
 -----
 title
 -----
 Structure from the checkpoint file:  "Grambow2020_wb97xd3_008601_forward_mol1.chk"
 Charge =  0 Multiplicity = 1

                         Standard orientation:
 ---------------------------------------------------------------------
 Center     Atomic      Atomic             Coordinates (Angstroms)
 Number     Number       Type             X           Y           Z
 ---------------------------------------------------------------------
      1          6           0        1.783784    0.164222   -0.219148
      2          6           0        0.843518   -0.274943    0.844408
      3          6           0       -0.349970    0.586044    1.142339
      4          6           0       -1.529896   -0.788493    0.102236
      5          6           0       -0.582687   -0.139870   -0.908619
      6          6           0       -0.664866    1.221055   -0.234373
      7          7           0        0.719157   -0.755511   -0.561005
      8          1           0        2.763631   -0.297510   -0.234462
      9          1           0        1.772778    1.186377   -0.573090
     10          1           0        1.173084   -0.999335    1.578444
     11          1           0       -1.336249   -0.202730    1.277891
     12          1           0       -1.380142   -1.849321    0.297394
     13          1           0       -2.578318   -0.513362   -0.011402
     14          1           0       -0.812500   -0.285286   -1.967710
     15          1           0        0.032428    1.998982   -0.536663
     16          1           0       -1.668109    1.642675   -0.264429
 ---------------------------------------------------------------------

 SCF Done:  E(RHF) =  -286.998409198     A.U. after    2 cycles

 The electronic state is 1-A.
 Alpha  occ. eigenvalues --  -15.50166 -11.28397 -11.27981 -11.26793 -11.25913
 Alpha  occ. eigenvalues --  -11.25273 -11.23687  -1.30552  -1.11893  -0.98543
 Alpha  occ. eigenvalues --   -0.93659  -0.88436  -0.78516  -0.76563  -0.69262
 Alpha  occ. eigenvalues --   -0.68541  -0.64338  -0.58680  -0.56559  -0.56082
 Alpha  occ. eigenvalues --   -0.51469  -0.50659  -0.50078  -0.46134  -0.40772
 Alpha  occ. eigenvalues --   -0.32250
 Alpha virt. eigenvalues --    0.03354   0.03801   0.03935   0.04557   0.05256
 Alpha virt. eigenvalues --    0.05344   0.06652   0.07451   0.08967   0.09498
 Alpha virt. eigenvalues --    0.10388   0.11369   0.13262   0.13664   0.14036

 Mulliken charges:
               1
     1  C    0.178202
     2  C    0.476914
     3  C   -0.800384
     4  C   -0.111051
     5  C   -0.839360
     6  C    0.422935
     7  N    0.773772
     8  H   -0.123315
     9  H   -0.110432
    10  H   -0.222717
    11  H    0.465425
    12  H    0.042424
    13  H   -0.019734
    14  H   -0.115348
    15  H    0.013872
    16  H   -0.031204
 Sum of Mulliken charges =   0.00000

 Dipole moment (field-independent basis, Debye):
    X=             -0.9191    Y=              0.1040    Z=             -1.3095  Tot=              1.6032

 Test job not archived.
 1\1\GINC-SE054\SP\RHF\Aug-CC-pVDZ\C6H9N1\OHZDE\09-Apr-2025\0\\#t hf au
 g-cc-pvdz iop(5/13=1,5/36=2,99/5=2) pseudo=read geom=check guess=(read
 ,tcheck) scf=(maxcycle=1)\\title\\0,1\C,0,1.71414809,0.82776466,-0.117
 14971\C,0,1.11621462,-0.30234185,0.64011676\C,0,-0.2315884,-0.10482005
 ,1.27169097\C,0,-1.05922426,-1.23987556,-0.27428969\C,0,-0.51250955,0.
 047839,-0.89286831\C,0,-0.91835781,0.89169157,0.305747\N,0,0.95147033,
 -0.17151136,-0.83546478\H,0,2.77663844,0.77820054,-0.32255006\H,0,1.33
 621316,1.83346355,0.00907115\H,0,1.75434505,-1.10447595,0.98873665\H,0

 Normal termination of Gaussian 16 at Wed Apr  9 19:08:12 2025.
