 Gaussian 16, Revision C.01,

 ----------------------------------------------------------------------
 #t hf aug-cc-pvdz symm=none int=(grid=ultrafine) guess=(read,tcheck) s
 table=(opt,rrhf)
 ----------------------------------------------------------------------
 -----
 title
 -----
 Symbolic Z-matrix:
 Charge =  0 Multiplicity = 1

 SCF Done:  E(RHF) =  -247.739518485     A.U. after   15 cycles
 Normal termination of Gaussian 16 at Wed Apr  9 16:53:06 2025.
 Gaussian 16:  ES64L-G16RevC.01  3-Jul-2019

 ----------------------------------------------------------------------
 #t hf aug-cc-pvdz iop(5/13=1,5/36=2,99/5=2) pseudo=read geom=check gue
 ss=(read,tcheck) scf=(maxcycle=1)
 ----------------------------------------------------------------------
 -----
 title
 -----
 Structure from the checkpoint file:  "Grambow2020_wb97xd3_006166_forward_mol1.chk"
 Charge =  0 Multiplicity = 1

                         Standard orientation:
 ---------------------------------------------------------------------
 Center     Atomic      Atomic             Coordinates (Angstroms)
 Number     Number       Type             X           Y           Z
 ---------------------------------------------------------------------
      1          6           0        0.489584    1.584775   -0.007776
      2          6           0        1.132466    0.395089   -0.309398
      3          6           0        1.094266   -0.826346    0.531550
      4          6           0       -0.088014   -1.279358   -0.305961
      5          6           0       -1.224735   -0.604696   -0.082867
      6          7           0       -1.842095    0.383548    0.178826
      7          1           0        0.369670    1.856387    1.038026
      8          1           0       -0.949299    1.203576   -0.112871
      9          1           0        0.610790    2.412752   -0.697167
     10          1           0        1.591885    0.275646   -1.284972
     11          1           0        0.851406   -0.646433    1.576546
     12          1           0        1.951922   -1.487649    0.442378
     13          1           0        0.046890   -1.915902   -1.167005
 ---------------------------------------------------------------------

 SCF Done:  E(RHF) =  -248.001292426     A.U. after    2 cycles

 The electronic state is 1-A.
 Alpha  occ. eigenvalues --  -15.51110 -11.29131 -11.29003 -11.27354 -11.26206
 Alpha  occ. eigenvalues --  -11.23080  -1.25101  -1.13518  -1.01611  -0.92166
 Alpha  occ. eigenvalues --   -0.79923  -0.73025  -0.69905  -0.64077  -0.62248
 Alpha  occ. eigenvalues --   -0.60600  -0.58847  -0.54988  -0.53419  -0.48143
 Alpha  occ. eigenvalues --   -0.38192  -0.34468
 Alpha virt. eigenvalues --    0.02995   0.03801   0.04241   0.04463   0.06069
 Alpha virt. eigenvalues --    0.06362   0.07580   0.09092   0.09795   0.11593
 Alpha virt. eigenvalues --    0.12031   0.12904   0.13897   0.13947   0.14685

 Mulliken charges:
               1
     1  C   -0.795075
     2  C    0.451907
     3  C    0.041986
     4  C    0.613914
     5  C   -1.863010
     6  N    1.032950
     7  H    0.094239
     8  H    0.621412
     9  H    0.005778
    10  H   -0.147448
    11  H    0.043806
    12  H    0.021198
    13  H   -0.121657
 Sum of Mulliken charges =   0.00000

 Dipole moment (field-independent basis, Debye):
    X=              3.8434    Y=             -1.0259    Z=             -0.9655  Tot=              4.0934

 Test job not archived.
 1\1\GINC-SE220\SP\RHF\Aug-CC-pVDZ\C5H7N1\OHZDE\09-Apr-2025\0\\#t hf au
 g-cc-pvdz iop(5/13=1,5/36=2,99/5=2) pseudo=read geom=check guess=(read
 ,tcheck) scf=(maxcycle=1)\\title\\0,1\C,0,1.2681535,0.5776624,-0.38350
 665\C,0,0.47831068,-0.5523954,-0.52040832\C,0,-0.38464554,-1.11805241,
 0.54537608\C,0,-1.5166673,-0.28518237,-0.02845856\C,0,-1.41405393,1.03
 221264,0.19740418\N,0,-0.79391286,2.04385452,0.33249128\H,0,1.69127549
 ,0.79684622,0.5936224\H,0,0.25135793,1.65865503,-0.2275513\H,0,1.86912
 69,0.87935732,-1.23398165\H,0,0.35897843,-0.99749401,-1.5026112\H,0,-0

 Normal termination of Gaussian 16 at Wed Apr  9 16:53:10 2025.
