 Gaussian 16, Revision C.01,

 ----------------------------------------------------------------------
 #t hf aug-cc-pvdz symm=none int=(grid=ultrafine) guess=(read,tcheck) s
 table=(opt,rrhf)
 ----------------------------------------------------------------------
 -----
 title
 -----
 Symbolic Z-matrix:
 Charge =  0 Multiplicity = 1

 SCF Done:  E(RHF) =  -322.620577356     A.U. after   16 cycles
 Normal termination of Gaussian 16 at Wed Apr  9 03:33:23 2025.
 Gaussian 16:  ES64L-G16RevC.01  3-Jul-2019

 ----------------------------------------------------------------------
 #t hf aug-cc-pvdz iop(5/13=1,5/36=2,99/5=2) pseudo=read geom=check gue
 ss=(read,tcheck) scf=(maxcycle=1)
 ----------------------------------------------------------------------
 -----
 title
 -----
 Structure from the checkpoint file:  "Grambow2020_wb97xd3_007011_forward_mol1.chk"
 Charge =  0 Multiplicity = 1

                         Standard orientation:
 ---------------------------------------------------------------------
 Center     Atomic      Atomic             Coordinates (Angstroms)
 Number     Number       Type             X           Y           Z
 ---------------------------------------------------------------------
      1          6           0       -1.496783   -0.984484    0.721768
      2          6           0       -0.111697   -0.758275   -0.684180
      3          6           0       -1.214642    0.210999   -0.602865
      4          6           0       -0.686015    1.367997   -0.040581
      5          7           0        0.612413    1.106249    0.270446
      6          6           0        1.054879   -0.173117   -0.096645
      7          8           0        2.187438   -0.602553    0.106319
      8          1           0       -2.549859   -0.727036    0.834958
      9          1           0       -0.933866   -0.667407    1.591738
     10          1           0       -1.430768   -2.059550    0.575853
     11          1           0       -0.131565   -1.703619   -1.196596
     12          1           0       -2.099114    0.192634   -1.220276
     13          1           0       -1.145775    2.325347    0.132308
     14          1           0        1.230093    1.737599    0.753366
 ---------------------------------------------------------------------

 SCF Done:  E(RHF) =  -322.951864753     A.U. after    2 cycles

 The electronic state is 1-A.
 Alpha  occ. eigenvalues --  -20.45894 -15.55684 -11.32380 -11.31479 -11.27897
 Alpha  occ. eigenvalues --  -11.27635 -11.26004  -1.41008  -1.29243  -1.11366
 Alpha  occ. eigenvalues --   -0.98526  -0.95703  -0.83710  -0.82307  -0.72537
 Alpha  occ. eigenvalues --   -0.67103  -0.64281  -0.61743  -0.59776  -0.59118
 Alpha  occ. eigenvalues --   -0.58653  -0.57397  -0.47739  -0.45414  -0.39135
 Alpha  occ. eigenvalues --   -0.25110
 Alpha virt. eigenvalues --    0.02168   0.03026   0.03248   0.04042   0.05600
 Alpha virt. eigenvalues --    0.06506   0.06695   0.07065   0.09832   0.10847
 Alpha virt. eigenvalues --    0.12135   0.12780   0.13280   0.13402   0.14530

 Mulliken charges:
               1
     1  C   -0.171883
     2  C    0.270649
     3  C    0.340174
     4  C   -0.586064
     5  N    0.833956
     6  C    0.786898
     7  O   -1.483340
     8  H    0.165584
     9  H    0.188774
    10  H    0.163113
    11  H   -0.133853
    12  H   -0.158029
    13  H   -0.218887
    14  H    0.002908
 Sum of Mulliken charges =  -0.00000

 Dipole moment (field-independent basis, Debye):
    X=             -6.0728    Y=              1.2493    Z=              0.5138  Tot=              6.2212

 Test job not archived.
 1\1\GINC-SE345\SP\RHF\Aug-CC-pVDZ\C5H7N1O1\OHZDE\09-Apr-2025\0\\#t hf
 aug-cc-pvdz iop(5/13=1,5/36=2,99/5=2) pseudo=read geom=check guess=(re
 ad,tcheck) scf=(maxcycle=1)\\title\\0,1\C,0,-1.35247086,0.38203795,0.5
 9931935\C,0,-0.30925475,0.00696847,-1.04911834\C,0,0.18663043,1.016711
 92,-0.10196038\C,0,1.24938315,0.43370027,0.57988164\N,0,1.34847319,-0.
 85178149,0.14527708\C,0,0.43655658,-1.20017998,-0.8618662\O,0,0.359968
 28,-2.31249229,-1.376836\H,0,-1.49301345,1.23582099,1.26216437\H,0,-1.
 12330888,-0.5085928,1.17248791\H,0,-2.26304177,0.25778702,0.01894209\H

 Normal termination of Gaussian 16 at Wed Apr  9 03:33:28 2025.
