 Gaussian 16, Revision C.01,

 ----------------------------------------------------------------------
 #t hf aug-cc-pvdz symm=none int=(grid=ultrafine) guess=(read,tcheck) s
 table=(opt,rrhf)
 ----------------------------------------------------------------------
 -----
 title
 -----
 Symbolic Z-matrix:
 Charge =  0 Multiplicity = 1

 SCF Done:  E(RHF) =  -269.532216110     A.U. after   17 cycles
 Normal termination of Gaussian 16 at Wed Apr  9 17:23:42 2025.
 Gaussian 16:  ES64L-G16RevC.01  3-Jul-2019

 ----------------------------------------------------------------------
 #t hf aug-cc-pvdz iop(5/13=1,5/36=2,99/5=2) pseudo=read geom=check gue
 ss=(read,tcheck) scf=(maxcycle=1)
 ----------------------------------------------------------------------
 -----
 title
 -----
 Structure from the checkpoint file:  "Grambow2020_wb97xd3_006590_forward_mol1.chk"
 Charge =  0 Multiplicity = 1

                         Standard orientation:
 ---------------------------------------------------------------------
 Center     Atomic      Atomic             Coordinates (Angstroms)
 Number     Number       Type             X           Y           Z
 ---------------------------------------------------------------------
      1          6           0        2.187018   -0.184642   -0.507553
      2          6           0        1.020541   -0.185325    0.471627
      3          6           0        0.156361    1.395404    0.244986
      4          6           0       -1.171670    1.172829   -0.119814
      5          6           0       -1.974899    0.236048   -0.311361
      6          6           0        0.075471   -1.206848    0.318626
      7          6           0       -1.125374   -1.392437    0.029997
      8          1           0        1.821516   -0.225780   -1.534680
      9          1           0        2.791890    0.715772   -0.387549
     10          1           0        2.832599   -1.047289   -0.341250
     11          1           0        1.360525   -0.086663    1.503194
     12          1           0        0.281336    1.901149    1.201217
     13          1           0        0.758345    1.876474   -0.524935
     14          1           0       -2.986669    0.019691   -0.596568
     15          1           0       -1.864237   -2.163525   -0.078474
 ---------------------------------------------------------------------

 SCF Done:  E(RHF) =  -269.815725341     A.U. after    2 cycles

 The electronic state is 1-A.
 Alpha  occ. eigenvalues --  -11.27704 -11.26910 -11.24992 -11.24968 -11.24102
 Alpha  occ. eigenvalues --  -11.23693 -11.23378  -1.12752  -1.04541  -1.01382
 Alpha  occ. eigenvalues --   -0.94125  -0.86737  -0.76002  -0.68837  -0.66500
 Alpha  occ. eigenvalues --   -0.63967  -0.60273  -0.59329  -0.56434  -0.54497
 Alpha  occ. eigenvalues --   -0.53123  -0.42891  -0.42516  -0.35211  -0.30896
 Alpha virt. eigenvalues --    0.03336   0.03656   0.04111   0.04272   0.05011
 Alpha virt. eigenvalues --    0.05443   0.06801   0.06916   0.07844   0.10669
 Alpha virt. eigenvalues --    0.11037   0.11581   0.12652   0.13034   0.14249

 Mulliken charges:
               1
     1  C   -0.226063
     2  C   -0.624571
     3  C   -0.470157
     4  C    0.138083
     5  C    0.233723
     6  C    0.097008
     7  C    0.327513
     8  H    0.226240
     9  H    0.156498
    10  H    0.111058
    11  H    0.186666
    12  H    0.239448
    13  H    0.177937
    14  H   -0.291516
    15  H   -0.281866
 Sum of Mulliken charges =  -0.00000

 Dipole moment (field-independent basis, Debye):
    X=              0.9373    Y=              0.2182    Z=              0.1142  Tot=              0.9691

 Test job not archived.
 1\1\GINC-SE113\SP\RHF\Aug-CC-pVDZ\C7H8\OHZDE\09-Apr-2025\0\\#t hf aug-
 cc-pvdz iop(5/13=1,5/36=2,99/5=2) pseudo=read geom=check guess=(read,t
 check) scf=(maxcycle=1)\\title\\0,1\C,0,-0.91195243,-1.60542713,-0.745
 70143\C,0,0.13529504,-0.93021578,0.12998461\C,0,0.96354522,0.30255921,
 -0.91459317\C,0,0.82067822,1.57685501,-0.36500896\C,0,0.3340794,2.1471
 2568,0.63371012\C,0,-0.33500175,-0.26747483,1.27001605\C,0,-0.42196091
 ,0.87293342,1.77169885\H,0,-1.70344132,-0.9004883,-1.00431375\H,0,-0.4
 6238265,-1.97967252,-1.66702901\H,0,-1.36490859,-2.45005898,-0.2260681

 Normal termination of Gaussian 16 at Wed Apr  9 17:23:47 2025.
