 Gaussian 16, Revision C.01,

 ----------------------------------------------------------------------
 #t hf aug-cc-pvdz symm=none int=(grid=ultrafine) guess=(read,tcheck) s
 table=(opt,rrhf)
 ----------------------------------------------------------------------
 -----
 title
 -----
 Symbolic Z-matrix:
 Charge =  0 Multiplicity = 1

 SCF Done:  E(RHF) =  -231.946437175     A.U. after   15 cycles

 1\1\GINC-SE105\Stability\RHF\Aug-CC-pVDZ\C4H10O1\OHZDE\09-Apr-2025\0\\
 #t hf aug-cc-pvdz symm=none int=(grid=ultrafine) guess=(read,tcheck) s
 table=(opt,rrhf)\\title\\0,1\C,0,1.61601588,-0.17295124,-0.62968226\O,
 0,0.33094053,-0.58489712,-0.12298351\C,0,-0.64365205,0.58597556,0.3272
 6271\C,0,-1.0098418,-0.853524,-1.23261141\C,0,-0.5490791,0.65701522,1.
 82663806\H,0,2.24473256,-1.06161844,-0.77247973\H,0,2.06688987,0.49522
 369,0.11569243\H,0,1.50315451,0.36182168,-1.58598993\H,0,-0.22041265,1
 .48338886,-0.15414288\H,0,-1.78655924,-1.36991327,-0.67591977\H,0,-0.4

 Normal termination of Gaussian 16 at Wed Apr  9 03:08:53 2025.
 Gaussian 16:  ES64L-G16RevC.01  3-Jul-2019

 ----------------------------------------------------------------------
 #t hf aug-cc-pvdz iop(5/13=1,5/36=2,99/5=2) pseudo=read geom=check gue
 ss=(read,tcheck) scf=(maxcycle=1)
 ----------------------------------------------------------------------
 -----
 title
 -----
 Structure from the checkpoint file:  "Grambow2020_b97d3_006610_forward_mol1.chk"
 Charge =  0 Multiplicity = 1

                         Standard orientation:
 ---------------------------------------------------------------------
 Center     Atomic      Atomic             Coordinates (Angstroms)
 Number     Number       Type             X           Y           Z
 ---------------------------------------------------------------------
      1          6           0        1.109477   -1.355886    0.084944
      2          8           0        0.443869   -0.178839   -0.414446
      3          6           0       -0.741181    0.380165    0.483699
      4          6           0        1.073529    1.420301   -0.030504
      5          6           0       -2.014937   -0.095564   -0.159220
      6          1           0        1.804613   -1.724532   -0.680753
      7          1           0        0.338304   -2.109405    0.291896
      8          1           0        1.661069   -1.126914    1.010450
      9          1           0       -0.575293   -0.092600    1.466149
     10          1           0        0.570979    2.126937   -0.684692
     11          1           0        2.078882    1.150141   -0.402334
     12          1           0        1.112724    1.757041    1.004391
     13          1           0       -2.858631    0.143211    0.507626
     14          1           0       -2.041068   -1.191441   -0.348222
     15          1           0       -2.203866    0.404174   -1.122457
 ---------------------------------------------------------------------

 SCF Done:  E(RHF) =  -232.196324914     A.U. after    2 cycles

 The electronic state is 1-A.
 Alpha  occ. eigenvalues --  -20.58528 -11.34423 -11.29806 -11.20398 -11.19704
 Alpha  occ. eigenvalues --   -1.45788  -0.98922  -0.96431  -0.91182  -0.77948
 Alpha  occ. eigenvalues --   -0.65994  -0.65006  -0.62262  -0.60151  -0.59048
 Alpha  occ. eigenvalues --   -0.53909  -0.53231  -0.50617  -0.46673  -0.44988
 Alpha  occ. eigenvalues --   -0.26025
 Alpha virt. eigenvalues --    0.03090   0.03927   0.04105   0.04846   0.06528
 Alpha virt. eigenvalues --    0.06731   0.06956   0.07192   0.08465   0.09984
 Alpha virt. eigenvalues --    0.11743   0.13373   0.13995   0.14813   0.15223

 Mulliken charges:
               1
     1  C    0.232328
     2  O   -1.190050
     3  C    0.204618
     4  C   -0.009774
     5  C   -0.497692
     6  H    0.031258
     7  H    0.132277
     8  H    0.196022
     9  H   -0.128959
    10  H    0.183699
    11  H    0.085359
    12  H    0.312994
    13  H    0.148781
    14  H    0.151727
    15  H    0.147411
 Sum of Mulliken charges =   0.00000

 Dipole moment (field-independent basis, Debye):
    X=              3.1737    Y=             -0.4019    Z=              0.0811  Tot=              3.2000

 Test job not archived.
 1\1\GINC-SE105\SP\RHF\Aug-CC-pVDZ\C4H10O1\OHZDE\09-Apr-2025\0\\#t hf a
 ug-cc-pvdz iop(5/13=1,5/36=2,99/5=2) pseudo=read geom=check guess=(rea
 d,tcheck) scf=(maxcycle=1)\\title\\0,1\C,0,1.61601588,-0.17295124,-0.6
 2968226\O,0,0.33094053,-0.58489712,-0.12298351\C,0,-0.64365205,0.58597
 556,0.32726271\C,0,-1.0098418,-0.853524,-1.23261141\C,0,-0.5490791,0.6
 5701522,1.82663806\H,0,2.24473256,-1.06161844,-0.77247973\H,0,2.066889
 87,0.49522369,0.11569243\H,0,1.50315451,0.36182168,-1.58598993\H,0,-0.
 22041265,1.48338886,-0.15414288\H,0,-1.78655924,-1.36991327,-0.6759197

 Normal termination of Gaussian 16 at Wed Apr  9 03:08:57 2025.
