 Gaussian 16, Revision C.01,

 ----------------------------------------------------------------------
 #t hf aug-cc-pvdz symm=none int=(grid=ultrafine) guess=(read,tcheck) s
 table=(opt,rrhf)
 ----------------------------------------------------------------------
 -----
 title
 -----
 Symbolic Z-matrix:
 Charge =  0 Multiplicity = 1

 SCF Done:  E(RHF) =  -268.851923235     A.U. after   14 cycles
 Normal termination of Gaussian 16 at Wed Apr  9 17:07:17 2025.
 Gaussian 16:  ES64L-G16RevC.01  3-Jul-2019

 ----------------------------------------------------------------------
 #t hf aug-cc-pvdz iop(5/13=1,5/36=2,99/5=2) pseudo=read geom=check gue
 ss=(read,tcheck) scf=(maxcycle=1)
 ----------------------------------------------------------------------
 -----
 title
 -----
 Structure from the checkpoint file:  "Grambow2020_wb97xd3_006252_reverse_mol2.chk"
 Charge =  0 Multiplicity = 1

                         Standard orientation:
 ---------------------------------------------------------------------
 Center     Atomic      Atomic             Coordinates (Angstroms)
 Number     Number       Type             X           Y           Z
 ---------------------------------------------------------------------
      1          6           0        1.609711   -0.951746    0.470267
      2          6           0        1.512133    0.319749   -0.313712
      3          6           0        0.492673    1.181295   -0.307683
      4          6           0       -0.786387    1.022392    0.399459
      5          6           0       -1.595821   -0.028428    0.268597
      6          8           0       -1.384530   -1.107231   -0.515139
      7          1           0        0.805703   -1.038500    1.200904
      8          1           0        1.574322   -1.833727   -0.177257
      9          1           0        2.565661   -0.993793    0.996686
     10          1           0        2.381529    0.578287   -0.912096
     11          1           0       -0.573903   -0.964964   -1.018377
     12          1           0        0.611967    2.103229   -0.871720
     13          1           0       -1.139310    1.842821    1.012701
     14          1           0       -2.543570   -0.095082    0.788704
 ---------------------------------------------------------------------

 SCF Done:  E(RHF) =  -269.134749284     A.U. after    2 cycles

 The electronic state is 1-A.
 Alpha  occ. eigenvalues --  -20.57580 -11.30309 -11.24605 -11.24346 -11.23385
 Alpha  occ. eigenvalues --  -11.22779  -1.49378  -1.10035  -1.02432  -0.94102
 Alpha  occ. eigenvalues --   -0.83998  -0.75565  -0.69801  -0.65540  -0.65155
 Alpha  occ. eigenvalues --   -0.58053  -0.57939  -0.55779  -0.55298  -0.53251
 Alpha  occ. eigenvalues --   -0.49888  -0.39857  -0.32735
 Alpha virt. eigenvalues --    0.03497   0.03810   0.04204   0.04719   0.05619
 Alpha virt. eigenvalues --    0.06327   0.07570   0.07801   0.11151   0.11796
 Alpha virt. eigenvalues --    0.12554   0.13626   0.14209   0.14943   0.15204

 Mulliken charges:
               1
     1  C   -0.646285
     2  C    0.119369
     3  C    0.163088
     4  C    0.310450
     5  C    1.072894
     6  O   -1.467613
     7  H    0.197732
     8  H    0.243746
     9  H    0.126945
    10  H   -0.186678
    11  H    0.470715
    12  H   -0.174606
    13  H   -0.169912
    14  H   -0.059845
 Sum of Mulliken charges =  -0.00000

 Dipole moment (field-independent basis, Debye):
    X=              0.9681    Y=              0.4653    Z=             -0.0095  Tot=              1.0741

 Test job not archived.
 1\1\GINC-SE114\SP\RHF\Aug-CC-pVDZ\C5H8O1\OHZDE\09-Apr-2025\0\\#t hf au
 g-cc-pvdz iop(5/13=1,5/36=2,99/5=2) pseudo=read geom=check guess=(read
 ,tcheck) scf=(maxcycle=1)\\title\\0,1\C,0,-1.26655715,-0.94399165,-0.5
 1675416\C,0,-1.02100397,0.53218534,-0.55482697\C,0,0.16652228,1.141358
 07,-0.53788617\C,0,1.48037662,0.49877042,-0.38901822\C,0,1.81434903,-0
 .31302826,0.61396551\O,0,1.02063243,-0.68143674,1.64206676\H,0,-0.3433
 31,-1.51030455,-0.63811487\H,0,-1.73288657,-1.25563009,0.42337746\H,0,
 -1.95772174,-1.22853866,-1.31302656\H,0,-1.90334027,1.15957815,-0.6476

 Normal termination of Gaussian 16 at Wed Apr  9 17:07:22 2025.
