 Gaussian 16, Revision C.01,

 ----------------------------------------------------------------------
 #t hf aug-cc-pvdz symm=none int=(grid=ultrafine) guess=(read,tcheck) s
 table=(opt,rrhf)
 ----------------------------------------------------------------------
 -----
 title
 -----
 Symbolic Z-matrix:
 Charge =  0 Multiplicity = 1

 SCF Done:  E(RHF) =  -308.965164337     A.U. after   16 cycles

 1\1\GINC-SE116\Stability\RHF\Aug-CC-pVDZ\C6H12O1\OHZDE\09-Apr-2025\0\\
 #t hf aug-cc-pvdz symm=none int=(grid=ultrafine) guess=(read,tcheck) s
 table=(opt,rrhf)\\title\\0,1\C,0,2.5179373,-0.2023825,0.04212454\C,0,1
 .06399281,-0.49612245,0.30716888\O,0,0.80442076,-1.01325771,1.62735452
 \C,0,0.18099071,0.66686262,0.59994484\C,0,-1.12082182,1.33197137,-1.20
 666405\C,0,-1.21970782,0.54753271,0.1270399\C,0,-1.85308923,-0.8266779
 ,-0.08975142\H,0,2.63172336,0.22288991,-0.95799814\H,0,3.11521411,-1.1
 1468182,0.09981214\H,0,2.8925968,0.52970755,0.76003394\H,0,0.69249657,

 Normal termination of Gaussian 16 at Wed Apr  9 18:26:49 2025.
 Gaussian 16:  ES64L-G16RevC.01  3-Jul-2019

 ----------------------------------------------------------------------
 #t hf aug-cc-pvdz iop(5/13=1,5/36=2,99/5=2) pseudo=read geom=check gue
 ss=(read,tcheck) scf=(maxcycle=1)
 ----------------------------------------------------------------------
 -----
 title
 -----
 Structure from the checkpoint file:  "Grambow2020_wb97xd3_007566_reverse_mol2.chk"
 Charge =  0 Multiplicity = 1

                         Standard orientation:
 ---------------------------------------------------------------------
 Center     Atomic      Atomic             Coordinates (Angstroms)
 Number     Number       Type             X           Y           Z
 ---------------------------------------------------------------------
      1          6           0       -2.265373    0.920332    0.363938
      2          6           0       -1.084390   -0.011699    0.279777
      3          8           0       -1.383936   -1.278733   -0.338765
      4          6           0       -0.081787    0.260862   -0.787201
      5          6           0        1.839467    1.318435   -0.018276
      6          6           0        1.323072   -0.077402   -0.452861
      7          6           0        1.637884   -1.133650    0.606317
      8          1           0       -1.954202    1.870805    0.804193
      9          1           0       -3.053946    0.492715    0.986556
     10          1           0       -2.655297    1.127441   -0.634453
     11          1           0       -0.718310   -0.266839    1.278546
     12          1           0       -1.740091   -1.080700   -1.214605
     13          1           0        1.679546    2.072088   -0.789009
     14          1           0        1.351532    1.651045    0.901561
     15          1           0        2.909417    1.244605    0.180589
     16          1           0        1.852052   -0.329482   -1.376380
     17          1           0        1.325134   -0.824519    1.605722
     18          1           0        2.715254   -1.309121    0.643284
     19          1           0        1.147159   -2.079443    0.373940
 ---------------------------------------------------------------------

 SCF Done:  E(RHF) =  -309.295760686     A.U. after    2 cycles

 The electronic state is 1-A.
 Alpha  occ. eigenvalues --  -20.57107 -11.29059 -11.25867 -11.23976 -11.23880
 Alpha  occ. eigenvalues --  -11.22959 -11.22370  -1.47033  -1.10297  -1.03032
 Alpha  occ. eigenvalues --   -0.94032  -0.91725  -0.83637  -0.75107  -0.67726
 Alpha  occ. eigenvalues --   -0.65151  -0.62291  -0.61131  -0.57611  -0.56687
 Alpha  occ. eigenvalues --   -0.55245  -0.53187  -0.52407  -0.50802  -0.49234
 Alpha  occ. eigenvalues --   -0.48676  -0.44272  -0.34331
 Alpha virt. eigenvalues --    0.03495   0.03520   0.03916   0.04170   0.05875
 Alpha virt. eigenvalues --    0.06045   0.06067   0.06921   0.07164   0.09028
 Alpha virt. eigenvalues --    0.09303   0.09727   0.10868   0.12323   0.13509

 Mulliken charges:
               1
     1  C   -0.383578
     2  C    1.169007
     3  O   -1.337538
     4  C   -0.519646
     5  C   -0.130294
     6  C   -0.835919
     7  C   -0.135189
     8  H    0.225406
     9  H    0.205373
    10  H    0.176647
    11  H   -0.068859
    12  H    0.398775
    13  H    0.157140
    14  H    0.213258
    15  H    0.143211
    16  H    0.164285
    17  H    0.283805
    18  H    0.060079
    19  H    0.214039
 Sum of Mulliken charges =  -0.00000

 Dipole moment (field-independent basis, Debye):
    X=              0.4044    Y=              0.6522    Z=              1.1043  Tot=              1.3448

 Test job not archived.
 1\1\GINC-SE116\SP\RHF\Aug-CC-pVDZ\C6H12O1\OHZDE\09-Apr-2025\0\\#t hf a
 ug-cc-pvdz iop(5/13=1,5/36=2,99/5=2) pseudo=read geom=check guess=(rea
 d,tcheck) scf=(maxcycle=1)\\title\\0,1\C,0,2.5179373,-0.2023825,0.0421
 2454\C,0,1.06399281,-0.49612245,0.30716888\O,0,0.80442076,-1.01325771,
 1.62735452\C,0,0.18099071,0.66686262,0.59994484\C,0,-1.12082182,1.3319
 7137,-1.20666405\C,0,-1.21970782,0.54753271,0.1270399\C,0,-1.85308923,
 -0.8266779,-0.08975142\H,0,2.63172336,0.22288991,-0.95799814\H,0,3.115
 21411,-1.11468182,0.09981214\H,0,2.8925968,0.52970755,0.76003394\H,0,0

 Normal termination of Gaussian 16 at Wed Apr  9 18:26:56 2025.
