 Gaussian 16, Revision C.01,

 ----------------------------------------------------------------------
 #t hf aug-cc-pvdz symm=none int=(grid=ultrafine) guess=(read,tcheck) s
 table=(opt,rrhf)
 ----------------------------------------------------------------------
 -----
 title
 -----
 Symbolic Z-matrix:
 Charge =  0 Multiplicity = 1

 SCF Done:  E(RHF) =  -323.961906691     A.U. after   14 cycles
 Normal termination of Gaussian 16 at Wed Apr  9 03:53:46 2025.
 Gaussian 16:  ES64L-G16RevC.01  3-Jul-2019

 ----------------------------------------------------------------------
 #t hf aug-cc-pvdz iop(5/13=1,5/36=2,99/5=2) pseudo=read geom=check gue
 ss=(read,tcheck) scf=(maxcycle=1)
 ----------------------------------------------------------------------
 -----
 title
 -----
 Structure from the checkpoint file:  "Grambow2020_wb97xd3_008321_reverse_mol2.chk"
 Charge =  0 Multiplicity = 1

                         Standard orientation:
 ---------------------------------------------------------------------
 Center     Atomic      Atomic             Coordinates (Angstroms)
 Number     Number       Type             X           Y           Z
 ---------------------------------------------------------------------
      1          7           0        0.155212   -0.876765   -0.518243
      2          6           0        1.200939   -0.191428    0.021426
      3          6           0        0.689974    1.201881    0.355636
      4          6           0       -0.665078    1.287727   -0.345933
      5          6           0       -1.118035   -0.178802   -0.497596
      6          6           0       -2.024970   -0.651373    0.632556
      7          8           0        2.313436   -0.625794    0.208051
      8          1           0        0.239421   -1.864732   -0.685875
      9          1           0        0.608316    1.269079    1.443184
     10          1           0        1.409279    1.953669    0.036698
     11          1           0       -0.545679    1.735051   -1.333755
     12          1           0       -1.400500    1.879393    0.198955
     13          1           0       -2.978324   -0.119663    0.606195
     14          1           0       -1.631935   -0.322334   -1.451801
     15          1           0       -2.233225   -1.719982    0.548479
     16          1           0       -1.558304   -0.474805    1.604681
 ---------------------------------------------------------------------

 SCF Done:  E(RHF) =  -324.301871857     A.U. after    2 cycles

 The electronic state is 1-A.
 Alpha  occ. eigenvalues --  -20.50009 -15.51931 -11.34690 -11.28655 -11.24781
 Alpha  occ. eigenvalues --  -11.24528 -11.23949  -1.45191  -1.26295  -1.07177
 Alpha  occ. eigenvalues --   -1.03206  -0.91946  -0.83439  -0.81964  -0.70684
 Alpha  occ. eigenvalues --   -0.67960  -0.64283  -0.60675  -0.59305  -0.58221
 Alpha  occ. eigenvalues --   -0.56417  -0.56160  -0.54685  -0.49662  -0.48218
 Alpha  occ. eigenvalues --   -0.41478  -0.40578
 Alpha virt. eigenvalues --    0.02993   0.03658   0.03748   0.04280   0.05372
 Alpha virt. eigenvalues --    0.05935   0.06120   0.07455   0.09319   0.10401
 Alpha virt. eigenvalues --    0.11874   0.12214   0.13436   0.14160   0.14567

 Mulliken charges:
               1
     1  N    0.743920
     2  C    0.739575
     3  C   -0.338270
     4  C    0.102600
     5  C   -1.129750
     6  C   -0.119683
     7  O   -1.329415
     8  H    0.125519
     9  H    0.205728
    10  H    0.166495
    11  H    0.114145
    12  H    0.143845
    13  H    0.198743
    14  H    0.047458
    15  H    0.122537
    16  H    0.206552
 Sum of Mulliken charges =   0.00000

 Dipole moment (field-independent basis, Debye):
    X=             -4.2959    Y=              1.0934    Z=             -0.4661  Tot=              4.4573

 Test job not archived.
 1\1\GINC-SE051\SP\RHF\Aug-CC-pVDZ\C5H9N1O1\OHZDE\09-Apr-2025\0\\#t hf
 aug-cc-pvdz iop(5/13=1,5/36=2,99/5=2) pseudo=read geom=check guess=(re
 ad,tcheck) scf=(maxcycle=1)\\title\\0,1\N,0,0.82402898,0.87033413,0.66
 430456\C,0,1.7162206,0.14987698,-0.07014106\C,0,0.99083065,-1.10107053
 ,-0.54240337\C,0,-0.30035193,-1.12259929,0.27498181\C,0,-0.53112768,0.
 34866149,0.67624597\C,0,-1.45389729,1.09789569,-0.2778192\O,0,2.858999
 88,0.46488427,-0.30673864\H,0,1.05820791,1.80275482,0.95930168\H,0,0.8
 1103829,-0.99081507,-1.61453284\H,0,1.62261719,-1.9767863,-0.40721819\

 Normal termination of Gaussian 16 at Wed Apr  9 03:53:52 2025.
