 Gaussian 16, Revision C.01,

 ----------------------------------------------------------------------
 #t hf aug-cc-pvdz symm=none int=(grid=ultrafine) guess=(read,tcheck) s
 table=(opt,rrhf)
 ----------------------------------------------------------------------
 -----
 title
 -----
 Symbolic Z-matrix:
 Charge =  0 Multiplicity = 1

 SCF Done:  E(RHF) =  -308.949253409     A.U. after   14 cycles

 1\1\GINC-SE131\Stability\RHF\Aug-CC-pVDZ\C6H12O1\OHZDE\09-Apr-2025\0\\
 #t hf aug-cc-pvdz symm=none int=(grid=ultrafine) guess=(read,tcheck) s
 table=(opt,rrhf)\\title\\0,1\C,0,2.31206191,0.12950601,-0.26239764\C,0
 ,1.02530655,-0.24705364,0.44618574\O,0,1.34988959,-0.42354795,1.815503
 08\C,0,-0.03256616,0.82455471,0.27202446\C,0,-0.78279826,0.89402599,-1
 .05097767\C,0,-1.86637189,0.53509113,-0.10941603\C,0,-2.15180119,-0.94
 435673,-0.08518217\H,0,2.14317941,0.26090347,-1.3316902\H,0,3.05912443
 ,-0.65058451,-0.11622661\H,0,2.70676099,1.06153698,0.1468924\H,0,0.651

 Normal termination of Gaussian 16 at Wed Apr  9 18:27:45 2025.
 Gaussian 16:  ES64L-G16RevC.01  3-Jul-2019

 ----------------------------------------------------------------------
 #t hf aug-cc-pvdz iop(5/13=1,5/36=2,99/5=2) pseudo=read geom=check gue
 ss=(read,tcheck) scf=(maxcycle=1)
 ----------------------------------------------------------------------
 -----
 title
 -----
 Structure from the checkpoint file:  "Grambow2020_wb97xd3_007576_reverse_mol1.chk"
 Charge =  0 Multiplicity = 1

                         Standard orientation:
 ---------------------------------------------------------------------
 Center     Atomic      Atomic             Coordinates (Angstroms)
 Number     Number       Type             X           Y           Z
 ---------------------------------------------------------------------
      1          6           0        2.103852   -0.802535    0.529582
      2          6           0        1.024950    0.217834    0.222262
      3          8           0        1.671042    1.324845   -0.384883
      4          6           0       -0.035598   -0.361521   -0.692810
      5          6           0       -1.084128   -1.287474   -0.091807
      6          6           0       -1.909227   -0.135492   -0.518015
      7          6           0       -2.191155    0.827720    0.606068
      8          1           0        1.681322   -1.679168    1.021677
      9          1           0        2.858260   -0.361377    1.180932
     10          1           0        2.593010   -1.120712   -0.393172
     11          1           0        0.553245    0.530130    1.162345
     12          1           0        1.036869    2.036487   -0.491620
     13          1           0        0.364859   -0.740018   -1.632117
     14          1           0       -0.948326   -1.441670    0.982174
     15          1           0       -1.217759   -2.225956   -0.621041
     16          1           0       -0.731452    0.478140   -1.158909
     17          1           0       -1.537696    0.782557    1.488710
     18          1           0       -3.191109    0.530692    0.940726
     19          1           0       -2.281725    1.860950    0.267673
 ---------------------------------------------------------------------

 SCF Done:  E(RHF) =  -309.281061034     A.U. after    2 cycles

 The electronic state is 1-A.
 Alpha  occ. eigenvalues --  -20.55565 -11.30262 -11.27171 -11.25307 -11.24243
 Alpha  occ. eigenvalues --  -11.23434 -11.23237  -1.46151  -1.15256  -1.03744
 Alpha  occ. eigenvalues --   -0.97314  -0.89491  -0.81780  -0.76602  -0.72506
 Alpha  occ. eigenvalues --   -0.65703  -0.62299  -0.60770  -0.58476  -0.57397
 Alpha  occ. eigenvalues --   -0.55356  -0.54982  -0.53683  -0.51416  -0.50098
 Alpha  occ. eigenvalues --   -0.46729  -0.44680  -0.32947
 Alpha virt. eigenvalues --    0.03233   0.03416   0.03830   0.04069   0.05853
 Alpha virt. eigenvalues --    0.06122   0.06484   0.06712   0.07173   0.09002
 Alpha virt. eigenvalues --    0.09506   0.09703   0.12208   0.13575   0.13697

 Mulliken charges:
               1
     1  C   -0.240483
     2  C    0.915873
     3  O   -1.372029
     4  C   -0.514531
     5  C    0.321252
     6  C   -0.671992
     7  C   -0.331367
     8  H    0.186882
     9  H    0.146348
    10  H    0.229936
    11  H    0.085386
    12  H    0.263699
    13  H   -0.020352
    14  H    0.080552
    15  H   -0.005941
    16  H    0.464381
    17  H    0.130002
    18  H    0.181549
    19  H    0.150834
 Sum of Mulliken charges =  -0.00000

 Dipole moment (field-independent basis, Debye):
    X=              0.4791    Y=             -0.1891    Z=              1.6730  Tot=              1.7505

 Test job not archived.
 1\1\GINC-SE131\SP\RHF\Aug-CC-pVDZ\C6H12O1\OHZDE\09-Apr-2025\0\\#t hf a
 ug-cc-pvdz iop(5/13=1,5/36=2,99/5=2) pseudo=read geom=check guess=(rea
 d,tcheck) scf=(maxcycle=1)\\title\\0,1\C,0,2.31206191,0.12950601,-0.26
 239764\C,0,1.02530655,-0.24705364,0.44618574\O,0,1.34988959,-0.4235479
 5,1.81550308\C,0,-0.03256616,0.82455471,0.27202446\C,0,-0.78279826,0.8
 9402599,-1.05097767\C,0,-1.86637189,0.53509113,-0.10941603\C,0,-2.1518
 0119,-0.94435673,-0.08518217\H,0,2.14317941,0.26090347,-1.3316902\H,0,
 3.05912443,-0.65058451,-0.11622661\H,0,2.70676099,1.06153698,0.1468924

 Normal termination of Gaussian 16 at Wed Apr  9 18:27:52 2025.
