 Gaussian 16, Revision C.01,

 ----------------------------------------------------------------------
 #t hf aug-cc-pvdz symm=none int=(grid=ultrafine) guess=(read,tcheck) s
 table=(opt,rrhf)
 ----------------------------------------------------------------------
 -----
 title
 -----
 Symbolic Z-matrix:
 Charge =  0 Multiplicity = 1

 SCF Done:  E(RHF) =  -206.698546948     A.U. after   14 cycles
 Normal termination of Gaussian 16 at Wed Apr  9 15:42:31 2025.
 Gaussian 16:  ES64L-G16RevC.01  3-Jul-2019

 ----------------------------------------------------------------------
 #t hf aug-cc-pvdz iop(5/13=1,5/36=2,99/5=2) pseudo=read geom=check gue
 ss=(read,tcheck) scf=(maxcycle=1)
 ----------------------------------------------------------------------
 -----
 title
 -----
 Structure from the checkpoint file:  "Grambow2020_b97d3_006676_reverse_mol2.chk"
 Charge =  0 Multiplicity = 1

                         Standard orientation:
 ---------------------------------------------------------------------
 Center     Atomic      Atomic             Coordinates (Angstroms)
 Number     Number       Type             X           Y           Z
 ---------------------------------------------------------------------
      1          8           0       -1.617098   -0.418157   -0.000101
      2          6           0        1.863349   -0.157259    0.000140
      3          6           0        0.575556    0.124041   -0.000289
      4          7           0       -0.586097    0.567065   -0.000042
      5          1           0       -2.412224    0.151345    0.001282
      6          1           0        2.409491   -0.288219   -0.934752
      7          1           0        2.408759   -0.288016    0.935473
 ---------------------------------------------------------------------

 SCF Done:  E(RHF) =  -206.904593100     A.U. after    2 cycles

 The electronic state is 1-A.
 Alpha  occ. eigenvalues --  -20.60755 -15.58539 -11.32254 -11.27389  -1.50108
 Alpha  occ. eigenvalues --   -1.20706  -1.02856  -0.76001  -0.71420  -0.69060
 Alpha  occ. eigenvalues --   -0.65229  -0.59521  -0.54213  -0.43622  -0.39194
 Alpha virt. eigenvalues --    0.03463   0.04755   0.04967   0.08400   0.09257
 Alpha virt. eigenvalues --    0.11364   0.11563   0.13924   0.15497   0.16474
 Alpha virt. eigenvalues --    0.16880   0.17632   0.18572   0.20224   0.22028

 Mulliken charges:
               1
     1  O   -1.051892
     2  C    0.385101
     3  C   -0.911240
     4  N    1.141810
     5  H    0.368445
     6  H    0.033879
     7  H    0.033898
 Sum of Mulliken charges =  -0.00000

 Dipole moment (field-independent basis, Debye):
    X=              0.9120    Y=             -0.2074    Z=              0.0024  Tot=              0.9353

 Test job not archived.
 1\1\GINC-SE131\SP\RHF\Aug-CC-pVDZ\C2H3N1O1\OHZDE\09-Apr-2025\0\\#t hf
 aug-cc-pvdz iop(5/13=1,5/36=2,99/5=2) pseudo=read geom=check guess=(re
 ad,tcheck) scf=(maxcycle=1)\\title\\0,1\O,0,-0.5754052,1.8977427,-0.40
 17079\C,0,0.06581188,-1.48239629,0.18572414\C,0,0.18481258,-0.17387302
 ,0.08015056\N,0,0.47037056,1.03554186,0.04167373\H,0,-0.12934806,2.766
 47634,-0.34790059\H,0,0.29795719,-2.13670529,-0.65536601\H,0,-0.289169
 96,-1.94077029,1.10946608\\Version=ES64L-G16RevC.01\State=1-A\HF=-206.
 9045931\RMSD=2.349e-02\Dipole=-0.0364483,-0.3649851,0.0292321\Quadrupo

 Normal termination of Gaussian 16 at Wed Apr  9 15:42:32 2025.
