 Gaussian 16, Revision C.01,

 ----------------------------------------------------------------------
 #t hf aug-cc-pvdz symm=none int=(grid=ultrafine) guess=(read,tcheck) s
 table=(opt,rrhf)
 ----------------------------------------------------------------------
 -----
 title
 -----
 Symbolic Z-matrix:
 Charge =  0 Multiplicity = 1

 SCF Done:  E(RHF) =  -287.962893229     A.U. after   16 cycles

 1\1\GINC-SE219\Stability\RHF\Aug-CC-pVDZ\C6H11N1\OHZDE\09-Apr-2025\0\\
 #t hf aug-cc-pvdz symm=none int=(grid=ultrafine) guess=(read,tcheck) s
 table=(opt,rrhf)\\title\\0,1\C,0,2.82040622,-0.36779941,0.63028339\C,0
 ,1.47476202,0.22782662,0.11938828\C,0,0.60423901,0.10774387,1.2921921\
 C,0,-1.89653945,1.19945623,-0.61983965\C,0,-2.28737933,-0.19886395,-1.
 0755485\C,0,-0.00620834,-1.13370314,1.47403282\N,0,-0.56363329,-2.1207
 7619,1.72643454\H,0,3.15853955,0.13097229,1.53782534\H,0,3.56617217,-0
 .21342434,-0.14842212\H,0,2.73265996,-1.43627876,0.82464942\H,0,1.1565

 Normal termination of Gaussian 16 at Wed Apr  9 18:24:38 2025.
 Gaussian 16:  ES64L-G16RevC.01  3-Jul-2019

 ----------------------------------------------------------------------
 #t hf aug-cc-pvdz iop(5/13=1,5/36=2,99/5=2) pseudo=read geom=check gue
 ss=(read,tcheck) scf=(maxcycle=1)
 ----------------------------------------------------------------------
 -----
 title
 -----
 Structure from the checkpoint file:  "Grambow2020_wb97xd3_007526_reverse_mol2.chk"
 Charge =  0 Multiplicity = 1

                         Standard orientation:
 ---------------------------------------------------------------------
 Center     Atomic      Atomic             Coordinates (Angstroms)
 Number     Number       Type             X           Y           Z
 ---------------------------------------------------------------------
      1          6           0        2.708402   -0.770365    0.338798
      2          6           0        1.185907   -1.018127    0.121618
      3          6           0        0.821763    0.033965   -0.831377
      4          6           0       -2.344751   -0.948188   -0.499475
      5          6           0       -2.615250   -0.009741    0.667519
      6          6           0        0.546641    1.286442   -0.281367
      7          7           0        0.299767    2.367854    0.062645
      8          1           0        3.250390   -0.763765   -0.606160
      9          1           0        3.090960   -1.585190    0.952060
     10          1           0        2.886946    0.171576    0.856480
     11          1           0        0.685296   -0.961970    1.093269
     12          1           0        1.057442   -2.007589   -0.316014
     13          1           0       -1.537209   -0.580924   -1.142328
     14          1           0       -2.064476   -1.946771   -0.157061
     15          1           0       -3.225065   -1.053621   -1.135949
     16          1           0       -3.449530   -0.365691    1.274686
     17          1           0       -1.748580    0.079505    1.326555
     18          1           0       -2.860810    0.995552    0.321651
 ---------------------------------------------------------------------

 SCF Done:  E(RHF) =  -288.266236108     A.U. after    2 cycles

 The electronic state is 1-A.
 Alpha  occ. eigenvalues --  -15.54391 -11.32341 -11.29202 -11.27506 -11.26778
 Alpha  occ. eigenvalues --  -11.22934 -11.22559  -1.25305  -1.12019  -1.02873
 Alpha  occ. eigenvalues --   -0.97466  -0.86942  -0.84947  -0.69238  -0.65965
 Alpha  occ. eigenvalues --   -0.63058  -0.61269  -0.60890  -0.56825  -0.56251
 Alpha  occ. eigenvalues --   -0.55945  -0.53177  -0.52871  -0.51521  -0.49783
 Alpha  occ. eigenvalues --   -0.49658  -0.39357
 Alpha virt. eigenvalues --   -0.00697   0.03056   0.03606   0.03783   0.04322
 Alpha virt. eigenvalues --    0.05357   0.05945   0.06373   0.07524   0.08401
 Alpha virt. eigenvalues --    0.09072   0.09733   0.10305   0.12122   0.13156

 Mulliken charges:
               1
     1  C   -0.478402
     2  C   -0.044191
     3  C    0.071237
     4  C   -0.286127
     5  C   -0.473948
     6  C   -1.297073
     7  N    0.896413
     8  H    0.209961
     9  H    0.146524
    10  H    0.197846
    11  H    0.149898
    12  H    0.080100
    13  H    0.145570
    14  H    0.141451
    15  H    0.093012
    16  H    0.070498
    17  H    0.178936
    18  H    0.198294
 Sum of Mulliken charges =  -0.00000

 Dipole moment (field-independent basis, Debye):
    X=              1.3194    Y=             -4.0332    Z=              1.0420  Tot=              4.3696

 Test job not archived.
 1\1\GINC-SE219\SP\RHF\Aug-CC-pVDZ\C6H11N1\OHZDE\09-Apr-2025\0\\#t hf a
 ug-cc-pvdz iop(5/13=1,5/36=2,99/5=2) pseudo=read geom=check guess=(rea
 d,tcheck) scf=(maxcycle=1)\\title\\0,1\C,0,2.82040622,-0.36779941,0.63
 028339\C,0,1.47476202,0.22782662,0.11938828\C,0,0.60423901,0.10774387,
 1.2921921\C,0,-1.89653945,1.19945623,-0.61983965\C,0,-2.28737933,-0.19
 886395,-1.0755485\C,0,-0.00620834,-1.13370314,1.47403282\N,0,-0.563633
 29,-2.12077619,1.72643454\H,0,3.15853955,0.13097229,1.53782534\H,0,3.5
 6617217,-0.21342434,-0.14842212\H,0,2.73265996,-1.43627876,0.82464942\

 Normal termination of Gaussian 16 at Wed Apr  9 18:24:44 2025.
