 Gaussian 16, Revision C.01,

 ----------------------------------------------------------------------
 #t hf aug-cc-pvdz symm=none int=(grid=ultrafine) guess=(read,tcheck) s
 table=(opt,rrhf)
 ----------------------------------------------------------------------
 -----
 title
 -----
 Symbolic Z-matrix:
 Charge =  0 Multiplicity = 1

 SCF Done:  E(RHF) =  -306.507204513     A.U. after   18 cycles
 Normal termination of Gaussian 16 at Wed Apr  9 04:05:54 2025.
 Gaussian 16:  ES64L-G16RevC.01  3-Jul-2019

 ----------------------------------------------------------------------
 #t hf aug-cc-pvdz iop(5/13=1,5/36=2,99/5=2) pseudo=read geom=check gue
 ss=(read,tcheck) scf=(maxcycle=1)
 ----------------------------------------------------------------------
 -----
 title
 -----
 Structure from the checkpoint file:  "Grambow2020_wb97xd3_009209_forward_mol1.chk"
 Charge =  0 Multiplicity = 1

                         Standard orientation:
 ---------------------------------------------------------------------
 Center     Atomic      Atomic             Coordinates (Angstroms)
 Number     Number       Type             X           Y           Z
 ---------------------------------------------------------------------
      1          6           0       -3.392103   -0.466276    0.056888
      2          6           0       -2.194136    0.217968   -0.458635
      3          6           0       -1.067738    0.572081    0.038643
      4          6           0        0.306374    0.729210    0.183195
      5          6           0        1.280342   -0.298143   -0.216825
      6          6           0        2.669033    0.069420   -0.518855
      7          8           0        2.345533   -0.584931    0.688163
      8          1           0       -4.298080    0.094035   -0.180058
      9          1           0       -3.483458   -1.415667   -0.479540
     10          1           0       -3.374577   -0.689581    1.130260
     11          1           0       -0.967594    0.725858    1.188492
     12          1           0        0.685391    1.605424    0.697407
     13          1           0        0.860971   -1.172278   -0.705718
     14          1           0        3.225330   -0.521019   -1.241797
     15          1           0        2.977124    1.107106   -0.420811
 ---------------------------------------------------------------------

 SCF Done:  E(RHF) =  -306.824694967     A.U. after    2 cycles

 The electronic state is 1-A.
 Alpha  occ. eigenvalues --  -20.57696 -11.31405 -11.30930 -11.30545 -11.25247
 Alpha  occ. eigenvalues --  -11.24216 -11.23403  -1.51820  -1.12114  -1.02970
 Alpha  occ. eigenvalues --   -0.96177  -0.91376  -0.85759  -0.76213  -0.70105
 Alpha  occ. eigenvalues --   -0.66409  -0.61728  -0.60979  -0.58237  -0.57234
 Alpha  occ. eigenvalues --   -0.56361  -0.52919  -0.48436  -0.46085  -0.38569
 Alpha  occ. eigenvalues --   -0.28472
 Alpha virt. eigenvalues --    0.02800   0.03513   0.03606   0.04930   0.05345
 Alpha virt. eigenvalues --    0.05468   0.06025   0.07925   0.08291   0.09069
 Alpha virt. eigenvalues --    0.11187   0.11521   0.11891   0.13613   0.14057

 Mulliken charges:
               1
     1  C   -0.592937
     2  C   -0.750091
     3  C    0.729527
     4  C   -0.063283
     5  C    1.108213
     6  C    0.234350
     7  O   -1.263967
     8  H    0.214309
     9  H    0.237705
    10  H    0.089700
    11  H    0.314278
    12  H   -0.162477
    13  H   -0.093319
    14  H    0.016003
    15  H   -0.018011
 Sum of Mulliken charges =  -0.00000

 Dipole moment (field-independent basis, Debye):
    X=              0.9703    Y=              0.1384    Z=              0.2991  Tot=              1.0247

 Test job not archived.
 1\1\GINC-SE045\SP\RHF\Aug-CC-pVDZ\C6H8O1\OHZDE\09-Apr-2025\0\\#t hf au
 g-cc-pvdz iop(5/13=1,5/36=2,99/5=2) pseudo=read geom=check guess=(read
 ,tcheck) scf=(maxcycle=1)\\title\\0,1\C,0,2.70567799,-0.58429521,-1.63
 172978\C,0,1.83395266,-0.66693632,-0.44752428\C,0,0.95165901,0.0951105
 1,0.08379244\C,0,-0.25122857,0.50945569,0.64517248\C,0,-1.56033948,-0.
 00269951,0.21157337\C,0,-2.71825268,0.05528344,1.11194166\O,0,-2.60984
 244,0.94539849,0.0230608\H,0,3.74403924,-0.79671725,-1.3717906\H,0,2.4
 0382842,-1.3821923,-2.31707023\H,0,2.65626992,0.36370019,-2.18051419\H

 Normal termination of Gaussian 16 at Wed Apr  9 04:05:59 2025.
