 Gaussian 16, Revision C.01,

 ----------------------------------------------------------------------
 #t hf aug-cc-pvdz symm=none int=(grid=ultrafine) guess=(read,tcheck) s
 table=(opt,rrhf)
 ----------------------------------------------------------------------
 -----
 title
 -----
 Symbolic Z-matrix:
 Charge =  0 Multiplicity = 1

 SCF Done:  E(RHF) =  -305.321184168     A.U. after   18 cycles
 Normal termination of Gaussian 16 at Wed Apr  9 03:53:36 2025.
 Gaussian 16:  ES64L-G16RevC.01  3-Jul-2019

 ----------------------------------------------------------------------
 #t hf aug-cc-pvdz iop(5/13=1,5/36=2,99/5=2) pseudo=read geom=check gue
 ss=(read,tcheck) scf=(maxcycle=1)
 ----------------------------------------------------------------------
 -----
 title
 -----
 Structure from the checkpoint file:  "Grambow2020_wb97xd3_008345_reverse_mol1.chk"
 Charge =  0 Multiplicity = 1

                         Standard orientation:
 ---------------------------------------------------------------------
 Center     Atomic      Atomic             Coordinates (Angstroms)
 Number     Number       Type             X           Y           Z
 ---------------------------------------------------------------------
      1          8           0        0.654268   -1.277659    0.432172
      2          6           0       -0.385063    0.410622    0.683875
      3          6           0        0.468363    1.417570    0.062675
      4          6           0        1.676930    0.653035   -0.561762
      5          6           0        1.688080   -0.639401   -0.372151
      6          6           0       -1.600694    0.018916    0.064779
      7          6           0       -2.642549   -0.250406   -0.466099
      8          1           0        0.167330   -1.915143   -0.108511
      9          1           0       -0.315734    0.230067    1.748471
     10          1           0        0.864095    2.116594    0.797512
     11          1           0       -0.044455    1.961865   -0.727940
     12          1           0        2.434137   -1.353547   -0.698194
     13          1           0       -3.569914   -0.480582   -0.936607
 ---------------------------------------------------------------------

 SCF Done:  E(RHF) =  -305.631439545     A.U. after    2 cycles

 The electronic state is 1-A.
 Alpha  occ. eigenvalues --  -20.60054 -11.39042 -11.30149 -11.29235 -11.25559
 Alpha  occ. eigenvalues --  -11.24200 -11.17692  -1.48455  -1.14416  -1.06701
 Alpha  occ. eigenvalues --   -0.98629  -0.89629  -0.78502  -0.74344  -0.73947
 Alpha  occ. eigenvalues --   -0.70071  -0.65338  -0.59473  -0.57065  -0.54236
 Alpha  occ. eigenvalues --   -0.52890  -0.45646  -0.44945  -0.33257  -0.28814
 Alpha virt. eigenvalues --    0.01809   0.02134   0.03246   0.04051   0.05145
 Alpha virt. eigenvalues --    0.06234   0.06604   0.08911   0.09597   0.09979
 Alpha virt. eigenvalues --    0.11321   0.12124   0.12501   0.13824   0.13868

 Mulliken charges:
               1
     1  O   -1.200220
     2  C    0.389060
     3  C   -0.474726
     4  C   -0.455839
     5  C    0.885140
     6  C    0.260426
     7  C    0.364038
     8  H    0.436258
     9  H   -0.108078
    10  H    0.229851
    11  H    0.150891
    12  H   -0.091184
    13  H   -0.385616
 Sum of Mulliken charges =  -0.00000

 Dipole moment (field-independent basis, Debye):
    X=             -6.1995    Y=             -1.8350    Z=              1.7820  Tot=              6.7065

 Test job not archived.
 1\1\GINC-SE412\SP\RHF\Aug-CC-pVDZ\C6H6O1\OHZDE\09-Apr-2025\0\\#t hf au
 g-cc-pvdz iop(5/13=1,5/36=2,99/5=2) pseudo=read geom=check guess=(read
 ,tcheck) scf=(maxcycle=1)\\title\\0,1\O,0,-0.59466593,0.17022647,1.454
 90694\C,0,0.51092727,-0.67084533,0.01820278\C,0,-0.44964242,-0.8698396
 5,-1.06155406\C,0,-1.79301883,-0.2347714,-0.58500656\C,0,-1.78397403,0
 .27142619,0.61921536\C,0,1.52204011,0.31889428,-0.09376724\C,0,2.38998
 239,1.13320098,-0.24676782\H,0,-0.27398816,1.05605957,1.67467684\H,0,0
 .70876491,-1.47360349,0.7162087\H,0,-0.63173045,-1.92710889,-1.2466234

 Normal termination of Gaussian 16 at Wed Apr  9 03:53:40 2025.
