 Gaussian 16, Revision C.01,

 ----------------------------------------------------------------------
 #t hf aug-cc-pvdz symm=none int=(grid=ultrafine) guess=(read,tcheck) s
 table=(opt,rrhf)
 ----------------------------------------------------------------------
 -----
 title
 -----
 Symbolic Z-matrix:
 Charge =  0 Multiplicity = 1

 SCF Done:  E(RHF) =  -283.578955686     A.U. after   15 cycles
 Normal termination of Gaussian 16 at Wed Apr  9 16:29:44 2025.
 Gaussian 16:  ES64L-G16RevC.01  3-Jul-2019

 ----------------------------------------------------------------------
 #t hf aug-cc-pvdz iop(5/13=1,5/36=2,99/5=2) pseudo=read geom=check gue
 ss=(read,tcheck) scf=(maxcycle=1)
 ----------------------------------------------------------------------
 -----
 title
 -----
 Structure from the checkpoint file:  "Grambow2020_wb97xd3_006132_forward_mol1.chk"
 Charge =  0 Multiplicity = 1

                         Standard orientation:
 ---------------------------------------------------------------------
 Center     Atomic      Atomic             Coordinates (Angstroms)
 Number     Number       Type             X           Y           Z
 ---------------------------------------------------------------------
      1          7           0        1.848510    0.532905   -0.241308
      2          6           0        1.830216   -0.629129   -0.021832
      3          6           0        0.257463   -0.085048    0.478397
      4          6           0       -0.687049    1.026320    0.003108
      5          8           0       -1.744582    0.064022   -0.116676
      6          6           0       -0.793274   -1.008480   -0.129370
      7          1           0        0.345851   -0.142799    1.556639
      8          1           0       -0.415699    1.451501   -0.965162
      9          1           0       -0.910032    1.815846    0.720752
     10          1           0       -0.549349   -1.325425   -1.146893
     11          1           0       -1.097823   -1.863615    0.475416
 ---------------------------------------------------------------------

 SCF Done:  E(RHF) =  -283.864288090     A.U. after    2 cycles

 The electronic state is 1-A.
 Alpha  occ. eigenvalues --  -20.56589 -15.55911 -11.33755 -11.31973 -11.31869
 Alpha  occ. eigenvalues --  -11.28249  -1.49955  -1.30073  -1.04940  -0.97074
 Alpha  occ. eigenvalues --   -0.81959  -0.73089  -0.71551  -0.69082  -0.62442
 Alpha  occ. eigenvalues --   -0.60305  -0.59752  -0.54686  -0.53063  -0.49360
 Alpha  occ. eigenvalues --   -0.47107  -0.43837
 Alpha virt. eigenvalues --    0.03466   0.04136   0.04422   0.05525   0.06323
 Alpha virt. eigenvalues --    0.08242   0.08881   0.09465   0.10619   0.11750
 Alpha virt. eigenvalues --    0.13080   0.13971   0.14667   0.15010   0.15504

 Mulliken charges:
               1
     1  N    0.422967
     2  C   -0.633659
     3  C   -0.483822
     4  C    0.675602
     5  O   -1.242345
     6  C    0.789827
     7  H    0.022186
     8  H    0.126006
     9  H    0.090428
    10  H    0.132272
    11  H    0.100539
 Sum of Mulliken charges =   0.00000

 Dipole moment (field-independent basis, Debye):
    X=             -1.1914    Y=             -0.3448    Z=              1.0129  Tot=              1.6013

 Test job not archived.
 1\1\GINC-SE226\SP\RHF\Aug-CC-pVDZ\C4H5N1O1\OHZDE\09-Apr-2025\0\\#t hf
 aug-cc-pvdz iop(5/13=1,5/36=2,99/5=2) pseudo=read geom=check guess=(re
 ad,tcheck) scf=(maxcycle=1)\\title\\0,1\N,0,1.67508251,-1.03823273,0.7
 7841029\C,0,2.07789626,-0.30899729,-0.06110397\C,0,0.36263811,-0.35499
 712,-0.33601767\C,0,-0.85920058,-0.51957836,0.57676011\O,0,-1.43007076
 ,0.66949973,0.01200831\C,0,-0.14600893,1.07568037,-0.47953109\H,0,0.30
 83056,-0.95061767,-1.23936581\H,0,-0.63634338,-0.39624161,1.63840047\H
 ,0,-1.47343348,-1.40505456,0.41324835\H,0,0.34739407,1.77683316,0.1988

 Normal termination of Gaussian 16 at Wed Apr  9 16:29:47 2025.
