 Gaussian 16, Revision C.01,

 ----------------------------------------------------------------------
 #t hf aug-cc-pvdz symm=none int=(grid=ultrafine) guess=(read,tcheck) s
 table=(opt,rrhf)
 ----------------------------------------------------------------------
 -----
 title
 -----
 Symbolic Z-matrix:
 Charge =  0 Multiplicity = 1

 SCF Done:  E(RHF) =  -271.061488615     A.U. after   15 cycles

 1\1\GINC-SE043\Stability\RHF\Aug-CC-pVDZ\C5H12O1\OHZDE\09-Apr-2025\0\\
 #t hf aug-cc-pvdz symm=none int=(grid=ultrafine) guess=(read,tcheck) s
 table=(opt,rrhf)\\title\\0,1\C,0,-0.94862311,1.27163245,-0.23605966\C,
 0,-0.3269663,-0.11171957,-0.08493441\C,0,-0.94123208,-1.1412566,-1.023
 76417\C,0,-0.24659028,-0.55714957,1.35643022\C,0,1.99646575,0.06568044
 ,-0.48515152\O,0,2.40362334,0.85226892,0.56252599\H,0,-0.95837975,1.60
 40268,-1.28474223\H,0,-0.41299426,2.02031825,0.36628151\H,0,-1.9957485
 6,1.25655083,0.11499488\H,0,-0.91009007,-0.80804621,-2.07184905\H,0,-0

 Normal termination of Gaussian 16 at Wed Apr  9 15:55:12 2025.
 Gaussian 16:  ES64L-G16RevC.01  3-Jul-2019

 ----------------------------------------------------------------------
 #t hf aug-cc-pvdz iop(5/13=1,5/36=2,99/5=2) pseudo=read geom=check gue
 ss=(read,tcheck) scf=(maxcycle=1)
 ----------------------------------------------------------------------
 -----
 title
 -----
 Structure from the checkpoint file:  "Grambow2020_b97d3_006881_forward_mol1.chk"
 Charge =  0 Multiplicity = 1

                         Standard orientation:
 ---------------------------------------------------------------------
 Center     Atomic      Atomic             Coordinates (Angstroms)
 Number     Number       Type             X           Y           Z
 ---------------------------------------------------------------------
      1          6           0       -0.850923    1.463328   -0.412489
      2          6           0       -0.651219    0.011966    0.007781
      3          6           0       -1.712972   -0.919373   -0.561393
      4          6           0       -0.429528   -0.135991    1.494845
      5          6           0        1.496651   -0.680956   -0.696841
      6          8           0        2.313644    0.117640    0.062695
      7          1           0       -0.964188    1.562362   -1.502296
      8          1           0       -0.011201    2.094777   -0.086325
      9          1           0       -1.766644    1.869595    0.052635
     10          1           0       -1.787636   -0.833128   -1.655682
     11          1           0       -1.506616   -1.969625   -0.312113
     12          1           0       -2.706640   -0.669776   -0.145753
     13          1           0       -1.265350    0.333203    2.048085
     14          1           0       -0.382559   -1.191382    1.794916
     15          1           0        0.498782    0.362196    1.809084
     16          1           0        1.359722   -1.611046   -0.117118
     17          1           0        0.406432   -0.236762   -0.910640
     18          1           0        2.504678    0.914627   -0.467770
 ---------------------------------------------------------------------

 SCF Done:  E(RHF) =  -271.355375951     A.U. after    2 cycles

 The electronic state is 1-A.
 Alpha  occ. eigenvalues --  -20.57493 -11.28891 -11.27730 -11.24037 -11.23889
 Alpha  occ. eigenvalues --  -11.23275  -1.47478  -1.10046  -0.94604  -0.94414
 Alpha  occ. eigenvalues --   -0.89114  -0.76101  -0.68810  -0.62879  -0.62027
 Alpha  occ. eigenvalues --   -0.61740  -0.59836  -0.55741  -0.55057  -0.54276
 Alpha  occ. eigenvalues --   -0.52961  -0.49937  -0.49437  -0.47309  -0.29121
 Alpha virt. eigenvalues --    0.03385   0.03520   0.04006   0.04490   0.06170
 Alpha virt. eigenvalues --    0.06549   0.06639   0.06717   0.07132   0.09306
 Alpha virt. eigenvalues --    0.09709   0.10223   0.11286   0.12797   0.13817

 Mulliken charges:
               1
     1  C   -0.014324
     2  C   -2.564067
     3  C    0.009562
     4  C    0.183955
     5  C    0.336935
     6  O   -1.054029
     7  H    0.159466
     8  H    0.169686
     9  H    0.174533
    10  H    0.147515
    11  H    0.149816
    12  H    0.247935
    13  H    0.246776
    14  H    0.153969
    15  H    0.288456
    16  H    0.095372
    17  H    0.884754
    18  H    0.383689
 Sum of Mulliken charges =  -0.00000

 Dipole moment (field-independent basis, Debye):
    X=             -1.6903    Y=              1.2368    Z=              0.4873  Tot=              2.1504

 Test job not archived.
 1\1\GINC-SE043\SP\RHF\Aug-CC-pVDZ\C5H12O1\OHZDE\09-Apr-2025\0\\#t hf a
 ug-cc-pvdz iop(5/13=1,5/36=2,99/5=2) pseudo=read geom=check guess=(rea
 d,tcheck) scf=(maxcycle=1)\\title\\0,1\C,0,-0.94862311,1.27163245,-0.2
 3605966\C,0,-0.3269663,-0.11171957,-0.08493441\C,0,-0.94123208,-1.1412
 566,-1.02376417\C,0,-0.24659028,-0.55714957,1.35643022\C,0,1.99646575,
 0.06568044,-0.48515152\O,0,2.40362334,0.85226892,0.56252599\H,0,-0.958
 37975,1.6040268,-1.28474223\H,0,-0.41299426,2.02031825,0.36628151\H,0,
 -1.99574856,1.25655083,0.11499488\H,0,-0.91009007,-0.80804621,-2.07184

 Normal termination of Gaussian 16 at Wed Apr  9 15:55:18 2025.
