 Gaussian 16, Revision C.01,

 ----------------------------------------------------------------------
 #t hf aug-cc-pvdz symm=none int=(grid=ultrafine) guess=(read,tcheck) s
 table=(opt,rrhf)
 ----------------------------------------------------------------------
 -----
 title
 -----
 Symbolic Z-matrix:
 Charge =  0 Multiplicity = 1

 SCF Done:  E(RHF) =  -322.424901292     A.U. after   17 cycles
 Normal termination of Gaussian 16 at Wed Apr  9 19:12:01 2025.
 Gaussian 16:  ES64L-G16RevC.01  3-Jul-2019

 ----------------------------------------------------------------------
 #t hf aug-cc-pvdz iop(5/13=1,5/36=2,99/5=2) pseudo=read geom=check gue
 ss=(read,tcheck) scf=(maxcycle=1)
 ----------------------------------------------------------------------
 -----
 title
 -----
 Structure from the checkpoint file:  "Grambow2020_wb97xd3_008890_reverse_mol1.chk"
 Charge =  0 Multiplicity = 1

                         Standard orientation:
 ---------------------------------------------------------------------
 Center     Atomic      Atomic             Coordinates (Angstroms)
 Number     Number       Type             X           Y           Z
 ---------------------------------------------------------------------
      1          8           0       -2.183050    0.158815    0.178371
      2          6           0       -1.006957    0.016261    0.091981
      3          6           0       -0.222629   -1.194197   -0.473882
      4          7           0        1.184017   -0.680520   -0.406265
      5          6           0        0.975775    0.723866   -0.721738
      6          6           0        0.162354    0.946775    0.439684
      7          6           0        1.093930   -0.128322    1.073050
      8          1           0       -0.524920   -1.384583   -1.505315
      9          1           0       -0.331529   -2.111569    0.104248
     10          1           0       -0.204391    1.950439   -1.259061
     11          1           0        1.722403    1.336861   -1.204062
     12          1           0       -0.290489    2.139598   -0.323154
     13          1           0        2.063778    0.256489    1.374332
     14          1           0        0.726592   -0.880411    1.775327
 ---------------------------------------------------------------------

 SCF Done:  E(RHF) =  -322.753121703     A.U. after    2 cycles

 The electronic state is 1-A.
 Alpha  occ. eigenvalues --  -20.55633 -15.55200 -11.36234 -11.35995 -11.30529
 Alpha  occ. eigenvalues --  -11.29737 -11.26839  -1.49813  -1.33775  -1.05427
 Alpha  occ. eigenvalues --   -1.00911  -0.95795  -0.82832  -0.75066  -0.73311
 Alpha  occ. eigenvalues --   -0.68460  -0.66952  -0.64403  -0.59828  -0.57884
 Alpha  occ. eigenvalues --   -0.55352  -0.55260  -0.50951  -0.45797  -0.40030
 Alpha  occ. eigenvalues --   -0.34275
 Alpha virt. eigenvalues --    0.01786   0.03100   0.03903   0.04248   0.05126
 Alpha virt. eigenvalues --    0.05798   0.06231   0.07933   0.08579   0.09753
 Alpha virt. eigenvalues --    0.11509   0.13036   0.13261   0.13562   0.14084

 Mulliken charges:
               1
     1  O   -1.408572
     2  C    1.626343
     3  C   -0.384500
     4  N    0.374183
     5  C   -0.179706
     6  C   -0.341153
     7  C   -0.009605
     8  H    0.140537
     9  H    0.102397
    10  H   -0.015052
    11  H   -0.265309
    12  H    0.381518
    13  H   -0.038323
    14  H    0.017240
 Sum of Mulliken charges =  -0.00000

 Dipole moment (field-independent basis, Debye):
    X=              2.9811    Y=             -1.0972    Z=              0.3377  Tot=              3.1945

 Test job not archived.
 1\1\GINC-SE117\SP\RHF\Aug-CC-pVDZ\C5H7N1O1\OHZDE\09-Apr-2025\0\\#t hf
 aug-cc-pvdz iop(5/13=1,5/36=2,99/5=2) pseudo=read geom=check guess=(re
 ad,tcheck) scf=(maxcycle=1)\\title\\0,1\O,0,-1.55372512,1.41336939,1.2
 1264398\C,0,-0.87196925,0.65084165,0.60870574\C,0,-1.2451922,-0.202062
 46,-0.62977698\N,0,0.07817256,-0.82546464,-0.95713903\C,0,0.98208413,0
 .26235159,-0.61833444\C,0,0.6017686,0.25398574,0.7656925\C,0,0.4264578
 7,-1.27352583,0.51912285\H,0,-1.58796194,0.44586593,-1.43858917\H,0,-2
 .00003286,-0.96496562,-0.44041508\H,0,1.10333573,1.97614647,-0.1344003

 Normal termination of Gaussian 16 at Wed Apr  9 19:12:05 2025.
