 Gaussian 16, Revision C.01,

 ----------------------------------------------------------------------
 #t hf aug-cc-pvdz symm=none int=(grid=ultrafine) guess=(read,tcheck) s
 table=(opt,rrhf)
 ----------------------------------------------------------------------
 -----
 title
 -----
 Symbolic Z-matrix:
 Charge =  0 Multiplicity = 1

 SCF Done:  E(RHF) =  -308.917610393     A.U. after   15 cycles

 1\1\GINC-SE041\Stability\RHF\Aug-CC-pVDZ\C6H12O1\OHZDE\09-Apr-2025\0\\
 #t hf aug-cc-pvdz symm=none int=(grid=ultrafine) guess=(read,tcheck) s
 table=(opt,rrhf)\\title\\0,1\C,0,2.61694194,-0.79961622,0.10929687\O,0
 ,1.21360654,-0.91885965,-0.04471933\C,0,0.49341084,-0.05070002,0.67144
 56\C,0,-0.18607465,1.59603922,-0.45647299\C,0,-1.41060717,1.18284499,0
 .33600621\C,0,-1.01081029,-0.27436135,0.5904109\C,0,-1.4747852,-1.2019
 0596,-0.53089076\H,0,2.88215528,-0.76225398,1.16732832\H,0,2.97503755,
 0.10782698,-0.38694335\H,0,3.06623049,-1.67081761,-0.36488774\H,0,0.75

 Normal termination of Gaussian 16 at Wed Apr  9 18:59:12 2025.
 Gaussian 16:  ES64L-G16RevC.01  3-Jul-2019

 ----------------------------------------------------------------------
 #t hf aug-cc-pvdz iop(5/13=1,5/36=2,99/5=2) pseudo=read geom=check gue
 ss=(read,tcheck) scf=(maxcycle=1)
 ----------------------------------------------------------------------
 -----
 title
 -----
 Structure from the checkpoint file:  "Grambow2020_wb97xd3_008398_reverse_mol1.chk"
 Charge =  0 Multiplicity = 1

                         Standard orientation:
 ---------------------------------------------------------------------
 Center     Atomic      Atomic             Coordinates (Angstroms)
 Number     Number       Type             X           Y           Z
 ---------------------------------------------------------------------
      1          6           0        2.651439   -0.149583    0.015977
      2          8           0        1.362050    0.431399    0.100977
      3          6           0        0.412409   -0.203157   -0.592417
      4          6           0       -0.794234   -1.453527    0.601836
      5          6           0       -1.797823   -0.721194   -0.266916
      6          6           0       -0.936393    0.503952   -0.590900
      7          6           0       -1.094254    1.609491    0.451113
      8          1           0        2.912480   -0.346669   -1.025263
      9          1           0        2.680969   -1.086399    0.581172
     10          1           0        3.351482    0.558937    0.456025
     11          1           0        0.271752   -1.376007   -0.356657
     12          1           0       -0.840827   -2.541354    0.651770
     13          1           0       -0.615296   -1.013501    1.579305
     14          1           0       -2.759483   -0.491855    0.198703
     15          1           0       -1.994592   -1.298629   -1.172687
     16          1           0       -1.128585    0.938449   -1.577293
     17          1           0       -2.096641    2.038712    0.382863
     18          1           0       -0.953722    1.241092    1.468953
     19          1           0       -0.370801    2.410145    0.293133
 ---------------------------------------------------------------------

 SCF Done:  E(RHF) =  -309.249705979     A.U. after    2 cycles

 The electronic state is 1-A.
 Alpha  occ. eigenvalues --  -20.56869 -11.28706 -11.28502 -11.24389 -11.23146
 Alpha  occ. eigenvalues --  -11.22977 -11.21455  -1.50036  -1.12099  -0.98149
 Alpha  occ. eigenvalues --   -0.96165  -0.86805  -0.85384  -0.74478  -0.68413
 Alpha  occ. eigenvalues --   -0.66991  -0.65304  -0.63528  -0.57335  -0.55617
 Alpha  occ. eigenvalues --   -0.54321  -0.54215  -0.51886  -0.50535  -0.47071
 Alpha  occ. eigenvalues --   -0.46690  -0.45388  -0.28028
 Alpha virt. eigenvalues --    0.03549   0.03685   0.03942   0.04076   0.05781
 Alpha virt. eigenvalues --    0.06039   0.06338   0.06806   0.06923   0.08847
 Alpha virt. eigenvalues --    0.09455   0.10253   0.11037   0.12686   0.13504

 Mulliken charges:
               1
     1  C    0.087230
     2  O   -1.390055
     3  C    0.866441
     4  C   -0.270008
     5  C    0.121997
     6  C   -0.793833
     7  C   -0.224674
     8  H    0.194486
     9  H    0.162745
    10  H   -0.015108
    11  H    0.521527
    12  H   -0.055553
    13  H    0.031104
    14  H    0.038188
    15  H    0.115208
    16  H    0.107890
    17  H    0.114636
    18  H    0.219710
    19  H    0.168070
 Sum of Mulliken charges =   0.00000

 Dipole moment (field-independent basis, Debye):
    X=              0.3623    Y=             -0.6079    Z=              0.5645  Tot=              0.9053

 Test job not archived.
 1\1\GINC-SE041\SP\RHF\Aug-CC-pVDZ\C6H12O1\OHZDE\09-Apr-2025\0\\#t hf a
 ug-cc-pvdz iop(5/13=1,5/36=2,99/5=2) pseudo=read geom=check guess=(rea
 d,tcheck) scf=(maxcycle=1)\\title\\0,1\C,0,2.61694194,-0.79961622,0.10
 929687\O,0,1.21360654,-0.91885965,-0.04471933\C,0,0.49341084,-0.050700
 02,0.6714456\C,0,-0.18607465,1.59603922,-0.45647299\C,0,-1.41060717,1.
 18284499,0.33600621\C,0,-1.01081029,-0.27436135,0.5904109\C,0,-1.47478
 52,-1.20190596,-0.53089076\H,0,2.88215528,-0.76225398,1.16732832\H,0,2
 .97503755,0.10782698,-0.38694335\H,0,3.06623049,-1.67081761,-0.3648877

 Normal termination of Gaussian 16 at Wed Apr  9 18:59:20 2025.
