 Gaussian 16, Revision C.01,

 ----------------------------------------------------------------------
 #t hf aug-cc-pvdz symm=none int=(grid=ultrafine) guess=(read,tcheck) s
 table=(opt,rrhf)
 ----------------------------------------------------------------------
 -----
 title
 -----
 Symbolic Z-matrix:
 Charge =  0 Multiplicity = 1

 SCF Done:  E(RHF) =  -318.916387401     A.U. after   13 cycles
 Normal termination of Gaussian 16 at Wed Apr  9 17:59:34 2025.
 Gaussian 16:  ES64L-G16RevC.01  3-Jul-2019

 ----------------------------------------------------------------------
 #t hf aug-cc-pvdz iop(5/13=1,5/36=2,99/5=2) pseudo=read geom=check gue
 ss=(read,tcheck) scf=(maxcycle=1)
 ----------------------------------------------------------------------
 -----
 title
 -----
 Structure from the checkpoint file:  "Grambow2020_wb97xd3_006919_forward_mol2.chk"
 Charge =  0 Multiplicity = 1

                         Standard orientation:
 ---------------------------------------------------------------------
 Center     Atomic      Atomic             Coordinates (Angstroms)
 Number     Number       Type             X           Y           Z
 ---------------------------------------------------------------------
      1          7           0        2.485201   -0.426419   -0.002618
      2          6           0        1.098906   -0.154169    0.000104
      3          6           0       -0.016801   -0.956857   -0.012840
      4          6           0       -1.152443   -0.103000   -0.011005
      5          7           0       -2.487493   -0.534931   -0.085944
      6          6           0       -0.692464    1.189464    0.004466
      7          7           0        0.682813    1.136256    0.005662
      8          1           0        2.789498   -0.858052    0.858474
      9          1           0        2.747431   -1.027557   -0.770123
     10          1           0       -0.019192   -2.036376   -0.028335
     11          1           0       -3.144953    0.175835    0.193589
     12          1           0       -2.650209   -1.372908    0.450390
     13          1           0       -1.223221    2.126859    0.001537
     14          1           0        1.313812    1.915233   -0.009589
 ---------------------------------------------------------------------

 SCF Done:  E(RHF) =  -319.251027126     A.U. after    2 cycles

 The electronic state is 1-A.
 Alpha  occ. eigenvalues --  -15.52895 -15.50358 -15.49114 -11.28418 -11.24799
 Alpha  occ. eigenvalues --  -11.23294 -11.20252  -1.29664  -1.19516  -1.17821
 Alpha  occ. eigenvalues --   -1.02967  -0.95977  -0.81413  -0.79423  -0.75092
 Alpha  occ. eigenvalues --   -0.70833  -0.69655  -0.64326  -0.62087  -0.60469
 Alpha  occ. eigenvalues --   -0.58984  -0.54291  -0.50372  -0.46452  -0.34119
 Alpha  occ. eigenvalues --   -0.28999
 Alpha virt. eigenvalues --    0.03151   0.03940   0.04469   0.05258   0.05989
 Alpha virt. eigenvalues --    0.06389   0.08558   0.10666   0.10927   0.12132
 Alpha virt. eigenvalues --    0.12831   0.13187   0.13976   0.14492   0.16521

 Mulliken charges:
               1
     1  N    0.759721
     2  C   -2.571469
     3  C    1.082657
     4  C   -1.172789
     5  N    0.672385
     6  C    0.252046
     7  N    0.718438
     8  H    0.359038
     9  H    0.347708
    10  H   -0.250067
    11  H    0.035532
    12  H    0.085560
    13  H   -0.243217
    14  H   -0.075545
 Sum of Mulliken charges =   0.00000

 Dipole moment (field-independent basis, Debye):
    X=              0.5525    Y=             -0.2637    Z=              1.3047  Tot=              1.4412

 Test job not archived.
 1\1\GINC-SE162\SP\RHF\Aug-CC-pVDZ\C4H7N3\OHZDE\09-Apr-2025\0\\#t hf au
 g-cc-pvdz iop(5/13=1,5/36=2,99/5=2) pseudo=read geom=check guess=(read
 ,tcheck) scf=(maxcycle=1)\\title\\0,1\N,0,-2.51526254,-0.27649071,-0.0
 3067722\C,0,-1.1213291,-0.04860478,0.00031915\C,0,-0.03626307,-0.87843
 731,0.15291935\C,0,1.12793578,-0.06511929,0.10916931\N,0,2.44250609,-0
 .52644599,0.2925344\C,0,0.71503342,1.23093862,-0.06979047\N,0,-0.65998
 389,1.21984892,-0.12831416\H,0,-2.79795174,-0.79212144,-0.85201384\H,0
 ,-2.83081612,-0.77988273,0.78554499\H,0,-0.07272024,-1.94904047,0.2874

 Normal termination of Gaussian 16 at Wed Apr  9 17:59:39 2025.
