 Gaussian 16, Revision C.01,

 ----------------------------------------------------------------------
 #t hf aug-cc-pvdz symm=none int=(grid=ultrafine) guess=(read,tcheck) s
 table=(opt,rrhf)
 ----------------------------------------------------------------------
 -----
 title
 -----
 Symbolic Z-matrix:
 Charge =  0 Multiplicity = 1

 SCF Done:  E(RHF) =  -302.767588379     A.U. after   16 cycles
 Normal termination of Gaussian 16 at Wed Apr  9 19:13:06 2025.
 Gaussian 16:  ES64L-G16RevC.01  3-Jul-2019

 ----------------------------------------------------------------------
 #t hf aug-cc-pvdz iop(5/13=1,5/36=2,99/5=2) pseudo=read geom=check gue
 ss=(read,tcheck) scf=(maxcycle=1)
 ----------------------------------------------------------------------
 -----
 title
 -----
 Structure from the checkpoint file:  "Grambow2020_wb97xd3_008911_forward_mol1.chk"
 Charge =  0 Multiplicity = 1

                         Standard orientation:
 ---------------------------------------------------------------------
 Center     Atomic      Atomic             Coordinates (Angstroms)
 Number     Number       Type             X           Y           Z
 ---------------------------------------------------------------------
      1          6           0        0.835463    1.588731    0.571906
      2          7           0        0.286579    0.604011   -0.383100
      3          6           0       -1.141939    0.782991   -0.553795
      4          6           0       -1.747737   -0.267833    0.029982
      5          6           0       -0.788359   -1.246799    0.499792
      6          6           0        0.430147   -0.784477    0.093941
      7          7           0        1.653672   -1.055339   -0.337081
      8          1           0        1.874966    1.331225    0.772874
      9          1           0        0.785277    2.579255    0.120641
     10          1           0        0.254056    1.576251    1.494997
     11          1           0       -1.533165    1.716668   -0.921673
     12          1           0       -2.821163   -0.380062    0.102804
     13          1           0       -1.013432   -2.241912    0.843925
     14          1           0        2.058655   -1.968940   -0.221910
     15          1           0        1.287600    0.111129   -1.001353
 ---------------------------------------------------------------------

 SCF Done:  E(RHF) =  -303.084318411     A.U. after    2 cycles

 The electronic state is 1-A.
 Alpha  occ. eigenvalues --  -15.56055 -15.46647 -11.31510 -11.27966 -11.25380
 Alpha  occ. eigenvalues --  -11.25135 -11.20509  -1.32587  -1.16720  -1.08649
 Alpha  occ. eigenvalues --   -0.95863  -0.94940  -0.83517  -0.77015  -0.73261
 Alpha  occ. eigenvalues --   -0.68298  -0.64888  -0.62046  -0.60107  -0.57611
 Alpha  occ. eigenvalues --   -0.55909  -0.53179  -0.48975  -0.46792  -0.41641
 Alpha  occ. eigenvalues --   -0.27608
 Alpha virt. eigenvalues --    0.03453   0.04121   0.04223   0.04909   0.05476
 Alpha virt. eigenvalues --    0.05608   0.07016   0.07487   0.09751   0.11190
 Alpha virt. eigenvalues --    0.11989   0.13607   0.14156   0.14383   0.14559

 Mulliken charges:
               1
     1  C   -0.377879
     2  N    0.522917
     3  C   -0.468155
     4  C    0.424438
     5  C    0.710998
     6  C   -2.044921
     7  N    0.611382
     8  H    0.128547
     9  H    0.137674
    10  H    0.252896
    11  H   -0.303385
    12  H   -0.127544
    13  H   -0.176366
    14  H    0.006911
    15  H    0.702485
 Sum of Mulliken charges =  -0.00000

 Dipole moment (field-independent basis, Debye):
    X=             -0.6874    Y=              1.4075    Z=              0.4510  Tot=              1.6300

 Test job not archived.
 1\1\GINC-SE212\SP\RHF\Aug-CC-pVDZ\C5H8N2\OHZDE\09-Apr-2025\0\\#t hf au
 g-cc-pvdz iop(5/13=1,5/36=2,99/5=2) pseudo=read geom=check guess=(read
 ,tcheck) scf=(maxcycle=1)\\title\\0,1\C,0,-1.1629402,-1.10948661,0.608
 24972\N,0,-0.32734077,-0.45179136,-0.41751586\C,0,1.02117516,-0.984056
 2,-0.41177202\C,0,1.82749343,-0.02128696,0.07293711\C,0,1.11001007,1.2
 1800131,0.29403529\C,0,-0.15558608,0.99128373,-0.16431066\N,0,-1.24391
 799,1.46419093,-0.75427024\H,0,-2.11791937,-0.58748758,0.66114259\H,0,
 -1.32872509,-2.14518041,0.31303686\H,0,-0.65797509,-1.07988541,1.57490

 Normal termination of Gaussian 16 at Wed Apr  9 19:13:11 2025.
