 Gaussian 16, Revision C.01,

 ----------------------------------------------------------------------
 #t hf aug-cc-pvdz symm=none int=(grid=ultrafine) guess=(read,tcheck) s
 table=(opt,rrhf)
 ----------------------------------------------------------------------
 -----
 title
 -----
 Symbolic Z-matrix:
 Charge =  0 Multiplicity = 1

 SCF Done:  E(RHF) =  -343.575878766     A.U. after   15 cycles
 Normal termination of Gaussian 16 at Wed Apr  9 17:32:36 2025.
 Gaussian 16:  ES64L-G16RevC.01  3-Jul-2019

 ----------------------------------------------------------------------
 #t hf aug-cc-pvdz iop(5/13=1,5/36=2,99/5=2) pseudo=read geom=check gue
 ss=(read,tcheck) scf=(maxcycle=1)
 ----------------------------------------------------------------------
 -----
 title
 -----
 Structure from the checkpoint file:  "Grambow2020_wb97xd3_006721_forward_mol1.chk"
 Charge =  0 Multiplicity = 1

                         Standard orientation:
 ---------------------------------------------------------------------
 Center     Atomic      Atomic             Coordinates (Angstroms)
 Number     Number       Type             X           Y           Z
 ---------------------------------------------------------------------
      1          8           0        2.494951    0.231702   -0.205555
      2          6           0        1.427134   -0.680125   -0.090907
      3          6           0        0.251735   -0.045721    0.622012
      4          8           0       -0.255196    1.118821   -0.077505
      5          6           0       -1.594787    0.702321   -0.042109
      6          6           0       -1.665481   -0.664931   -0.647597
      7          6           0       -1.039229   -0.893321    0.707927
      8          1           0        2.167178    1.009933   -0.663779
      9          1           0        1.125458   -1.056496   -1.075268
     10          1           0        1.788777   -1.525744    0.496715
     11          1           0        0.576101    0.288376    1.611495
     12          1           0       -2.356296    1.459264   -0.213000
     13          1           0       -1.054245   -0.756140   -1.539980
     14          1           0       -2.655327   -1.097283   -0.757996
     15          1           0       -1.785928    0.364562    1.110322
 ---------------------------------------------------------------------

 SCF Done:  E(RHF) =  -343.927802268     A.U. after    2 cycles

 The electronic state is 1-A.
 Alpha  occ. eigenvalues --  -20.57090 -20.55327 -11.34251 -11.30149 -11.29459
 Alpha  occ. eigenvalues --  -11.28144 -11.25382  -1.50850  -1.45660  -1.13692
 Alpha  occ. eigenvalues --   -1.03233  -0.89724  -0.86765  -0.77047  -0.72131
 Alpha  occ. eigenvalues --   -0.69160  -0.67008  -0.64152  -0.60234  -0.59086
 Alpha  occ. eigenvalues --   -0.56390  -0.55541  -0.50300  -0.49714  -0.45374
 Alpha  occ. eigenvalues --   -0.44491  -0.35138
 Alpha virt. eigenvalues --    0.02980   0.03651   0.04281   0.04589   0.05885
 Alpha virt. eigenvalues --    0.06481   0.06691   0.08928   0.09037   0.10867
 Alpha virt. eigenvalues --    0.11112   0.12888   0.13531   0.14085   0.15027

 Mulliken charges:
               1
     1  O   -1.186037
     2  C    0.763380
     3  C    0.617965
     4  O   -1.403505
     5  C    0.480613
     6  C    0.156278
     7  C   -0.483199
     8  H    0.323444
     9  H    0.105359
    10  H    0.146939
    11  H   -0.059291
    12  H   -0.034343
    13  H    0.036794
    14  H   -0.033324
    15  H    0.568929
 Sum of Mulliken charges =  -0.00000

 Dipole moment (field-independent basis, Debye):
    X=             -2.0920    Y=              0.7830    Z=             -1.5771  Tot=              2.7344

 Test job not archived.
 1\1\GINC-SE226\SP\RHF\Aug-CC-pVDZ\C5H8O2\OHZDE\09-Apr-2025\0\\#t hf au
 g-cc-pvdz iop(5/13=1,5/36=2,99/5=2) pseudo=read geom=check guess=(read
 ,tcheck) scf=(maxcycle=1)\\title\\0,1\O,0,2.46106487,0.76720693,0.7812
 1582\C,0,1.67269504,0.17700353,-0.22622616\C,0,0.46970708,-0.52140235,
 0.37154673\O,0,-0.38799832,0.38794835,1.10631371\C,0,-1.56942358,-0.02
 991612,0.47476663\C,0,-1.37131737,0.10514999,-1.00290104\C,0,-0.552540
 17,-1.10824236,-0.62996532\H,0,1.89955025,1.36839609,1.27752378\H,0,1.
 35924569,0.92260721,-0.96612871\H,0,2.29870309,-0.55888287,-0.73391054

 Normal termination of Gaussian 16 at Wed Apr  9 17:32:41 2025.
