 Gaussian 16, Revision C.01,

 ----------------------------------------------------------------------
 #t hf aug-cc-pvdz symm=none int=(grid=ultrafine) guess=(read,tcheck) s
 table=(opt,rrhf)
 ----------------------------------------------------------------------
 -----
 title
 -----
 Symbolic Z-matrix:
 Charge =  0 Multiplicity = 1

 SCF Done:  E(RHF) =  -315.561898971     A.U. after   17 cycles
 Normal termination of Gaussian 16 at Wed Apr  9 03:09:41 2025.
 Gaussian 16:  ES64L-G16RevC.01  3-Jul-2019

 ----------------------------------------------------------------------
 #t hf aug-cc-pvdz iop(5/13=1,5/36=2,99/5=2) pseudo=read geom=check gue
 ss=(read,tcheck) scf=(maxcycle=1)
 ----------------------------------------------------------------------
 -----
 title
 -----
 Structure from the checkpoint file:  "Grambow2020_b97d3_006682_reverse_mol2.chk"
 Charge =  0 Multiplicity = 1

                         Standard orientation:
 ---------------------------------------------------------------------
 Center     Atomic      Atomic             Coordinates (Angstroms)
 Number     Number       Type             X           Y           Z
 ---------------------------------------------------------------------
      1          8           0        2.418785   -1.005230    0.029435
      2          6           0        1.186092   -0.484428   -0.037364
      3          7           0        0.812144    0.694225    0.069634
      4          7           0        0.155055    1.731974   -0.168164
      5          7           0       -3.212373   -0.381637    0.074719
      6          6           0       -2.099345   -0.697905   -0.073991
      7          1           0        3.103022   -0.298631    0.055885
      8          1           0       -0.197401    2.105511    0.734716
      9          1           0       -1.060173   -0.982973   -0.191276
 ---------------------------------------------------------------------

 SCF Done:  E(RHF) =  -315.864093456     A.U. after    2 cycles

 The electronic state is 1-A.
 Alpha  occ. eigenvalues --  -20.65036 -15.65715 -15.60693 -15.52651 -11.37643
 Alpha  occ. eigenvalues --  -11.28587  -1.55435  -1.41243  -1.22607  -1.18057
 Alpha  occ. eigenvalues --   -0.86969  -0.82947  -0.79728  -0.72914  -0.70516
 Alpha  occ. eigenvalues --   -0.62563  -0.61618  -0.61037  -0.50931  -0.50886
 Alpha  occ. eigenvalues --   -0.47087  -0.41221
 Alpha virt. eigenvalues --   -0.00123   0.03455   0.04161   0.06093   0.07445
 Alpha virt. eigenvalues --    0.08570   0.09720   0.11481   0.11988   0.12855
 Alpha virt. eigenvalues --    0.14529   0.14700   0.15622   0.16776   0.17200

 Mulliken charges:
               1
     1  O   -1.062808
     2  C    0.321182
     3  N   -0.438385
     4  N    0.551212
     5  N    0.647613
     6  C   -0.773315
     7  H    0.347667
     8  H    0.230178
     9  H    0.176655
 Sum of Mulliken charges =  -0.00000

 Dipole moment (field-independent basis, Debye):
    X=              6.2423    Y=              0.2652    Z=              1.0679  Tot=              6.3386

 Test job not archived.
 1\1\GINC-SE435\SP\RHF\Aug-CC-pVDZ\C2H3N3O1\OHZDE\09-Apr-2025\0\\#t hf
 aug-cc-pvdz iop(5/13=1,5/36=2,99/5=2) pseudo=read geom=check guess=(re
 ad,tcheck) scf=(maxcycle=1)\\title\\0,1\O,0,-2.43079301,-0.74462425,-0
 .02152618\C,0,-1.16559943,-0.30957278,-0.09394133\N,0,-0.10052748,-0.9
 2583743,0.06837972\N,0,1.08616574,-1.26919897,-0.12935459\N,0,2.167656
 56,2.56427148,-0.10111231\C,0,1.13183224,2.04472652,-0.23569655\H,0,-2
 .46624946,-1.72421633,0.06393998\H,0,1.58306433,-1.25524225,0.78270115
 \H,0,0.17122251,1.55340001,-0.33926188\\Version=ES64L-G16RevC.01\State

 Normal termination of Gaussian 16 at Wed Apr  9 03:09:44 2025.
