 Gaussian 16, Revision C.01,

 ----------------------------------------------------------------------
 #t hf aug-cc-pvdz symm=none int=(grid=ultrafine) guess=(read,tcheck) s
 table=(opt,rrhf)
 ----------------------------------------------------------------------
 -----
 title
 -----
 Symbolic Z-matrix:
 Charge =  0 Multiplicity = 1

 SCF Done:  E(RHF) =  -245.827401488     A.U. after   15 cycles
 Normal termination of Gaussian 16 at Wed Apr  9 16:17:39 2025.
 Gaussian 16:  ES64L-G16RevC.01  3-Jul-2019

 ----------------------------------------------------------------------
 #t hf aug-cc-pvdz iop(5/13=1,5/36=2,99/5=2) pseudo=read geom=check gue
 ss=(read,tcheck) scf=(maxcycle=1)
 ----------------------------------------------------------------------
 -----
 title
 -----
 Structure from the checkpoint file:  "Grambow2020_b97d3_007187_reverse_mol2.chk"
 Charge =  0 Multiplicity = 1

                         Standard orientation:
 ---------------------------------------------------------------------
 Center     Atomic      Atomic             Coordinates (Angstroms)
 Number     Number       Type             X           Y           Z
 ---------------------------------------------------------------------
      1          8           0       -2.101177   -0.588622   -0.079477
      2          6           0       -1.261859    0.272603   -0.250932
      3          6           0        1.248676    0.353071   -0.220549
      4          6           0       -0.017655    0.444129    0.615022
      5          7           0        2.160210   -0.539818   -0.172049
      6          1           0       -1.343885    1.011983   -1.084990
      7          1           0        1.377115    1.152155   -0.965183
      8          1           0       -0.065969    1.453277    1.061834
      9          1           0       -0.030990   -0.306168    1.415628
     10          1           0        1.936704   -1.242364    0.551624
 ---------------------------------------------------------------------

 SCF Done:  E(RHF) =  -246.075012869     A.U. after    2 cycles

 The electronic state is 1-A.
 Alpha  occ. eigenvalues --  -20.56806 -15.51888 -11.36784 -11.31686 -11.28133
 Alpha  occ. eigenvalues --   -1.48935  -1.23080  -1.05896  -0.85611  -0.82360
 Alpha  occ. eigenvalues --   -0.71196  -0.67305  -0.66409  -0.64449  -0.57413
 Alpha  occ. eigenvalues --   -0.53367  -0.49357  -0.47310  -0.43045
 Alpha virt. eigenvalues --    0.03057   0.03878   0.04440   0.05172   0.06900
 Alpha virt. eigenvalues --    0.07957   0.09587   0.10136   0.11362   0.13104
 Alpha virt. eigenvalues --    0.13901   0.14488   0.14816   0.15246   0.15624

 Mulliken charges:
               1
     1  O   -1.084196
     2  C    1.097312
     3  C   -0.805677
     4  C   -0.596040
     5  N    0.661819
     6  H    0.168555
     7  H   -0.040094
     8  H    0.361288
     9  H    0.096830
    10  H    0.140201
 Sum of Mulliken charges =  -0.00000

 Dipole moment (field-independent basis, Debye):
    X=             -0.2088    Y=              2.7427    Z=              0.9832  Tot=              2.9211

 Test job not archived.
 1\1\GINC-SE043\SP\RHF\Aug-CC-pVDZ\C3H5N1O1\OHZDE\09-Apr-2025\0\\#t hf
 aug-cc-pvdz iop(5/13=1,5/36=2,99/5=2) pseudo=read geom=check guess=(re
 ad,tcheck) scf=(maxcycle=1)\\title\\0,1\O,0,1.21214983,-1.42094744,1.5
 6262962\C,0,0.95742249,-1.07154053,0.42746951\C,0,-0.20516973,0.893810
 84,-0.61941126\C,0,-0.38198509,-0.48800423,-0.01163863\N,0,-0.62974406
 ,2.01087818,-0.16952925\H,0,1.71340914,-1.14828907,-0.39207758\H,0,0.3
 7410052,0.92403921,-1.55377974\H,0,-0.7925234,-1.1579682,-0.7881444\H,
 0,-1.06474466,-0.46978948,0.84719783\H,0,-1.15066703,1.86878069,0.7111

 Normal termination of Gaussian 16 at Wed Apr  9 16:17:42 2025.
