 Gaussian 16, Revision C.01,

 ----------------------------------------------------------------------
 #t hf aug-cc-pvdz symm=none int=(grid=ultrafine) guess=(read,tcheck) s
 table=(opt,rrhf)
 ----------------------------------------------------------------------
 -----
 title
 -----
 Symbolic Z-matrix:
 Charge =  0 Multiplicity = 1

 SCF Done:  E(RHF) =  -373.184926466     A.U. after   17 cycles
 Normal termination of Gaussian 16 at Wed Apr  9 03:28:00 2025.
 Gaussian 16:  ES64L-G16RevC.01  3-Jul-2019

 ----------------------------------------------------------------------
 #t hf aug-cc-pvdz iop(5/13=1,5/36=2,99/5=2) pseudo=read geom=check gue
 ss=(read,tcheck) scf=(maxcycle=1)
 ----------------------------------------------------------------------
 -----
 title
 -----
 Structure from the checkpoint file:  "Grambow2020_wb97xd3_006704_forward_mol1.chk"
 Charge =  0 Multiplicity = 1

                         Standard orientation:
 ---------------------------------------------------------------------
 Center     Atomic      Atomic             Coordinates (Angstroms)
 Number     Number       Type             X           Y           Z
 ---------------------------------------------------------------------
      1          8           0        2.412952    0.111836   -0.317201
      2          6           0        1.277175    0.019051   -0.167919
      3          6           0        0.123164    0.110115    0.855478
      4          7           0       -0.679319    1.157052    0.425887
      5          6           0       -1.453152    0.571231   -0.437373
      6          7           0       -1.165189   -0.760333   -0.626310
      7          8           0       -0.503437   -1.062710    0.573743
      8          1           0        0.122986   -0.445986   -1.079565
      9          1           0       -2.170673    1.073564   -1.070927
 ---------------------------------------------------------------------

 SCF Done:  E(RHF) =  -373.544173190     A.U. after    2 cycles

 The electronic state is 1-A.
 Alpha  occ. eigenvalues --  -20.64776 -20.64391 -15.62812 -15.55013 -11.42744
 Alpha  occ. eigenvalues --  -11.37285 -11.36251  -1.62036  -1.59075  -1.30838
 Alpha  occ. eigenvalues --   -1.18942  -0.99178  -0.89115  -0.84725  -0.77931
 Alpha  occ. eigenvalues --   -0.76391  -0.68937  -0.65269  -0.63605  -0.61168
 Alpha  occ. eigenvalues --   -0.59438  -0.54457  -0.52392  -0.48208  -0.39975
 Alpha virt. eigenvalues --   -0.00244   0.03290   0.05499   0.06323   0.08008
 Alpha virt. eigenvalues --    0.08131   0.08536   0.09158   0.10521   0.10849
 Alpha virt. eigenvalues --    0.12260   0.12990   0.14593   0.15925   0.16066

 Mulliken charges:
               1
     1  O   -0.876000
     2  C    0.867644
     3  C   -0.055921
     4  N    0.650019
     5  C   -0.661192
     6  N    0.780253
     7  O   -1.309520
     8  H    0.646584
     9  H   -0.041866
 Sum of Mulliken charges =  -0.00000

 Dipole moment (field-independent basis, Debye):
    X=             -0.9303    Y=              0.4719    Z=             -1.8124  Tot=              2.0912

 Test job not archived.
 1\1\GINC-SE437\SP\RHF\Aug-CC-pVDZ\C3H2N2O2\OHZDE\09-Apr-2025\0\\#t hf
 aug-cc-pvdz iop(5/13=1,5/36=2,99/5=2) pseudo=read geom=check guess=(re
 ad,tcheck) scf=(maxcycle=1)\\title\\0,1\O,0,-2.60591782,0.26773416,0.0
 1349812\C,0,-1.48325565,0.02761846,-0.03996127\C,0,-0.32635168,-0.4176
 012,-0.96231138\N,0,0.56768126,0.64299039,-0.98362338\C,0,1.28595014,0
 .41567593,0.07450689\N,0,0.87899372,-0.68256348,0.79557474\O,0,0.19191
 135,-1.40844726,-0.18955692\H,0,-0.37524549,-0.10146448,1.02547798\H,0
 ,2.04629618,1.07795648,0.46415524\\Version=ES64L-G16RevC.01\State=1-A\

 Normal termination of Gaussian 16 at Wed Apr  9 03:28:03 2025.
