 Gaussian 16, Revision C.01,

 ----------------------------------------------------------------------
 #t hf aug-cc-pvdz symm=none int=(grid=ultrafine) guess=(read,tcheck) s
 table=(opt,rrhf)
 ----------------------------------------------------------------------
 -----
 title
 -----
 Symbolic Z-matrix:
 Charge =  0 Multiplicity = 1

 SCF Done:  E(RHF) =  -325.075150507     A.U. after   12 cycles
 Normal termination of Gaussian 16 at Wed Apr  9 18:49:45 2025.
 Gaussian 16:  ES64L-G16RevC.01  3-Jul-2019

 ----------------------------------------------------------------------
 #t hf aug-cc-pvdz iop(5/13=1,5/36=2,99/5=2) pseudo=read geom=check gue
 ss=(read,tcheck) scf=(maxcycle=1)
 ----------------------------------------------------------------------
 -----
 title
 -----
 Structure from the checkpoint file:  "Grambow2020_wb97xd3_008103_reverse_mol2.chk"
 Charge =  0 Multiplicity = 1

                         Standard orientation:
 ---------------------------------------------------------------------
 Center     Atomic      Atomic             Coordinates (Angstroms)
 Number     Number       Type             X           Y           Z
 ---------------------------------------------------------------------
      1          6           0        1.816518   -0.231675   -0.149610
      2          6           0        1.072141    1.086286   -0.012717
      3          7           0       -0.284745    0.674723   -0.314610
      4          6           0       -1.289783    1.639683    0.060978
      5          6           0       -0.405388   -0.609841    0.354600
      6          8           0        0.856581   -1.222688    0.189437
      7          6           0       -1.484911   -1.496106   -0.217800
      8          1           0        2.153631   -0.395581   -1.177357
      9          1           0        2.675484   -0.306498    0.520912
     10          1           0       -0.582169   -0.456868    1.440551
     11          1           0        1.420312    1.851726   -0.707985
     12          1           0        1.160083    1.482269    1.014338
     13          1           0       -1.111719    2.577499   -0.466783
     14          1           0       -2.281777    1.285043   -0.221316
     15          1           0       -1.291484    1.850079    1.144731
     16          1           0       -1.458335   -2.470728    0.270026
     17          1           0       -1.321741   -1.626013   -1.287799
     18          1           0       -2.473175   -1.062568   -0.055241
 ---------------------------------------------------------------------

 SCF Done:  E(RHF) =  -325.422843331     A.U. after    2 cycles

 The electronic state is 1-A.
 Alpha  occ. eigenvalues --  -20.53620 -15.48993 -11.30652 -11.27932 -11.25877
 Alpha  occ. eigenvalues --  -11.25754 -11.21906  -1.47159  -1.22905  -1.04892
 Alpha  occ. eigenvalues --   -0.98272  -0.92347  -0.84160  -0.80057  -0.70792
 Alpha  occ. eigenvalues --   -0.68721  -0.64838  -0.62140  -0.61027  -0.57446
 Alpha  occ. eigenvalues --   -0.55619  -0.54429  -0.53136  -0.52390  -0.51263
 Alpha  occ. eigenvalues --   -0.48146  -0.41520  -0.39270
 Alpha virt. eigenvalues --    0.03784   0.04275   0.04336   0.04655   0.05565
 Alpha virt. eigenvalues --    0.05720   0.05892   0.06179   0.07198   0.09549
 Alpha virt. eigenvalues --    0.09833   0.12182   0.12759   0.13980   0.14169

 Mulliken charges:
               1
     1  C    0.627833
     2  C   -0.443182
     3  N    0.682437
     4  C   -0.407651
     5  C    0.174962
     6  O   -1.482333
     7  C   -0.189467
     8  H    0.051094
     9  H    0.044738
    10  H    0.033883
    11  H   -0.012709
    12  H    0.067314
    13  H    0.089325
    14  H    0.054777
    15  H    0.197157
    16  H    0.157307
    17  H    0.189336
    18  H    0.165178
 Sum of Mulliken charges =   0.00000

 Dipole moment (field-independent basis, Debye):
    X=             -0.1919    Y=              1.6956    Z=              0.5877  Tot=              1.8047

 Test job not archived.
 1\1\GINC-SE340\SP\RHF\Aug-CC-pVDZ\C5H11N1O1\OHZDE\09-Apr-2025\0\\#t hf
  aug-cc-pvdz iop(5/13=1,5/36=2,99/5=2) pseudo=read geom=check guess=(r
 ead,tcheck) scf=(maxcycle=1)\\title\\0,1\C,0,-1.58364584,-0.44390193,-
 1.15942536\C,0,-1.4816942,-0.23446222,0.34243998\N,0,-0.04874733,-0.32
 689081,0.54189226\C,0,0.40023414,0.16522012,1.82195461\C,0,0.49845024,
 0.38504292,-0.60101009\O,0,-0.35747902,0.05509651,-1.67522838\C,0,1.91
 770587,-0.0029706,-0.93810934\H,0,-1.67283366,-1.50505097,-1.40998939\
 H,0,-2.41938193,0.0973424,-1.60844782\H,0,0.43986861,1.48091154,-0.429

 Normal termination of Gaussian 16 at Wed Apr  9 18:49:51 2025.
