 Gaussian 16, Revision C.01,

 ----------------------------------------------------------------------
 #t hf aug-cc-pvdz symm=none int=(grid=ultrafine) guess=(read,tcheck) s
 table=(opt,rrhf)
 ----------------------------------------------------------------------
 -----
 title
 -----
 Symbolic Z-matrix:
 Charge =  0 Multiplicity = 1

 SCF Done:  E(RHF) =  -322.642557843     A.U. after   16 cycles
 Normal termination of Gaussian 16 at Wed Apr  9 03:39:27 2025.
 Gaussian 16:  ES64L-G16RevC.01  3-Jul-2019

 ----------------------------------------------------------------------
 #t hf aug-cc-pvdz iop(5/13=1,5/36=2,99/5=2) pseudo=read geom=check gue
 ss=(read,tcheck) scf=(maxcycle=1)
 ----------------------------------------------------------------------
 -----
 title
 -----
 Structure from the checkpoint file:  "Grambow2020_wb97xd3_007394_forward_mol1.chk"
 Charge =  0 Multiplicity = 1

                         Standard orientation:
 ---------------------------------------------------------------------
 Center     Atomic      Atomic             Coordinates (Angstroms)
 Number     Number       Type             X           Y           Z
 ---------------------------------------------------------------------
      1          6           0       -1.785436   -0.475558    0.337016
      2          6           0       -1.211185    0.796255   -0.263624
      3          6           0       -0.162326    1.484673    0.295514
      4          8           0        1.642437    0.678951   -0.233016
      5          6           0        1.613617   -0.533088    0.094225
      6          7           0        0.542739   -1.290782    0.169600
      7          6           0       -0.613420   -0.919541   -0.401515
      8          1           0       -1.706179   -0.557332    1.416254
      9          1           0       -2.762713   -0.734228   -0.054753
     10          1           0       -1.617542    1.129258   -1.208577
     11          1           0        0.140769    1.292331    1.315809
     12          1           0        0.136095    2.438315   -0.114023
     13          1           0        2.547362   -1.001238    0.425466
     14          1           0       -0.723966   -1.079687   -1.472942
 ---------------------------------------------------------------------

 SCF Done:  E(RHF) =  -322.973924773     A.U. after    2 cycles

 The electronic state is 1-A.
 Alpha  occ. eigenvalues --  -20.50668 -15.46299 -11.33084 -11.32964 -11.31695
 Alpha  occ. eigenvalues --  -11.26960 -11.25327  -1.43879  -1.23280  -1.13515
 Alpha  occ. eigenvalues --   -1.00452  -0.90707  -0.81618  -0.75352  -0.71818
 Alpha  occ. eigenvalues --   -0.70004  -0.65505  -0.62447  -0.62057  -0.56905
 Alpha  occ. eigenvalues --   -0.55346  -0.51117  -0.49511  -0.42922  -0.38378
 Alpha  occ. eigenvalues --   -0.35190
 Alpha virt. eigenvalues --    0.03154   0.03730   0.04025   0.04611   0.05929
 Alpha virt. eigenvalues --    0.06091   0.06549   0.07839   0.09567   0.11525
 Alpha virt. eigenvalues --    0.12244   0.12970   0.13203   0.13963   0.14089

 Mulliken charges:
               1
     1  C    0.264235
     2  C    0.541625
     3  C   -0.070760
     4  O   -1.110838
     5  C    0.605124
     6  N    0.704157
     7  C   -0.685484
     8  H   -0.029009
     9  H   -0.033319
    10  H   -0.188537
    11  H    0.011171
    12  H   -0.060268
    13  H    0.061148
    14  H   -0.009244
 Sum of Mulliken charges =  -0.00000

 Dipole moment (field-independent basis, Debye):
    X=             -2.9888    Y=              1.4029    Z=             -0.1308  Tot=              3.3042

 Test job not archived.
 1\1\GINC-SE412\SP\RHF\Aug-CC-pVDZ\C5H7N1O1\OHZDE\09-Apr-2025\0\\#t hf
 aug-cc-pvdz iop(5/13=1,5/36=2,99/5=2) pseudo=read geom=check guess=(re
 ad,tcheck) scf=(maxcycle=1)\\title\\0,1\C,0,-1.58195313,-0.34397072,0.
 23853247\C,0,-0.80946498,0.72097092,-0.52120515\C,0,0.25337558,1.40551
 293,0.01585403\O,0,1.99522493,0.34308291,-0.13549248\C,0,1.79514116,-0
 .77011104,0.41014565\N,0,0.64157486,-1.39250005,0.50221103\C,0,-0.4036
 5936,-1.03614775,-0.26015046\H,0,-1.61671791,-0.21412883,1.3154058\H,0
 ,-2.5404062,-0.58261352,-0.20854812\H,0,-1.08193102,0.89399615,-1.5530

 Normal termination of Gaussian 16 at Wed Apr  9 03:39:32 2025.
