 Gaussian 16, Revision C.01,

 ----------------------------------------------------------------------
 #t hf aug-cc-pvdz symm=none int=(grid=ultrafine) guess=(read,tcheck) s
 table=(opt,rrhf)
 ----------------------------------------------------------------------
 -----
 title
 -----
 Symbolic Z-matrix:
 Charge =  0 Multiplicity = 1

 SCF Done:  E(RHF) =  -305.362549490     A.U. after   18 cycles
 Normal termination of Gaussian 16 at Wed Apr  9 18:55:46 2025.
 Gaussian 16:  ES64L-G16RevC.01  3-Jul-2019

 ----------------------------------------------------------------------
 #t hf aug-cc-pvdz iop(5/13=1,5/36=2,99/5=2) pseudo=read geom=check gue
 ss=(read,tcheck) scf=(maxcycle=1)
 ----------------------------------------------------------------------
 -----
 title
 -----
 Structure from the checkpoint file:  "Grambow2020_wb97xd3_008351_forward_mol1.chk"
 Charge =  0 Multiplicity = 1

                         Standard orientation:
 ---------------------------------------------------------------------
 Center     Atomic      Atomic             Coordinates (Angstroms)
 Number     Number       Type             X           Y           Z
 ---------------------------------------------------------------------
      1          8           0        2.041707   -0.165745   -0.592772
      2          6           0        1.085810   -0.164605    0.418183
      3          6           0        0.196202    1.385845    0.320535
      4          6           0       -1.102670    1.167044   -0.140347
      5          6           0       -1.912108    0.247535   -0.367083
      6          6           0        0.141344   -1.214585    0.392645
      7          6           0       -1.066294   -1.374253    0.111754
      8          1           0        1.652021   -0.566556   -1.374401
      9          1           0        1.601430   -0.021400    1.365727
     10          1           0        0.860685    1.916840   -0.358838
     11          1           0        0.237455    1.818070    1.320089
     12          1           0       -2.904048    0.021257   -0.706461
     13          1           0       -1.834907   -2.124136    0.081942
 ---------------------------------------------------------------------

 SCF Done:  E(RHF) =  -305.674167972     A.U. after    2 cycles

 The electronic state is 1-A.
 Alpha  occ. eigenvalues --  -20.57108 -11.33535 -11.27101 -11.26752 -11.25890
 Alpha  occ. eigenvalues --  -11.25212 -11.23585  -1.48256  -1.12058  -1.03624
 Alpha  occ. eigenvalues --   -0.99286  -0.90334  -0.79273  -0.72972  -0.68600
 Alpha  occ. eigenvalues --   -0.66737  -0.64239  -0.60820  -0.59600  -0.54951
 Alpha  occ. eigenvalues --   -0.52046  -0.43829  -0.41603  -0.37017  -0.31989
 Alpha virt. eigenvalues --    0.03233   0.03927   0.04100   0.04624   0.04900
 Alpha virt. eigenvalues --    0.05745   0.06773   0.09492   0.09890   0.11536
 Alpha virt. eigenvalues --    0.12206   0.13494   0.14026   0.14546   0.14903

 Mulliken charges:
               1
     1  O   -1.228816
     2  C    0.676764
     3  C   -0.702169
     4  C    0.265208
     5  C    0.256406
     6  C   -0.079174
     7  C    0.362869
     8  H    0.313740
     9  H    0.158119
    10  H    0.270993
    11  H    0.233821
    12  H   -0.282753
    13  H   -0.245007
 Sum of Mulliken charges =  -0.00000

 Dipole moment (field-independent basis, Debye):
    X=             -1.0998    Y=              0.0586    Z=             -0.2139  Tot=              1.1219

 Test job not archived.
 1\1\GINC-SE145\SP\RHF\Aug-CC-pVDZ\C6H6O1\OHZDE\09-Apr-2025\0\\#t hf au
 g-cc-pvdz iop(5/13=1,5/36=2,99/5=2) pseudo=read geom=check guess=(read
 ,tcheck) scf=(maxcycle=1)\\title\\0,1\O,0,-0.23290753,-1.22323483,1.84
 205715\C,0,0.39448126,-1.00842188,0.61894185\C,0,-0.88362202,-0.843408
 11,-0.62365855\C,0,-0.95872,0.47865767,-1.0639505\C,0,-0.34373837,1.56
 039761,-1.00285113\C,0,1.23752936,0.12168801,0.53381792\C,0,1.22155457
 ,1.25838605,0.01377514\H,0,-0.37478756,-0.37011227,2.26098469\H,0,0.83
 92227,-1.94949162,0.30144536\H,0,-1.73034713,-1.20115339,-0.04046468\H

 Normal termination of Gaussian 16 at Wed Apr  9 18:55:51 2025.
