 Gaussian 16, Revision C.01,

 ----------------------------------------------------------------------
 #t hf aug-cc-pvdz symm=none int=(grid=ultrafine) guess=(read,tcheck) s
 table=(opt,rrhf)
 ----------------------------------------------------------------------
 -----
 title
 -----
 Symbolic Z-matrix:
 Charge =  0 Multiplicity = 1

 SCF Done:  E(RHF) =  -381.901358678     A.U. after   13 cycles

 1\1\GINC-SE097\Stability\RHF\Aug-CC-pVDZ\C4H10O3\OHZDE\09-Apr-2025\0\\
 #t hf aug-cc-pvdz symm=none int=(grid=ultrafine) guess=(read,tcheck) s
 table=(opt,rrhf)\\title\\0,1\C,0,2.29921335,-0.09469483,0.42537623\O,0
 ,0.9549729,0.33494274,0.4063923\C,0,0.30785597,0.08257657,-0.82779094\
 C,0,-1.05886547,0.70163064,-0.76026737\O,0,-1.08964256,1.93053512,-0.1
 9303675\C,0,-2.14858038,0.13367835,-1.26046347\O,0,-0.87623498,-1.6468
 6294,1.63740343\H,0,2.70894604,0.16770918,1.39882098\H,0,2.87910023,0.
 40443003,-0.35897594\H,0,2.36541974,-1.17899145,0.28577493\H,0,0.88403

 Normal termination of Gaussian 16 at Wed Apr  9 19:13:06 2025.
 Gaussian 16:  ES64L-G16RevC.01  3-Jul-2019

 ----------------------------------------------------------------------
 #t hf aug-cc-pvdz iop(5/13=1,5/36=2,99/5=2) pseudo=read geom=check gue
 ss=(read,tcheck) scf=(maxcycle=1)
 ----------------------------------------------------------------------
 -----
 title
 -----
 Structure from the checkpoint file:  "Grambow2020_wb97xd3_008922_reverse_mol2.chk"
 Charge =  0 Multiplicity = 1

                         Standard orientation:
 ---------------------------------------------------------------------
 Center     Atomic      Atomic             Coordinates (Angstroms)
 Number     Number       Type             X           Y           Z
 ---------------------------------------------------------------------
      1          6           0        2.443792   -0.598763    0.174656
      2          8           0        1.121902   -0.390342   -0.273783
      3          6           0        0.155570   -0.553677    0.748559
      4          6           0       -1.201345   -0.437415    0.115329
      5          8           0       -1.322767   -1.079080   -1.070600
      6          6           0       -2.225381    0.188231    0.681158
      7          8           0        0.396565    2.484732   -0.337815
      8          1           0        3.099926   -0.477426   -0.685052
      9          1           0        2.562502   -1.608968    0.582082
     10          1           0        2.716117    0.132528    0.943177
     11          1           0        0.269097   -1.549873    1.199297
     12          1           0        0.278193    0.203618    1.528762
     13          1           0       -0.547738    2.323447   -0.269966
     14          1           0       -0.435939   -1.235096   -1.414488
     15          1           0       -2.102516    0.675405    1.637895
     16          1           0       -3.199912    0.193967    0.212699
     17          1           0        0.758846    1.629656   -0.595042
 ---------------------------------------------------------------------

 SCF Done:  E(RHF) =  -382.297642551     A.U. after    2 cycles

 The electronic state is 1-A.
 Alpha  occ. eigenvalues --  -20.58295 -20.57783 -20.53311 -11.31389 -11.31349
 Alpha  occ. eigenvalues --  -11.30624 -11.22567  -1.51503  -1.48689  -1.41660
 Alpha  occ. eigenvalues --   -1.07369  -0.99115  -0.91212  -0.79272  -0.74155
 Alpha  occ. eigenvalues --   -0.71524  -0.69114  -0.68160  -0.64114  -0.61938
 Alpha  occ. eigenvalues --   -0.59494  -0.58843  -0.55934  -0.55396  -0.52433
 Alpha  occ. eigenvalues --   -0.51098  -0.47615  -0.45647  -0.35675
 Alpha virt. eigenvalues --    0.02976   0.03785   0.04321   0.04459   0.05775
 Alpha virt. eigenvalues --    0.06406   0.06837   0.07812   0.08795   0.10033
 Alpha virt. eigenvalues --    0.11446   0.12150   0.13032   0.14427   0.15247

 Mulliken charges:
               1
     1  C    0.187195
     2  O   -1.345644
     3  C    0.085047
     4  C    1.389820
     5  O   -1.589649
     6  C    0.358107
     7  O   -0.959821
     8  H    0.028707
     9  H    0.162585
    10  H    0.214435
    11  H    0.172319
    12  H    0.084004
    13  H    0.424427
    14  H    0.417586
    15  H   -0.121154
    16  H   -0.107366
    17  H    0.599401
 Sum of Mulliken charges =  -0.00000

 Dipole moment (field-independent basis, Debye):
    X=              1.8042    Y=             -2.5885    Z=              1.3824  Tot=              3.4448

 Test job not archived.
 1\1\GINC-SE097\SP\RHF\Aug-CC-pVDZ\C4H10O3\OHZDE\09-Apr-2025\0\\#t hf a
 ug-cc-pvdz iop(5/13=1,5/36=2,99/5=2) pseudo=read geom=check guess=(rea
 d,tcheck) scf=(maxcycle=1)\\title\\0,1\C,0,2.29921335,-0.09469483,0.42
 537623\O,0,0.9549729,0.33494274,0.4063923\C,0,0.30785597,0.08257657,-0
 .82779094\C,0,-1.05886547,0.70163064,-0.76026737\O,0,-1.08964256,1.930
 53512,-0.19303675\C,0,-2.14858038,0.13367835,-1.26046347\O,0,-0.876234
 98,-1.64686294,1.63740343\H,0,2.70894604,0.16770918,1.39882098\H,0,2.8
 7910023,0.40443003,-0.35897594\H,0,2.36541974,-1.17899145,0.28577493\H

 Normal termination of Gaussian 16 at Wed Apr  9 19:13:12 2025.
