 Gaussian 16, Revision C.01,

 ----------------------------------------------------------------------
 #t hf aug-cc-pvdz symm=none int=(grid=ultrafine) guess=(read,tcheck) s
 table=(opt,rrhf)
 ----------------------------------------------------------------------
 -----
 title
 -----
 Symbolic Z-matrix:
 Charge =  0 Multiplicity = 1

 SCF Done:  E(RHF) =  -360.908006477     A.U. after   13 cycles
 Normal termination of Gaussian 16 at Wed Apr  9 17:40:38 2025.
 Gaussian 16:  ES64L-G16RevC.01  3-Jul-2019

 ----------------------------------------------------------------------
 #t hf aug-cc-pvdz iop(5/13=1,5/36=2,99/5=2) pseudo=read geom=check gue
 ss=(read,tcheck) scf=(maxcycle=1)
 ----------------------------------------------------------------------
 -----
 title
 -----
 Structure from the checkpoint file:  "Grambow2020_wb97xd3_006761_forward_mol2.chk"
 Charge =  0 Multiplicity = 1

                         Standard orientation:
 ---------------------------------------------------------------------
 Center     Atomic      Atomic             Coordinates (Angstroms)
 Number     Number       Type             X           Y           Z
 ---------------------------------------------------------------------
      1          6           0        2.582540    0.639434    0.045717
      2          7           0        1.199331    0.225827    0.134183
      3          6           0        0.913657   -0.954097   -0.197557
      4          8           0       -0.300061   -1.491114   -0.155233
      5          6           0       -1.373059   -0.761574    0.465162
      6          6           0       -1.865266    0.449520   -0.314846
      7          8           0       -1.225059    1.650778    0.018583
      8          1           0        2.664497    1.500072   -0.620586
      9          1           0        2.931865    0.954654    1.030426
     10          1           0        3.247535   -0.151484   -0.321883
     11          1           0        1.640319   -1.682757   -0.567016
     12          1           0       -2.164508   -1.506161    0.541413
     13          1           0       -1.065309   -0.458281    1.469801
     14          1           0       -1.789342    0.223915   -1.388731
     15          1           0       -2.926499    0.582985   -0.087771
     16          1           0       -0.280154    1.439261    0.107397
 ---------------------------------------------------------------------

 SCF Done:  E(RHF) =  -361.281205502     A.U. after    2 cycles

 The electronic state is 1-A.
 Alpha  occ. eigenvalues --  -20.58876 -20.51858 -15.49902 -11.35377 -11.29743
 Alpha  occ. eigenvalues --  -11.27856 -11.26858  -1.52603  -1.42964  -1.24272
 Alpha  occ. eigenvalues --   -1.03085  -0.97063  -0.88603  -0.79026  -0.73885
 Alpha  occ. eigenvalues --   -0.70873  -0.69540  -0.63512  -0.63080  -0.60379
 Alpha  occ. eigenvalues --   -0.58135  -0.57021  -0.55883  -0.51703  -0.49078
 Alpha  occ. eigenvalues --   -0.46031  -0.42362  -0.41466
 Alpha virt. eigenvalues --    0.03434   0.04154   0.04560   0.04981   0.05592
 Alpha virt. eigenvalues --    0.05912   0.06334   0.07496   0.09304   0.09772
 Alpha virt. eigenvalues --    0.11658   0.13258   0.13371   0.14319   0.14628

 Mulliken charges:
               1
     1  C   -0.359724
     2  N    0.621095
     3  C   -0.006662
     4  O   -1.254642
     5  C    0.353020
     6  C    0.632187
     7  O   -1.280273
     8  H    0.109551
     9  H    0.146437
    10  H    0.095201
    11  H   -0.043220
    12  H   -0.015116
    13  H    0.219057
    14  H    0.168484
    15  H    0.053110
    16  H    0.561496
 Sum of Mulliken charges =   0.00000

 Dipole moment (field-independent basis, Debye):
    X=              1.5636    Y=             -2.5168    Z=             -0.1729  Tot=              2.9680

 Test job not archived.
 1\1\GINC-SE162\SP\RHF\Aug-CC-pVDZ\C4H9N1O2\OHZDE\09-Apr-2025\0\\#t hf
 aug-cc-pvdz iop(5/13=1,5/36=2,99/5=2) pseudo=read geom=check guess=(re
 ad,tcheck) scf=(maxcycle=1)\\title\\0,1\C,0,2.20120926,-0.30366782,-1.
 30422353\N,0,0.9351854,-0.0065734,-0.67091327\C,0,0.94569091,0.7166151
 ,0.35902351\O,0,-0.12804216,1.09481737,1.04265262\C,0,-1.4358112,0.819
 85635,0.51107117\C,0,-1.85066564,-0.64447009,0.54380575\O,0,-1.5310419
 8,-1.36168863,-0.61701281\H,0,2.34655158,-1.38483622,-1.34063303\H,0,2
 .18710713,0.05855555,-2.33361121\H,0,3.05837889,0.14685766,-0.78926102

 Normal termination of Gaussian 16 at Wed Apr  9 17:40:44 2025.
