 Gaussian 16, Revision C.01,

 ----------------------------------------------------------------------
 #t hf aug-cc-pvdz symm=none int=(grid=ultrafine) guess=(read,tcheck) s
 table=(opt,rrhf)
 ----------------------------------------------------------------------
 -----
 title
 -----
 Symbolic Z-matrix:
 Charge =  0 Multiplicity = 1

 SCF Done:  E(RHF) =  -353.428237056     A.U. after   17 cycles
 Normal termination of Gaussian 16 at Wed Apr  9 17:13:09 2025.
 Gaussian 16:  ES64L-G16RevC.01  3-Jul-2019

 ----------------------------------------------------------------------
 #t hf aug-cc-pvdz iop(5/13=1,5/36=2,99/5=2) pseudo=read geom=check gue
 ss=(read,tcheck) scf=(maxcycle=1)
 ----------------------------------------------------------------------
 -----
 title
 -----
 Structure from the checkpoint file:  "Grambow2020_wb97xd3_006534_reverse_mol1.chk"
 Charge =  0 Multiplicity = 1

                         Standard orientation:
 ---------------------------------------------------------------------
 Center     Atomic      Atomic             Coordinates (Angstroms)
 Number     Number       Type             X           Y           Z
 ---------------------------------------------------------------------
      1          8           0        2.199993    0.008020   -0.084937
      2          6           0        1.005432    0.052034    0.013093
      3          7           0        0.245720   -1.097825    0.122920
      4          7           0       -1.098921   -1.131541   -0.098432
      5          6           0       -1.810006   -0.001592   -0.165593
      6          6           0       -0.993491    1.220276    0.018330
      7          7           0        0.282780    1.262143    0.072094
      8          1           0        0.718992   -1.985787    0.070434
      9          1           0       -2.014960   -1.098942    0.632531
     10          1           0       -1.522641    2.166819    0.105482
 ---------------------------------------------------------------------

 SCF Done:  E(RHF) =  -353.777912927     A.U. after    2 cycles

 The electronic state is 1-A.
 Alpha  occ. eigenvalues --  -20.53921 -15.63360 -15.60016 -15.55667 -11.41366
 Alpha  occ. eigenvalues --  -11.34004 -11.31195  -1.50470  -1.40783  -1.28231
 Alpha  occ. eigenvalues --   -1.21478  -0.98198  -0.96537  -0.86107  -0.80153
 Alpha  occ. eigenvalues --   -0.73815  -0.71737  -0.65368  -0.63573  -0.59244
 Alpha  occ. eigenvalues --   -0.53053  -0.52879  -0.47478  -0.44519  -0.41028
 Alpha virt. eigenvalues --   -0.00251   0.02452   0.04178   0.04941   0.07875
 Alpha virt. eigenvalues --    0.08803   0.09437   0.10204   0.10451   0.11113
 Alpha virt. eigenvalues --    0.11512   0.13136   0.14110   0.14488   0.15714

 Mulliken charges:
               1
     1  O   -1.120136
     2  C    0.512065
     3  N    0.349790
     4  N   -0.019335
     5  C   -0.753883
     6  C   -0.463048
     7  N    0.784003
     8  H    0.127960
     9  H    0.550671
    10  H    0.031913
 Sum of Mulliken charges =  -0.00000

 Dipole moment (field-independent basis, Debye):
    X=             -3.1539    Y=             -1.3198    Z=              1.1706  Tot=              3.6138

 Test job not archived.
 1\1\GINC-SE219\SP\RHF\Aug-CC-pVDZ\C3H3N3O1\OHZDE\09-Apr-2025\0\\#t hf
 aug-cc-pvdz iop(5/13=1,5/36=2,99/5=2) pseudo=read geom=check guess=(re
 ad,tcheck) scf=(maxcycle=1)\\title\\0,1\O,0,2.25440058,-0.5089179,0.96
 856576\C,0,1.1805494,-0.33403541,0.46380504\N,0,0.60777243,0.92258431,
 0.39874172\N,0,-0.71667413,1.1305592,0.15220152\C,0,-1.48899566,0.1444
 3321,-0.31471618\C,0,-0.76101973,-1.12973387,-0.51480756\N,0,0.4376977
 1,-1.36923312,-0.14167585\H,0,1.09668087,1.68967678,0.8320491\H,0,-1.2
 9839693,1.40248167,-0.82869252\H,0,-1.29352253,-1.93686587,-1.01332403

 Normal termination of Gaussian 16 at Wed Apr  9 17:13:13 2025.
