 Gaussian 16, Revision C.01,

 ----------------------------------------------------------------------
 #t hf aug-cc-pvdz symm=none int=(grid=ultrafine) guess=(read,tcheck) s
 table=(opt,rrhf)
 ----------------------------------------------------------------------
 -----
 title
 -----
 Symbolic Z-matrix:
 Charge =  0 Multiplicity = 1

 SCF Done:  E(RHF) =  -260.189386674     A.U. after   16 cycles
 Normal termination of Gaussian 16 at Wed Apr  9 03:05:10 2025.
 Gaussian 16:  ES64L-G16RevC.01  3-Jul-2019

 ----------------------------------------------------------------------
 #t hf aug-cc-pvdz iop(5/13=1,5/36=2,99/5=2) pseudo=read geom=check gue
 ss=(read,tcheck) scf=(maxcycle=1)
 ----------------------------------------------------------------------
 -----
 title
 -----
 Structure from the checkpoint file:  "Grambow2020_b97d3_006470_reverse_mol2.chk"
 Charge =  0 Multiplicity = 1

                         Standard orientation:
 ---------------------------------------------------------------------
 Center     Atomic      Atomic             Coordinates (Angstroms)
 Number     Number       Type             X           Y           Z
 ---------------------------------------------------------------------
      1          6           0        0.079835    0.427843    0.000407
      2          6           0       -0.147371    1.762706   -0.000289
      3          6           0        2.353442   -0.756558   -0.000195
      4          7           0        1.284420   -0.225195    0.000021
      5          6           0       -1.180515   -0.257338    0.000445
      6          7           0       -2.231899   -0.783365   -0.000336
 ---------------------------------------------------------------------

 SCF Done:  E(RHF) =  -260.423479029     A.U. after    2 cycles

 The electronic state is 1-A.
 Alpha  occ. eigenvalues --  -15.60463 -15.57721 -11.40809 -11.39819 -11.36403
 Alpha  occ. eigenvalues --  -11.34401  -1.34622  -1.27229  -1.17072  -0.97310
 Alpha  occ. eigenvalues --   -0.87795  -0.66553  -0.65945  -0.61168  -0.56868
 Alpha  occ. eigenvalues --   -0.55431  -0.54335  -0.53176  -0.44829
 Alpha virt. eigenvalues --   -0.03086   0.01518   0.05229   0.06483   0.07078
 Alpha virt. eigenvalues --    0.07668   0.08038   0.09234   0.10441   0.11483
 Alpha virt. eigenvalues --    0.12338   0.12482   0.13816   0.15510   0.15833

 Mulliken charges:
               1
     1  C    0.347728
     2  C   -0.035510
     3  C   -0.254695
     4  N    0.486623
     5  C   -1.214788
     6  N    0.670642
 Sum of Mulliken charges =  -0.00000

 Dipole moment (field-independent basis, Debye):
    X=              2.0865    Y=              1.3901    Z=              0.0019  Tot=              2.5072

 Test job not archived.
 1\1\GINC-SE024\SP\RHF\Aug-CC-pVDZ\C4N2\OHZDE\09-Apr-2025\0\\#t hf aug-
 cc-pvdz iop(5/13=1,5/36=2,99/5=2) pseudo=read geom=check guess=(read,t
 check) scf=(maxcycle=1)\\title\\0,1\C,0,0.08550075,0.05425492,0.396192
 57\C,0,-0.05396416,0.25337281,1.72825303\C,0,2.27588303,-0.20396731,-0
 .91057427\N,0,1.24432768,-0.08610913,-0.3213725\C,0,-1.21628116,0.0073
 5824,-0.2047407\N,0,-2.29922914,-0.02449753,-0.66116314\\Version=ES64L
 -G16RevC.01\State=1-A\HF=-260.423479\RMSD=2.700e-02\Dipole=0.8544311,0
 .0440597,0.4908916\Quadrupole=-4.3147407,3.2571161,1.0576246,0.2042644

 Normal termination of Gaussian 16 at Wed Apr  9 03:05:12 2025.
