 Gaussian 16, Revision C.01,

 ----------------------------------------------------------------------
 #t hf aug-cc-pvdz symm=none int=(grid=ultrafine) guess=(read,tcheck) s
 table=(opt,rrhf)
 ----------------------------------------------------------------------
 -----
 title
 -----
 Symbolic Z-matrix:
 Charge =  0 Multiplicity = 1

 SCF Done:  E(RHF) =  -306.595538715     A.U. after   15 cycles
 Normal termination of Gaussian 16 at Wed Apr  9 18:54:50 2025.
 Gaussian 16:  ES64L-G16RevC.01  3-Jul-2019

 ----------------------------------------------------------------------
 #t hf aug-cc-pvdz iop(5/13=1,5/36=2,99/5=2) pseudo=read geom=check gue
 ss=(read,tcheck) scf=(maxcycle=1)
 ----------------------------------------------------------------------
 -----
 title
 -----
 Structure from the checkpoint file:  "Grambow2020_wb97xd3_008220_reverse_mol2.chk"
 Charge =  0 Multiplicity = 1

                         Standard orientation:
 ---------------------------------------------------------------------
 Center     Atomic      Atomic             Coordinates (Angstroms)
 Number     Number       Type             X           Y           Z
 ---------------------------------------------------------------------
      1          6           0       -1.323253    1.055829   -0.535867
      2          8           0       -1.586930   -0.745883   -0.283503
      3          6           0       -0.417235   -0.621583    0.616331
      4          6           0        0.814357   -1.251003    0.058112
      5          6           0        1.684730   -0.324482   -0.329539
      6          6           0        1.217332    1.075564   -0.058714
      7          6           0       -0.202801    0.883776    0.501798
      8          1           0       -1.288875   -1.067463   -1.139954
      9          1           0       -2.241587    1.339549   -0.002718
     10          1           0       -0.746681   -1.017812    1.576112
     11          1           0        0.950236   -2.323177   -0.015491
     12          1           0        2.644377   -0.544946   -0.783187
     13          1           0        1.886796    1.571821    0.650451
     14          1           0        1.199175    1.678202   -0.971035
     15          1           0       -0.346782    1.422275    1.441119
 ---------------------------------------------------------------------

 SCF Done:  E(RHF) =  -306.914288960     A.U. after    2 cycles

 The electronic state is 1-A.
 Alpha  occ. eigenvalues --  -20.58965 -11.31171 -11.25917 -11.24429 -11.24345
 Alpha  occ. eigenvalues --  -11.23399 -11.23380  -1.48907  -1.15321  -1.01395
 Alpha  occ. eigenvalues --   -0.97083  -0.86961  -0.78472  -0.74216  -0.71842
 Alpha  occ. eigenvalues --   -0.66280  -0.65681  -0.59891  -0.58057  -0.55302
 Alpha  occ. eigenvalues --   -0.52003  -0.51563  -0.47977  -0.46334  -0.38276
 Alpha  occ. eigenvalues --   -0.31949
 Alpha virt. eigenvalues --    0.03127   0.03494   0.03736   0.04984   0.05592
 Alpha virt. eigenvalues --    0.06103   0.06504   0.07200   0.10242   0.11303
 Alpha virt. eigenvalues --    0.11936   0.13107   0.13722   0.14085   0.14338

 Mulliken charges:
               1
     1  C   -0.064520
     2  O   -1.281281
     3  C    0.673094
     4  C    0.304766
     5  C    0.210464
     6  C   -0.499494
     7  C   -0.081366
     8  H    0.448386
     9  H    0.053511
    10  H   -0.001379
    11  H   -0.096882
    12  H   -0.086994
    13  H    0.176033
    14  H    0.208711
    15  H    0.036950
 Sum of Mulliken charges =  -0.00000

 Dipole moment (field-independent basis, Debye):
    X=              1.9862    Y=             -1.7300    Z=              1.5839  Tot=              3.0735

 Test job not archived.
 1\1\GINC-SE219\SP\RHF\Aug-CC-pVDZ\C6H8O1\OHZDE\09-Apr-2025\0\\#t hf au
 g-cc-pvdz iop(5/13=1,5/36=2,99/5=2) pseudo=read geom=check guess=(read
 ,tcheck) scf=(maxcycle=1)\\title\\0,1\C,0,-1.68220712,-0.00249834,-0.7
 7218302\O,0,-0.89969067,-1.64979156,-0.5409385\C,0,-0.12325543,-0.9484
 9151,0.50723427\C,0,1.30218135,-0.73063399,0.12609764\C,0,1.5275621,0.
 54985947,-0.14922633\C,0,0.31828134,1.41738725,0.04305305\C,0,-0.79302
 188,0.41785538,0.40867079\H,0,-0.37455683,-1.68620543,-1.34633746\H,0,
 -2.65292351,-0.32557766,-0.37042156\H,0,-0.2770233,-1.52690439,1.41745

 Normal termination of Gaussian 16 at Wed Apr  9 18:54:55 2025.
