 Gaussian 16, Revision C.01,

 ----------------------------------------------------------------------
 #t hf aug-cc-pvdz symm=none int=(grid=ultrafine) guess=(read,tcheck) s
 table=(opt,rrhf)
 ----------------------------------------------------------------------
 -----
 title
 -----
 Symbolic Z-matrix:
 Charge =  0 Multiplicity = 1

 SCF Done:  E(RHF) =  -305.839306874     A.U. after   13 cycles
 Normal termination of Gaussian 16 at Wed Apr  9 03:06:51 2025.
 Gaussian 16:  ES64L-G16RevC.01  3-Jul-2019

 ----------------------------------------------------------------------
 #t hf aug-cc-pvdz iop(5/13=1,5/36=2,99/5=2) pseudo=read geom=check gue
 ss=(read,tcheck) scf=(maxcycle=1)
 ----------------------------------------------------------------------
 -----
 title
 -----
 Structure from the checkpoint file:  "Grambow2020_b97d3_006523_reverse_mol2.chk"
 Charge =  0 Multiplicity = 1

                         Standard orientation:
 ---------------------------------------------------------------------
 Center     Atomic      Atomic             Coordinates (Angstroms)
 Number     Number       Type             X           Y           Z
 ---------------------------------------------------------------------
      1          8           0        0.616975   -1.382436   -0.593227
      2          6           0        1.306579   -0.819765    0.502517
      3          6           0        1.475416    0.682474    0.448783
      4          6           0        1.111088    1.450282   -0.588989
      5          6           0       -2.251171    0.635842    0.267266
      6          8           0       -2.103329   -0.522960   -0.080621
      7          1           0       -0.325616   -1.118779   -0.504714
      8          1           0        0.839954   -1.086886    1.473720
      9          1           0        2.307072   -1.283488    0.512958
     10          1           0        1.937004    1.135420    1.333012
     11          1           0        1.262576    2.529802   -0.588544
     12          1           0        0.673356    1.000171   -1.480965
     13          1           0       -1.400353    1.347056    0.319696
     14          1           0       -3.254626    1.026868    0.548163
 ---------------------------------------------------------------------

 SCF Done:  E(RHF) =  -306.154165843     A.U. after    2 cycles

 The electronic state is 1-A.
 Alpha  occ. eigenvalues --  -20.58482 -20.52870 -11.37154 -11.28583 -11.24881
 Alpha  occ. eigenvalues --  -11.23581  -1.50168  -1.42885  -1.05609  -0.92166
 Alpha  occ. eigenvalues --   -0.89162  -0.76332  -0.71830  -0.68292  -0.66360
 Alpha  occ. eigenvalues --   -0.65696  -0.60831  -0.56775  -0.55029  -0.53409
 Alpha  occ. eigenvalues --   -0.49321  -0.45017  -0.43394  -0.37145
 Alpha virt. eigenvalues --    0.02770   0.03721   0.04090   0.05295   0.06197
 Alpha virt. eigenvalues --    0.06790   0.06903   0.07439   0.08637   0.11638
 Alpha virt. eigenvalues --    0.12249   0.12807   0.14106   0.14649   0.15161

 Mulliken charges:
               1
     1  O   -1.213734
     2  C    0.423617
     3  C    0.277640
     4  C   -0.056923
     5  C    0.636191
     6  O   -0.932458
     7  H    0.501531
     8  H    0.193754
     9  H    0.120600
    10  H   -0.118373
    11  H   -0.099832
    12  H   -0.076704
    13  H    0.233313
    14  H    0.111378
 Sum of Mulliken charges =  -0.00000

 Dipole moment (field-independent basis, Debye):
    X=             -1.3898    Y=              3.3942    Z=              2.0942  Tot=              4.2235

 Test job not archived.
 1\1\GINC-SE044\SP\RHF\Aug-CC-pVDZ\C4H8O2\OHZDE\09-Apr-2025\0\\#t hf au
 g-cc-pvdz iop(5/13=1,5/36=2,99/5=2) pseudo=read geom=check guess=(read
 ,tcheck) scf=(maxcycle=1)\\title\\0,1\O,0,-1.70374197,0.50130204,-0.50
 121904\C,0,-1.444385,-0.73861771,0.12179059\C,0,-0.13951666,-1.3930167
 2,-0.27468994\C,0,0.68809177,-0.92369609,-1.22022522\C,0,1.3178742,1.8
 0097802,0.98902674\O,0,0.19094544,2.23971053,0.83654536\H,0,-1.0803362
 8,1.15369463,-0.11189083\H,0,-1.48007198,-0.66727505,1.22902342\H,0,-2
 .27208748,-1.40970607,-0.16225657\H,0,0.1070555,-2.31424327,0.26440892

 Normal termination of Gaussian 16 at Wed Apr  9 03:06:55 2025.
