 Gaussian 16, Revision C.01,

 ----------------------------------------------------------------------
 #t hf aug-cc-pvdz symm=none int=(grid=ultrafine) guess=(read,tcheck) s
 table=(opt,rrhf)
 ----------------------------------------------------------------------
 -----
 title
 -----
 Symbolic Z-matrix:
 Charge =  0 Multiplicity = 1

 SCF Done:  E(RHF) =  -231.741124448     A.U. after   14 cycles
 Normal termination of Gaussian 16 at Wed Apr  9 15:51:52 2025.
 Gaussian 16:  ES64L-G16RevC.01  3-Jul-2019

 ----------------------------------------------------------------------
 #t hf aug-cc-pvdz iop(5/13=1,5/36=2,99/5=2) pseudo=read geom=check gue
 ss=(read,tcheck) scf=(maxcycle=1)
 ----------------------------------------------------------------------
 -----
 title
 -----
 Structure from the checkpoint file:  "Grambow2020_b97d3_006869_reverse_mol2.chk"
 Charge =  0 Multiplicity = 1

                         Standard orientation:
 ---------------------------------------------------------------------
 Center     Atomic      Atomic             Coordinates (Angstroms)
 Number     Number       Type             X           Y           Z
 ---------------------------------------------------------------------
      1          6           0        0.746551    1.183605   -0.027829
      2          6           0       -0.668095    0.759711   -0.431978
      3          6           0       -0.667793   -0.758228   -0.433875
      4          6           0        0.746497   -1.183765   -0.028454
      5          6           0        1.576553    0.000069    0.373250
      6          6           0       -1.435785   -0.000943    0.621865
      7          1           0        0.797318    1.977823    0.737097
      8          1           0        1.318919    1.606425   -0.881806
      9          1           0       -1.223502    1.330375   -1.176232
     10          1           0       -1.220886   -1.327466   -1.181015
     11          1           0        0.793612   -1.973357    0.741832
     12          1           0        1.318485   -1.613686   -0.878543
     13          1           0       -1.048004   -0.002149    1.644333
     14          1           0       -2.523514   -0.000659    0.556462
 ---------------------------------------------------------------------

 SCF Done:  E(RHF) =  -231.987366690     A.U. after    2 cycles

 The electronic state is 1-A.
 Alpha  occ. eigenvalues --  -11.26740 -11.24288 -11.24231 -11.24178 -11.24163
 Alpha  occ. eigenvalues --  -11.24025  -1.18418  -1.03328  -0.97231  -0.82598
 Alpha  occ. eigenvalues --   -0.77441  -0.73164  -0.69148  -0.62125  -0.58626
 Alpha  occ. eigenvalues --   -0.57001  -0.53659  -0.52171  -0.49588  -0.42011
 Alpha  occ. eigenvalues --   -0.41248  -0.35497
 Alpha virt. eigenvalues --    0.03180   0.03744   0.03869   0.04590   0.06082
 Alpha virt. eigenvalues --    0.06355   0.06603   0.06918   0.08112   0.09303
 Alpha virt. eigenvalues --    0.12077   0.12964   0.14431   0.14751   0.15137

 Mulliken charges:
               1
     1  C   -0.507196
     2  C    0.418618
     3  C    0.417597
     4  C   -0.506716
     5  C   -0.401871
     6  C    0.212711
     7  H    0.184065
     8  H    0.285863
     9  H   -0.160410
    10  H   -0.160211
    11  H    0.187119
    12  H    0.280387
    13  H   -0.103704
    14  H   -0.146252
 Sum of Mulliken charges =   0.00000

 Dipole moment (field-independent basis, Debye):
    X=             -2.0474    Y=              0.0005    Z=             -1.1861  Tot=              2.3662

 Test job not archived.
 1\1\GINC-SE114\SP\RHF\Aug-CC-pVDZ\C6H8\OHZDE\09-Apr-2025\0\\#t hf aug-
 cc-pvdz iop(5/13=1,5/36=2,99/5=2) pseudo=read geom=check guess=(read,t
 check) scf=(maxcycle=1)\\title\\0,1\C,0,-1.16781204,-0.33778777,0.7949
 4096\C,0,-0.52413113,0.88061008,0.12753786\C,0,0.89933661,0.47352559,-
 0.20736749\C,0,1.05146986,-0.97358262,0.27054195\C,0,-0.25865582,-1.53
 006715,0.74563855\C,0,-0.10999488,0.68069593,-1.31018602\H,0,-2.176067
 12,-0.59567081,0.42698831\H,0,-1.31812687,-0.18899236,1.88623568\H,0,-
 0.76338277,1.88752175,0.46949875\H,0,1.72938108,1.17393026,-0.11451198

 Normal termination of Gaussian 16 at Wed Apr  9 15:51:56 2025.
