 Gaussian 16, Revision C.01,

 ----------------------------------------------------------------------
 #t hf aug-cc-pvdz symm=none int=(grid=ultrafine) guess=(read,tcheck) s
 table=(opt,rrhf)
 ----------------------------------------------------------------------
 -----
 title
 -----
 Symbolic Z-matrix:
 Charge =  0 Multiplicity = 1

 SCF Done:  E(RHF) =  -207.554457074     A.U. after   15 cycles
 Normal termination of Gaussian 16 at Wed Apr  9 16:53:49 2025.
 Gaussian 16:  ES64L-G16RevC.01  3-Jul-2019

 ----------------------------------------------------------------------
 #t hf aug-cc-pvdz iop(5/13=1,5/36=2,99/5=2) pseudo=read geom=check gue
 ss=(read,tcheck) scf=(maxcycle=1)
 ----------------------------------------------------------------------
 -----
 title
 -----
 Structure from the checkpoint file:  "Grambow2020_wb97xd3_006177_reverse_mol2.chk"
 Charge =  0 Multiplicity = 1

                         Standard orientation:
 ---------------------------------------------------------------------
 Center     Atomic      Atomic             Coordinates (Angstroms)
 Number     Number       Type             X           Y           Z
 ---------------------------------------------------------------------
      1          6           0       -1.426921   -0.851475   -0.000136
      2          6           0       -0.388428    0.256987    0.000263
      3          6           0       -0.842311    1.481806   -0.000196
      4          6           0        1.009992   -0.017680    0.000313
      5          7           0        2.131312   -0.265114   -0.000208
      6          1           0       -2.432567   -0.431548   -0.006484
      7          1           0       -1.304624   -1.461325    0.894124
      8          1           0       -1.295986   -1.469163   -0.887648
 ---------------------------------------------------------------------

 SCF Done:  E(RHF) =  -207.757455392     A.U. after    2 cycles

 The electronic state is 1-A.
 Alpha  occ. eigenvalues --  -15.53932 -11.34956 -11.31072 -11.30647 -11.29541
 Alpha  occ. eigenvalues --   -1.26244  -1.15471  -0.98247  -0.86151  -0.66052
 Alpha  occ. eigenvalues --   -0.64246  -0.62937  -0.60587  -0.55729  -0.53709
 Alpha  occ. eigenvalues --   -0.49413  -0.43064
 Alpha virt. eigenvalues --    0.01226   0.03515   0.04496   0.04824   0.06655
 Alpha virt. eigenvalues --    0.06774   0.08907   0.10204   0.11929   0.12180
 Alpha virt. eigenvalues --    0.13624   0.14408   0.15241   0.15865   0.16795

 Mulliken charges:
               1
     1  C   -0.247362
     2  C    1.372727
     3  C   -0.429074
     4  C   -2.287098
     5  N    0.926954
     6  H    0.121061
     7  H    0.272298
     8  H    0.270494
 Sum of Mulliken charges =  -0.00000

 Dipole moment (field-independent basis, Debye):
    X=             -3.9884    Y=             -1.4620    Z=              0.0013  Tot=              4.2479

 Test job not archived.
 1\1\GINC-SE163\SP\RHF\Aug-CC-pVDZ\C4H3N1\OHZDE\09-Apr-2025\0\\#t hf au
 g-cc-pvdz iop(5/13=1,5/36=2,99/5=2) pseudo=read geom=check guess=(read
 ,tcheck) scf=(maxcycle=1)\\title\\0,1\C,0,-0.89955383,-0.01149441,-0.1
 1047156\C,0,0.56759536,0.3786471,-0.15963392\C,0,0.82873802,1.64515323
 ,-0.34391289\C,0,1.61023811,-0.58190909,-0.01385977\N,0,2.43192487,-1.
 37507212,0.10574295\H,0,-1.53190411,0.86534282,-0.24828393\H,0,-1.1221
 4678,-0.45867927,0.85754408\H,0,-1.10997763,-0.72750025,-0.90382895\\V
 ersion=ES64L-G16RevC.01\State=1-A\HF=-207.7574554\RMSD=2.740e-02\Dipol

 Normal termination of Gaussian 16 at Wed Apr  9 16:53:51 2025.
