 Gaussian 16, Revision C.01,

 ----------------------------------------------------------------------
 #t hf aug-cc-pvdz symm=none int=(grid=ultrafine) guess=(read,tcheck) s
 table=(opt,rrhf)
 ----------------------------------------------------------------------
 -----
 title
 -----
 Symbolic Z-matrix:
 Charge =  0 Multiplicity = 1

 SCF Done:  E(RHF) =  -306.508629330     A.U. after   17 cycles
 Normal termination of Gaussian 16 at Wed Apr  9 03:51:46 2025.
 Gaussian 16:  ES64L-G16RevC.01  3-Jul-2019

 ----------------------------------------------------------------------
 #t hf aug-cc-pvdz iop(5/13=1,5/36=2,99/5=2) pseudo=read geom=check gue
 ss=(read,tcheck) scf=(maxcycle=1)
 ----------------------------------------------------------------------
 -----
 title
 -----
 Structure from the checkpoint file:  "Grambow2020_wb97xd3_008165_forward_mol1.chk"
 Charge =  0 Multiplicity = 1

                         Standard orientation:
 ---------------------------------------------------------------------
 Center     Atomic      Atomic             Coordinates (Angstroms)
 Number     Number       Type             X           Y           Z
 ---------------------------------------------------------------------
      1          8           0        2.050100    0.229732   -0.449576
      2          6           0        0.776602   -0.008870    0.049568
      3          6           0       -0.059486    1.305820    0.377866
      4          6           0       -1.435190    0.896204    0.107981
      5          6           0       -1.686333   -0.464523   -0.322102
      6          6           0       -0.218492   -1.097780   -0.373439
      7          6           0        0.452405   -1.097833    0.870452
      8          1           0        1.982302    0.848848   -1.179626
      9          1           0        0.199969    2.203918   -0.206520
     10          1           0        0.237667    1.522211    1.403573
     11          1           0       -2.100625    1.661688   -0.281493
     12          1           0       -2.165572   -1.161704    0.364665
     13          1           0       -2.285626   -0.483773   -1.245068
     14          1           0       -0.100520   -1.865126   -1.136085
     15          1           0        0.854571   -1.762030    1.615208
 ---------------------------------------------------------------------

 SCF Done:  E(RHF) =  -306.828938814     A.U. after    2 cycles

 The electronic state is 1-A.
 Alpha  occ. eigenvalues --  -20.55769 -11.30011 -11.28092 -11.25007 -11.24953
 Alpha  occ. eigenvalues --  -11.24781 -11.22525  -1.46479  -1.18865  -1.05528
 Alpha  occ. eigenvalues --   -0.97972  -0.81230  -0.79115  -0.75426  -0.72279
 Alpha  occ. eigenvalues --   -0.64890  -0.64319  -0.59751  -0.58549  -0.56069
 Alpha  occ. eigenvalues --   -0.55753  -0.49742  -0.48070  -0.45062  -0.39095
 Alpha  occ. eigenvalues --   -0.23419
 Alpha virt. eigenvalues --    0.01082   0.03064   0.03905   0.04069   0.04277
 Alpha virt. eigenvalues --    0.06068   0.06317   0.06427   0.06951   0.10465
 Alpha virt. eigenvalues --    0.11873   0.13199   0.13764   0.14518   0.14800

 Mulliken charges:
               1
     1  O   -1.531725
     2  C    1.637835
     3  C   -0.637472
     4  C    0.367398
     5  C   -0.538848
     6  C    0.178612
     7  C   -0.052496
     8  H    0.232213
     9  H    0.078479
    10  H    0.314515
    11  H   -0.080631
    12  H    0.335806
    13  H    0.076682
    14  H   -0.131663
    15  H   -0.248704
 Sum of Mulliken charges =  -0.00000

 Dipole moment (field-independent basis, Debye):
    X=             -1.4804    Y=              1.0640    Z=             -1.5389  Tot=              2.3858

 Test job not archived.
 1\1\GINC-SE009\SP\RHF\Aug-CC-pVDZ\C6H8O1\OHZDE\09-Apr-2025\0\\#t hf au
 g-cc-pvdz iop(5/13=1,5/36=2,99/5=2) pseudo=read geom=check guess=(read
 ,tcheck) scf=(maxcycle=1)\\title\\0,1\O,0,2.17039138,0.81384715,-0.226
 66824\C,0,0.86307429,0.37222409,-0.38082579\C,0,0.64246861,-1.16663791
 ,-0.03663131\C,0,-0.72149604,-1.19436917,0.48492063\C,0,-1.47420233,0.
 04274747,0.53590021\C,0,-0.43497571,1.11506161,-0.03712382\C,0,-0.0132
 7107,0.85763004,-1.36123113\H,0,2.48136332,0.55379779,0.64312808\H,0,1
 .34510503,-1.60642428,0.69020708\H,0,0.8561047,-1.65236007,-0.98827828

 Normal termination of Gaussian 16 at Wed Apr  9 03:51:51 2025.
