 Gaussian 16, Revision C.01,

 ----------------------------------------------------------------------
 #t hf aug-cc-pvdz symm=none int=(grid=ultrafine) guess=(read,tcheck) s
 table=(opt,rrhf)
 ----------------------------------------------------------------------
 -----
 title
 -----
 Symbolic Z-matrix:
 Charge =  0 Multiplicity = 1

 SCF Done:  E(RHF) =  -272.036961557     A.U. after   13 cycles
 Normal termination of Gaussian 16 at Wed Apr  9 03:39:47 2025.
 Gaussian 16:  ES64L-G16RevC.01  3-Jul-2019

 ----------------------------------------------------------------------
 #t hf aug-cc-pvdz iop(5/13=1,5/36=2,99/5=2) pseudo=read geom=check gue
 ss=(read,tcheck) scf=(maxcycle=1)
 ----------------------------------------------------------------------
 -----
 title
 -----
 Structure from the checkpoint file:  "Grambow2020_wb97xd3_007419_reverse_mol2.chk"
 Charge =  0 Multiplicity = 1

                         Standard orientation:
 ---------------------------------------------------------------------
 Center     Atomic      Atomic             Coordinates (Angstroms)
 Number     Number       Type             X           Y           Z
 ---------------------------------------------------------------------
      1          6           0       -2.408983   -0.628377    0.766201
      2          6           0       -1.581974    0.007533   -0.352412
      3          6           0       -1.266610    1.465153   -0.047987
      4          6           0        2.110343    0.040539   -0.477873
      5          6           0        2.946142    0.030088    0.770674
      6          6           0        0.884102   -0.391604   -0.549424
      7          6           0       -0.343977   -0.820165   -0.612947
      8          1           0       -1.858421   -0.602839    1.710056
      9          1           0       -3.350321   -0.093081    0.908085
     10          1           0       -2.645918   -1.671370    0.545432
     11          1           0       -2.183918   -0.028851   -1.269072
     12          1           0       -0.707076    1.930494   -0.860933
     13          1           0       -2.187013    2.032191    0.104290
     14          1           0        2.566695    0.438794   -1.381146
     15          1           0        2.390925   -0.390544    1.608397
     16          1           0        3.257638    1.043467    1.035494
     17          1           0        3.854082   -0.560229    0.625352
     18          1           0       -0.662483    1.549822    0.858930
     19          1           0       -0.508451   -1.866860   -0.862284
 ---------------------------------------------------------------------

 SCF Done:  E(RHF) =  -272.335371734     A.U. after    2 cycles

 The electronic state is 1-A.
 Alpha  occ. eigenvalues --  -11.24253 -11.24045 -11.23994 -11.23660 -11.23362
 Alpha  occ. eigenvalues --  -11.22256 -11.21754  -1.10984  -1.06206  -0.98147
 Alpha  occ. eigenvalues --   -0.93127  -0.89391  -0.80257  -0.69105  -0.65027
 Alpha  occ. eigenvalues --   -0.64315  -0.60848  -0.57959  -0.57365  -0.55289
 Alpha  occ. eigenvalues --   -0.53881  -0.52955  -0.50220  -0.48935  -0.48294
 Alpha  occ. eigenvalues --   -0.36243  -0.36090
 Alpha virt. eigenvalues --    0.03487   0.03731   0.03879   0.04022   0.05487
 Alpha virt. eigenvalues --    0.05675   0.05895   0.06490   0.07328   0.08875
 Alpha virt. eigenvalues --    0.09136   0.09357   0.11807   0.12760   0.13315

 Mulliken charges:
               1
     1  C   -0.240347
     2  C   -1.125343
     3  C   -0.211108
     4  C    0.121869
     5  C   -0.666308
     6  C   -0.175567
     7  C    0.847293
     8  H    0.230907
     9  H    0.127960
    10  H    0.150191
    11  H    0.209639
    12  H    0.186668
    13  H    0.121274
    14  H   -0.170354
    15  H    0.079957
    16  H    0.216755
    17  H    0.200619
    18  H    0.281068
    19  H   -0.185172
 Sum of Mulliken charges =  -0.00000

 Dipole moment (field-independent basis, Debye):
    X=             -0.0618    Y=              0.1542    Z=              0.1468  Tot=              0.2217

 Test job not archived.
 1\1\GINC-SE080\SP\RHF\Aug-CC-pVDZ\C7H12\OHZDE\09-Apr-2025\0\\#t hf aug
 -cc-pvdz iop(5/13=1,5/36=2,99/5=2) pseudo=read geom=check guess=(read,
 tcheck) scf=(maxcycle=1)\\title\\0,1\C,0,-2.31926439,-0.59869795,-0.74
 448581\C,0,-1.52920267,0.32051391,0.18850669\C,0,-1.0665619,-0.4205730
 3,1.43491732\C,0,2.1314358,0.80318893,0.05892324\C,0,3.05704402,-0.277
 73839,-0.42313915\C,0,0.87059813,0.88996814,-0.25459211\C,0,-0.3911366
 1,0.96784098,-0.56738569\H,0,-1.69737387,-1.43531514,-1.07305397\H,0,-
 3.19708002,-1.00674867,-0.23879367\H,0,-2.66173304,-0.06681255,-1.6347

 Normal termination of Gaussian 16 at Wed Apr  9 03:39:54 2025.
