 Gaussian 16, Revision C.01,

 ----------------------------------------------------------------------
 #t hf aug-cc-pvdz symm=none int=(grid=ultrafine) guess=(read,tcheck) s
 table=(opt,rrhf)
 ----------------------------------------------------------------------
 -----
 title
 -----
 Symbolic Z-matrix:
 Charge =  0 Multiplicity = 1

 SCF Done:  E(RHF) =  -307.032974008     A.U. after   13 cycles

 1\1\GINC-SE141\Stability\RHF\Aug-CC-pVDZ\C4H10O2\OHZDE\09-Apr-2025\0\\
 #t hf aug-cc-pvdz symm=none int=(grid=ultrafine) guess=(read,tcheck) s
 table=(opt,rrhf)\\title\\0,1\O,0,-0.56264542,0.1294733,-2.27568833\C,0
 ,-1.88122699,-0.67809416,0.97398286\C,0,-0.60206182,-0.94434464,0.6719
 5804\C,0,0.58692894,-0.25251964,1.28374605\C,0,1.4759787,0.47701923,0.
 27204452\O,0,0.74307994,1.6067083,-0.23910273\H,0,-0.25764246,0.749930
 53,-1.57668829\H,0,-2.14721884,0.09547382,1.69695366\H,0,-2.70585486,-
 1.22589472,0.51509788\H,0,-1.35702815,-0.25694675,-1.86906893\H,0,-0.3

 Normal termination of Gaussian 16 at Wed Apr  9 16:12:59 2025.
 Gaussian 16:  ES64L-G16RevC.01  3-Jul-2019

 ----------------------------------------------------------------------
 #t hf aug-cc-pvdz iop(5/13=1,5/36=2,99/5=2) pseudo=read geom=check gue
 ss=(read,tcheck) scf=(maxcycle=1)
 ----------------------------------------------------------------------
 -----
 title
 -----
 Structure from the checkpoint file:  "Grambow2020_b97d3_007162_reverse_mol2.chk"
 Charge =  0 Multiplicity = 1

                         Standard orientation:
 ---------------------------------------------------------------------
 Center     Atomic      Atomic             Coordinates (Angstroms)
 Number     Number       Type             X           Y           Z
 ---------------------------------------------------------------------
      1          8           0        0.754053    2.214366   -0.312426
      2          6           0       -2.159695    0.267726    0.507240
      3          6           0       -1.290933   -0.162580   -0.419291
      4          6           0       -0.397405   -1.364608   -0.266505
      5          6           0        1.098563   -1.048600   -0.358137
      6          8           0        1.470550   -0.288980    0.807715
      7          1           0        0.965214    1.426544    0.236521
      8          1           0       -2.263811   -0.237453    1.469425
      9          1           0       -2.800153    1.134363    0.335701
     10          1           0       -0.195644    2.331648   -0.139153
     11          1           0       -1.202203    0.375105   -1.367355
     12          1           0       -0.623310   -2.088952   -1.067467
     13          1           0       -0.592500   -1.867188    0.691976
     14          1           0        1.309823   -0.479016   -1.278585
     15          1           0        1.666326   -1.993727   -0.391441
     16          1           0        2.436253   -0.156042    0.768219
 ---------------------------------------------------------------------

 SCF Done:  E(RHF) =  -307.356789174     A.U. after    2 cycles

 The electronic state is 1-A.
 Alpha  occ. eigenvalues --  -20.57130 -20.52413 -11.30246 -11.25093 -11.24875
 Alpha  occ. eigenvalues --  -11.23911  -1.46344  -1.39972  -1.08692  -0.99424
 Alpha  occ. eigenvalues --   -0.86161  -0.77013  -0.71703  -0.68505  -0.65201
 Alpha  occ. eigenvalues --   -0.64387  -0.58844  -0.57815  -0.55383  -0.55148
 Alpha  occ. eigenvalues --   -0.50907  -0.50188  -0.46559  -0.45848  -0.37355
 Alpha virt. eigenvalues --    0.03116   0.03915   0.04095   0.04426   0.05968
 Alpha virt. eigenvalues --    0.06535   0.07015   0.07792   0.08693   0.10882
 Alpha virt. eigenvalues --    0.11261   0.12431   0.13710   0.13977   0.14623

 Mulliken charges:
               1
     1  O   -0.993537
     2  C   -0.216754
     3  C    0.938541
     4  C   -0.726458
     5  C    0.557308
     6  O   -1.148281
     7  H    0.654960
     8  H   -0.069888
     9  H   -0.108766
    10  H    0.389774
    11  H   -0.169043
    12  H    0.250540
    13  H    0.124174
    14  H    0.162925
    15  H    0.003912
    16  H    0.350594
 Sum of Mulliken charges =  -0.00000

 Dipole moment (field-independent basis, Debye):
    X=              0.1492    Y=             -2.5455    Z=             -0.1327  Tot=              2.5533

 Test job not archived.
 1\1\GINC-SE141\SP\RHF\Aug-CC-pVDZ\C4H10O2\OHZDE\09-Apr-2025\0\\#t hf a
 ug-cc-pvdz iop(5/13=1,5/36=2,99/5=2) pseudo=read geom=check guess=(rea
 d,tcheck) scf=(maxcycle=1)\\title\\0,1\O,0,-0.56264542,0.1294733,-2.27
 568833\C,0,-1.88122699,-0.67809416,0.97398286\C,0,-0.60206182,-0.94434
 464,0.67195804\C,0,0.58692894,-0.25251964,1.28374605\C,0,1.4759787,0.4
 7701923,0.27204452\O,0,0.74307994,1.6067083,-0.23910273\H,0,-0.2576424
 6,0.74993053,-1.57668829\H,0,-2.14721884,0.09547382,1.69695366\H,0,-2.
 70585486,-1.22589472,0.51509788\H,0,-1.35702815,-0.25694675,-1.8690689

 Normal termination of Gaussian 16 at Wed Apr  9 16:13:04 2025.
