 Gaussian 16, Revision C.01,

 ----------------------------------------------------------------------
 #t hf aug-cc-pvdz symm=none int=(grid=ultrafine) guess=(read,tcheck) s
 table=(opt,rrhf)
 ----------------------------------------------------------------------
 -----
 title
 -----
 Symbolic Z-matrix:
 Charge =  0 Multiplicity = 1

 SCF Done:  E(RHF) =  -271.917856938     A.U. after   15 cycles
 Normal termination of Gaussian 16 at Wed Apr  9 18:22:47 2025.
 Gaussian 16:  ES64L-G16RevC.01  3-Jul-2019

 ----------------------------------------------------------------------
 #t hf aug-cc-pvdz iop(5/13=1,5/36=2,99/5=2) pseudo=read geom=check gue
 ss=(read,tcheck) scf=(maxcycle=1)
 ----------------------------------------------------------------------
 -----
 title
 -----
 Structure from the checkpoint file:  "Grambow2020_wb97xd3_007429_reverse_mol1.chk"
 Charge =  0 Multiplicity = 1

                         Standard orientation:
 ---------------------------------------------------------------------
 Center     Atomic      Atomic             Coordinates (Angstroms)
 Number     Number       Type             X           Y           Z
 ---------------------------------------------------------------------
      1          6           0        2.688007    0.130407   -0.220146
      2          6           0        1.419923   -0.707283   -0.127587
      3          6           0        0.299547    0.014300    0.597984
      4          6           0       -0.347780    1.248168   -0.087676
      5          6           0       -1.713956    0.561585    0.015663
      6          6           0       -1.943996   -0.517344   -0.949179
      7          6           0       -1.073553   -0.686409    0.658620
      8          1           0        3.472246   -0.395594   -0.766493
      9          1           0        3.077245    0.371796    0.772328
     10          1           0        2.499542    1.073186   -0.739178
     11          1           0        1.072750   -0.970293   -1.131523
     12          1           0        1.631806   -1.649182    0.389935
     13          1           0        0.610628    0.262077    1.615851
     14          1           0       -0.032707    1.422973   -1.116789
     15          1           0       -0.252571    2.169046    0.486511
     16          1           0       -2.544890    1.032554    0.530131
     17          1           0       -2.902103   -0.985649   -0.669514
     18          1           0       -1.088306   -1.457781   -0.239131
     19          1           0       -1.512796   -1.133673    1.541798
 ---------------------------------------------------------------------

 SCF Done:  E(RHF) =  -272.215345542     A.U. after    2 cycles

 The electronic state is 1-A.
 Alpha  occ. eigenvalues --  -11.26669 -11.24543 -11.24520 -11.24207 -11.22645
 Alpha  occ. eigenvalues --  -11.22619 -11.22309  -1.19360  -1.05560  -0.97344
 Alpha  occ. eigenvalues --   -0.91923  -0.84076  -0.77254  -0.75058  -0.70398
 Alpha  occ. eigenvalues --   -0.62540  -0.60843  -0.58100  -0.56958  -0.54693
 Alpha  occ. eigenvalues --   -0.52358  -0.51390  -0.49027  -0.46869  -0.46189
 Alpha  occ. eigenvalues --   -0.42330  -0.32904
 Alpha virt. eigenvalues --    0.02870   0.03400   0.03558   0.04367   0.05531
 Alpha virt. eigenvalues --    0.05757   0.06033   0.06859   0.07066   0.08859
 Alpha virt. eigenvalues --    0.09212   0.10281   0.11705   0.13235   0.13653

 Mulliken charges:
               1
     1  C   -0.356893
     2  C   -0.437861
     3  C    0.134925
     4  C    0.049112
     5  C    0.544299
     6  C   -0.641453
     7  C   -0.565499
     8  H    0.114425
     9  H    0.174616
    10  H    0.177273
    11  H    0.190668
    12  H    0.134509
    13  H    0.010236
    14  H    0.019677
    15  H   -0.000776
    16  H   -0.155269
    17  H    0.055995
    18  H    0.672273
    19  H   -0.120257
 Sum of Mulliken charges =  -0.00000

 Dipole moment (field-independent basis, Debye):
    X=              0.2421    Y=              0.2748    Z=              2.6234  Tot=              2.6489

 Test job not archived.
 1\1\GINC-SE029\SP\RHF\Aug-CC-pVDZ\C7H12\OHZDE\09-Apr-2025\0\\#t hf aug
 -cc-pvdz iop(5/13=1,5/36=2,99/5=2) pseudo=read geom=check guess=(read,
 tcheck) scf=(maxcycle=1)\\title\\0,1\C,0,2.39466031,0.45475019,-0.6809
 784\C,0,1.14760868,-0.4155432,-0.75702132\C,0,0.25822901,-0.26281888,0
 .46283713\C,0,-0.47649253,1.08883482,0.67451383\C,0,-1.80984098,0.3340
 8818,0.70697545\C,0,-2.30369813,-0.11534694,-0.59764659\C,0,-1.0923583
 8,-1.00841508,0.45418738\H,0,3.00738635,0.34960853,-1.5774793\H,0,3.01
 344443,0.18686088,0.17932402\H,0,2.13191165,1.51070845,-0.58269144\H,0

 Normal termination of Gaussian 16 at Wed Apr  9 18:22:54 2025.
