 Gaussian 16, Revision C.01,

 ----------------------------------------------------------------------
 #t hf aug-cc-pvdz symm=none int=(grid=ultrafine) guess=(read,tcheck) s
 table=(opt,rrhf)
 ----------------------------------------------------------------------
 -----
 title
 -----
 Symbolic Z-matrix:
 Charge =  0 Multiplicity = 1

 SCF Done:  E(RHF) =  -360.931993847     A.U. after   14 cycles
 Normal termination of Gaussian 16 at Wed Apr  9 17:29:35 2025.
 Gaussian 16:  ES64L-G16RevC.01  3-Jul-2019

 ----------------------------------------------------------------------
 #t hf aug-cc-pvdz iop(5/13=1,5/36=2,99/5=2) pseudo=read geom=check gue
 ss=(read,tcheck) scf=(maxcycle=1)
 ----------------------------------------------------------------------
 -----
 title
 -----
 Structure from the checkpoint file:  "Grambow2020_wb97xd3_006612_reverse_mol2.chk"
 Charge =  0 Multiplicity = 1

                         Standard orientation:
 ---------------------------------------------------------------------
 Center     Atomic      Atomic             Coordinates (Angstroms)
 Number     Number       Type             X           Y           Z
 ---------------------------------------------------------------------
      1          6           0        2.720665    0.079702    0.311169
      2          6           0        1.255007   -0.209659    0.373731
      3          8           0       -0.692749    2.385908   -0.585707
      4          6           0        0.624574   -0.904942   -0.567157
      5          7           0       -0.740275   -1.235889   -0.612719
      6          6           0       -1.737569   -0.762096    0.174451
      7          8           0       -1.611050    0.035349    1.076457
      8          1           0        3.235827   -0.340964    1.178203
      9          1           0        2.906957    1.156486    0.323213
     10          1           0        3.177652   -0.333575   -0.589692
     11          1           0        0.699557    0.164591    1.223753
     12          1           0       -1.095600    1.901686    0.143128
     13          1           0        0.081001    1.861063   -0.802331
     14          1           0        1.171234   -1.297395   -1.418264
     15          1           0       -1.024013   -1.858484   -1.348359
     16          1           0       -2.716358   -1.190271   -0.099785
 ---------------------------------------------------------------------

 SCF Done:  E(RHF) =  -361.304577697     A.U. after    2 cycles

 The electronic state is 1-A.
 Alpha  occ. eigenvalues --  -20.53624 -20.52516 -15.56271 -11.38002 -11.29145
 Alpha  occ. eigenvalues --  -11.24564 -11.24161  -1.48617  -1.40857  -1.27971
 Alpha  occ. eigenvalues --   -1.08483  -0.97509  -0.89106  -0.79958  -0.77744
 Alpha  occ. eigenvalues --   -0.70140  -0.67822  -0.64152  -0.63559  -0.61143
 Alpha  occ. eigenvalues --   -0.58211  -0.56547  -0.55142  -0.53424  -0.49182
 Alpha  occ. eigenvalues --   -0.46766  -0.44566  -0.35750
 Alpha virt. eigenvalues --    0.02143   0.03704   0.04182   0.05145   0.05726
 Alpha virt. eigenvalues --    0.06566   0.08059   0.08217   0.08929   0.09930
 Alpha virt. eigenvalues --    0.10445   0.11775   0.12281   0.13597   0.14109

 Mulliken charges:
               1
     1  C   -0.868302
     2  C    0.971683
     3  O   -0.995908
     4  C   -0.768129
     5  N    0.906914
     6  C    0.559565
     7  O   -1.110678
     8  H    0.232543
     9  H    0.205483
    10  H    0.098979
    11  H   -0.220535
    12  H    0.499997
    13  H    0.487860
    14  H   -0.209450
    15  H    0.167695
    16  H    0.042283
 Sum of Mulliken charges =  -0.00000

 Dipole moment (field-independent basis, Debye):
    X=              1.1666    Y=             -4.4703    Z=             -1.8023  Tot=              4.9591

 Test job not archived.
 1\1\GINC-SE051\SP\RHF\Aug-CC-pVDZ\C4H9N1O2\OHZDE\09-Apr-2025\0\\#t hf
 aug-cc-pvdz iop(5/13=1,5/36=2,99/5=2) pseudo=read geom=check guess=(re
 ad,tcheck) scf=(maxcycle=1)\\title\\0,1\C,0,-1.92741474,-1.3483656,-0.
 2371688\C,0,-0.5577401,-0.75262685,-0.3070672\O,0,-0.54133093,2.630258
 29,-0.39109173\C,0,0.22350036,-0.63351123,0.76139387\N,0,1.51971622,-0
 .09365151,0.81423004\C,0,2.17441945,0.59360058,-0.15414943\O,0,1.74337
 292,0.85151598,-1.25561158\H,0,-1.99985365,-2.2292538,-0.87973292\H,0,
 -2.68056104,-0.63789823,-0.58691055\H,0,-2.18867412,-1.64655459,0.7796

 Normal termination of Gaussian 16 at Wed Apr  9 17:29:41 2025.
