 Gaussian 16, Revision C.01,

 ----------------------------------------------------------------------
 #t hf aug-cc-pvdz symm=none int=(grid=ultrafine) guess=(read,tcheck) s
 table=(opt,rrhf)
 ----------------------------------------------------------------------
 -----
 title
 -----
 Symbolic Z-matrix:
 Charge =  0 Multiplicity = 1

 SCF Done:  E(RHF) =  -307.758656346     A.U. after   15 cycles

 1\1\GINC-SE131\Stability\RHF\Aug-CC-pVDZ\C6H10O1\OHZDE\09-Apr-2025\0\\
 #t hf aug-cc-pvdz symm=none int=(grid=ultrafine) guess=(read,tcheck) s
 table=(opt,rrhf)\\title\\0,1\C,0,-2.27786797,0.09881317,0.36530589\C,0
 ,-0.79145483,-0.03548828,0.49239693\C,0,-0.1290765,-1.2338381,0.000590
 7\C,0,1.31054028,-1.17725332,0.21353733\C,0,1.94846875,0.00606789,0.21
 278142\C,0,1.24856414,1.24992309,-0.27383177\O,0,-0.11792691,0.9549535
 4,-0.65667602\H,0,-2.75029913,-0.48028997,1.16191176\H,0,-2.62836953,-
 0.28656758,-0.59223202\H,0,-2.59080899,1.13763866,0.46787155\H,0,-0.38

 Normal termination of Gaussian 16 at Wed Apr  9 19:17:13 2025.
 Gaussian 16:  ES64L-G16RevC.01  3-Jul-2019

 ----------------------------------------------------------------------
 #t hf aug-cc-pvdz iop(5/13=1,5/36=2,99/5=2) pseudo=read geom=check gue
 ss=(read,tcheck) scf=(maxcycle=1)
 ----------------------------------------------------------------------
 -----
 title
 -----
 Structure from the checkpoint file:  "Grambow2020_wb97xd3_009037_forward_mol1.chk"
 Charge =  0 Multiplicity = 1

                         Standard orientation:
 ---------------------------------------------------------------------
 Center     Atomic      Atomic             Coordinates (Angstroms)
 Number     Number       Type             X           Y           Z
 ---------------------------------------------------------------------
      1          6           0        2.397655   -0.104914    0.167708
      2          6           0        0.929590    0.117716    0.364769
      3          6           0        0.263781    1.208015   -0.331369
      4          6           0       -1.156167    1.261134   -0.012041
      5          6           0       -1.823852    0.134524    0.291521
      6          6           0       -1.197195   -1.214315    0.042985
      7          8           0        0.143201   -1.068725   -0.489007
      8          1           0        2.945418    0.612500    0.782854
      9          1           0        2.683631    0.047781   -0.873037
     10          1           0        2.689513   -1.109148    0.474210
     11          1           0        0.578890   -0.122616    1.373952
     12          1           0        0.105308   -0.121197   -1.123362
     13          1           0        0.816950    2.099726   -0.592273
     14          1           0       -1.684168    2.210459   -0.025944
     15          1           0       -2.870261    0.141192    0.569456
     16          1           0       -1.158254   -1.863016    0.923054
     17          1           0       -1.735505   -1.758839   -0.738290
 ---------------------------------------------------------------------

 SCF Done:  E(RHF) =  -308.085908637     A.U. after    2 cycles

 The electronic state is 1-A.
 Alpha  occ. eigenvalues --  -20.59421 -11.31632 -11.30023 -11.24042 -11.23498
 Alpha  occ. eigenvalues --  -11.20834 -11.18094  -1.49271  -1.09200  -1.05824
 Alpha  occ. eigenvalues --   -0.96682  -0.87980  -0.81814  -0.76732  -0.69114
 Alpha  occ. eigenvalues --   -0.64969  -0.64810  -0.61718  -0.58586  -0.57874
 Alpha  occ. eigenvalues --   -0.56208  -0.54320  -0.50712  -0.49863  -0.47729
 Alpha  occ. eigenvalues --   -0.39376  -0.26410
 Alpha virt. eigenvalues --    0.03526   0.03700   0.04052   0.04243   0.05783
 Alpha virt. eigenvalues --    0.05805   0.06170   0.07143   0.08558   0.09710
 Alpha virt. eigenvalues --    0.11015   0.12780   0.13544   0.13727   0.14287

 Mulliken charges:
               1
     1  C   -0.457975
     2  C    0.075376
     3  C   -0.388867
     4  C    0.516714
     5  C   -0.010510
     6  C    0.448134
     7  O   -1.381000
     8  H    0.265008
     9  H    0.196145
    10  H    0.187196
    11  H   -0.017983
    12  H    1.044556
    13  H   -0.274049
    14  H   -0.166963
    15  H   -0.164325
    16  H    0.105488
    17  H    0.023054
 Sum of Mulliken charges =  -0.00000

 Dipole moment (field-independent basis, Debye):
    X=              0.6511    Y=             -1.0327    Z=              0.8308  Tot=              1.4767

 Test job not archived.
 1\1\GINC-SE131\SP\RHF\Aug-CC-pVDZ\C6H10O1\OHZDE\09-Apr-2025\0\\#t hf a
 ug-cc-pvdz iop(5/13=1,5/36=2,99/5=2) pseudo=read geom=check guess=(rea
 d,tcheck) scf=(maxcycle=1)\\title\\0,1\C,0,-2.27786797,0.09881317,0.36
 530589\C,0,-0.79145483,-0.03548828,0.49239693\C,0,-0.1290765,-1.233838
 1,0.0005907\C,0,1.31054028,-1.17725332,0.21353733\C,0,1.94846875,0.006
 06789,0.21278142\C,0,1.24856414,1.24992309,-0.27383177\O,0,-0.11792691
 ,0.95495354,-0.65667602\H,0,-2.75029913,-0.48028997,1.16191176\H,0,-2.
 62836953,-0.28656758,-0.59223202\H,0,-2.59080899,1.13763866,0.46787155

 Normal termination of Gaussian 16 at Wed Apr  9 19:17:19 2025.
