 Gaussian 16, Revision C.01,

 ----------------------------------------------------------------------
 #t hf aug-cc-pvdz symm=none int=(grid=ultrafine) guess=(read,tcheck) s
 table=(opt,rrhf)
 ----------------------------------------------------------------------
 -----
 title
 -----
 Symbolic Z-matrix:
 Charge =  0 Multiplicity = 1

 SCF Done:  E(RHF) =  -324.845902415     A.U. after   15 cycles
 Normal termination of Gaussian 16 at Wed Apr  9 04:06:01 2025.
 Gaussian 16:  ES64L-G16RevC.01  3-Jul-2019

 ----------------------------------------------------------------------
 #t hf aug-cc-pvdz iop(5/13=1,5/36=2,99/5=2) pseudo=read geom=check gue
 ss=(read,tcheck) scf=(maxcycle=1)
 ----------------------------------------------------------------------
 -----
 title
 -----
 Structure from the checkpoint file:  "Grambow2020_wb97xd3_009235_reverse_mol1.chk"
 Charge =  0 Multiplicity = 1

                         Standard orientation:
 ---------------------------------------------------------------------
 Center     Atomic      Atomic             Coordinates (Angstroms)
 Number     Number       Type             X           Y           Z
 ---------------------------------------------------------------------
      1          6           0       -2.641098   -0.396307   -0.359477
      2          8           0       -1.683433    0.502145   -0.332830
      3          6           0       -0.554084    0.301227    0.265829
      4          6           0        0.298501   -0.937343    0.245356
      5          7           0        1.464256   -0.050285    0.417472
      6          6           0        2.613800   -0.301514   -0.413746
      7          6           0        0.670111    1.161441    0.120622
      8          1           0       -2.370044   -1.442812   -0.307528
      9          1           0       -3.540227   -0.059712   -0.849618
     10          1           0       -2.383321   -0.348417    1.613226
     11          1           0       -1.665019   -0.063718    1.815552
     12          1           0        0.175329   -1.692500    1.024550
     13          1           0        0.256345   -1.432666   -0.744008
     14          1           0        2.371802   -0.320768   -1.490645
     15          1           0        3.059627   -1.261454   -0.146435
     16          1           0        3.364313    0.473184   -0.245960
     17          1           0        0.807768    1.536549   -0.906024
     18          1           0        0.817717    1.982124    0.825727
 ---------------------------------------------------------------------

 SCF Done:  E(RHF) =  -325.188798021     A.U. after    2 cycles

 The electronic state is 1-A.
 Alpha  occ. eigenvalues --  -20.65812 -15.49733 -11.30869 -11.29191 -11.27384
 Alpha  occ. eigenvalues --  -11.27243 -11.25959  -1.59111  -1.26609  -1.05196
 Alpha  occ. eigenvalues --   -0.97783  -0.94851  -0.85054  -0.77792  -0.72798
 Alpha  occ. eigenvalues --   -0.71565  -0.70585  -0.65226  -0.63236  -0.60000
 Alpha  occ. eigenvalues --   -0.57708  -0.55998  -0.54466  -0.52369  -0.51165
 Alpha  occ. eigenvalues --   -0.47839  -0.40541  -0.26716
 Alpha virt. eigenvalues --    0.03639   0.03961   0.04292   0.04834   0.05479
 Alpha virt. eigenvalues --    0.05728   0.05967   0.06687   0.07602   0.08460
 Alpha virt. eigenvalues --    0.09560   0.09971   0.11085   0.11868   0.14218

 Mulliken charges:
               1
     1  C    0.306013
     2  O   -1.138606
     3  C    0.903847
     4  C   -0.449287
     5  N    0.552796
     6  C   -0.368228
     7  C   -0.380349
     8  H    0.051439
     9  H   -0.092630
    10  H   -0.072676
    11  H    0.237630
    12  H   -0.046099
    13  H    0.093699
    14  H    0.172063
    15  H    0.070356
    16  H    0.070343
    17  H    0.075417
    18  H    0.014273
 Sum of Mulliken charges =  -0.00000

 Dipole moment (field-independent basis, Debye):
    X=              0.9338    Y=             -0.4106    Z=             -2.0064  Tot=              2.2508

 Test job not archived.
 1\1\GINC-SE332\SP\RHF\Aug-CC-pVDZ\C5H11N1O1\OHZDE\09-Apr-2025\0\\#t hf
  aug-cc-pvdz iop(5/13=1,5/36=2,99/5=2) pseudo=read geom=check guess=(r
 ead,tcheck) scf=(maxcycle=1)\\title\\0,1\C,0,2.59458592,0.86969961,-0.
 04244879\O,0,1.52754421,0.85000416,-0.80800964\C,0,0.56960295,-0.00505
 66,-0.64861084\C,0,-0.06656205,-0.45538871,0.63741789\N,0,-1.30786489,
 -0.66003441,-0.13249589\C,0,-2.5332685,-0.17420055,0.44874569\C,0,-0.7
 8098197,0.07274719,-1.30403018\H,0,2.50580736,0.51903725,0.97759815\H,
 0,3.32695525,1.60442098,-0.33534202\H,0,2.68958841,-1.04599602,-0.5729

 Normal termination of Gaussian 16 at Wed Apr  9 04:06:06 2025.
