 Gaussian 16, Revision C.01,

 ----------------------------------------------------------------------
 #t hf aug-cc-pvdz symm=none int=(grid=ultrafine) guess=(read,tcheck) s
 table=(opt,rrhf)
 ----------------------------------------------------------------------
 -----
 title
 -----
 Symbolic Z-matrix:
 Charge =  0 Multiplicity = 1

 SCF Done:  E(RHF) =  -266.829121642     A.U. after   12 cycles
 Normal termination of Gaussian 16 at Wed Apr  9 15:42:35 2025.
 Gaussian 16:  ES64L-G16RevC.01  3-Jul-2019

 ----------------------------------------------------------------------
 #t hf aug-cc-pvdz iop(5/13=1,5/36=2,99/5=2) pseudo=read geom=check gue
 ss=(read,tcheck) scf=(maxcycle=1)
 ----------------------------------------------------------------------
 -----
 title
 -----
 Structure from the checkpoint file:  "Grambow2020_b97d3_006693_forward_mol2.chk"
 Charge =  0 Multiplicity = 1

                         Standard orientation:
 ---------------------------------------------------------------------
 Center     Atomic      Atomic             Coordinates (Angstroms)
 Number     Number       Type             X           Y           Z
 ---------------------------------------------------------------------
      1          6           0       -1.042190   -0.651297   -0.094527
      2          6           0       -0.841801    0.849226    0.179157
      3          8           0        0.495698    1.073202   -0.273249
      4          6           0        1.183361   -0.095382    0.119455
      5          8           0        0.282686   -1.195281   -0.009400
      6          1           0       -1.448889   -0.829440   -1.102555
      7          1           0       -1.693092   -1.133576    0.648870
      8          1           0       -1.509877    1.505398   -0.389759
      9          1           0       -0.934695    1.071825    1.257851
     10          1           0        2.042547   -0.231119   -0.550880
     11          1           0        1.520709   -0.021733    1.173157
 ---------------------------------------------------------------------

 SCF Done:  E(RHF) =  -267.103183393     A.U. after    2 cycles

 The electronic state is 1-A.
 Alpha  occ. eigenvalues --  -20.56056 -20.55217 -11.34028 -11.29864 -11.29536
 Alpha  occ. eigenvalues --   -1.51908  -1.42162  -1.03291  -0.87588  -0.85549
 Alpha  occ. eigenvalues --   -0.71886  -0.70899  -0.64130  -0.61199  -0.58154
 Alpha  occ. eigenvalues --   -0.56849  -0.51131  -0.50443  -0.44222  -0.41857
 Alpha virt. eigenvalues --    0.03667   0.04308   0.04676   0.04911   0.06601
 Alpha virt. eigenvalues --    0.07160   0.10173   0.10301   0.12148   0.14242
 Alpha virt. eigenvalues --    0.14925   0.15117   0.16169   0.16686   0.17702

 Mulliken charges:
               1
     1  C    0.591143
     2  C    0.258109
     3  O   -1.239561
     4  C    1.101507
     5  O   -1.272480
     6  H    0.074498
     7  H    0.116179
     8  H    0.068711
     9  H    0.103484
    10  H    0.051474
    11  H    0.146937
 Sum of Mulliken charges =  -0.00000

 Dipole moment (field-independent basis, Debye):
    X=             -1.2434    Y=              0.3995    Z=              0.7164  Tot=              1.4895

 Test job not archived.
 1\1\GINC-SE114\SP\RHF\Aug-CC-pVDZ\C3H6O2\OHZDE\09-Apr-2025\0\\#t hf au
 g-cc-pvdz iop(5/13=1,5/36=2,99/5=2) pseudo=read geom=check guess=(read
 ,tcheck) scf=(maxcycle=1)\\title\\0,1\C,0,0.52160679,0.96892658,0.1910
 7662\C,0,0.93593775,-0.48370506,-0.10015746\O,0,-0.2042897,-1.00127745
 ,-0.789896\C,0,-1.29811837,-0.40877319,-0.12268973\O,0,-0.90989795,0.9
 0869493,0.26609984\H,0,0.81899121,1.64724323,-0.62422022\H,0,0.9305677
 6,1.34311255,1.14062436\H,0,1.80712075,-0.58191186,-0.75738461\H,0,1.1
 1494361,-1.04098608,0.83747614\H,0,-2.14364516,-0.36178194,-0.82186814

 Normal termination of Gaussian 16 at Wed Apr  9 15:42:38 2025.
