 Gaussian 16, Revision C.01,

 ----------------------------------------------------------------------
 #t hf aug-cc-pvdz symm=none int=(grid=ultrafine) guess=(read,tcheck) s
 table=(opt,rrhf)
 ----------------------------------------------------------------------
 -----
 title
 -----
 Symbolic Z-matrix:
 Charge =  0 Multiplicity = 1

 SCF Done:  E(RHF) =  -307.734143178     A.U. after   17 cycles

 1\1\GINC-SE173\Stability\RHF\Aug-CC-pVDZ\C6H10O1\OHZDE\09-Apr-2025\0\\
 #t hf aug-cc-pvdz symm=none int=(grid=ultrafine) guess=(read,tcheck) s
 table=(opt,rrhf)\\title\\0,1\C,0,2.09660425,0.20835889,0.27464946\C,0,
 0.64900331,-0.06778626,-0.02539699\C,0,0.05096897,-1.38307417,0.086679
 8\C,0,-1.40519751,-1.13897893,0.3098032\C,0,-1.68391102,0.22411331,-0.
 33675821\C,0,-0.40162987,0.9411983,-0.04050567\O,0,-0.25486594,2.20471
 499,-0.52554724\H,0,2.23669409,0.28232251,1.35357601\H,0,2.44804438,1.
 13612571,-0.18142342\H,0,2.72140277,-0.60517596,-0.09422172\H,0,0.5841

 Normal termination of Gaussian 16 at Wed Apr  9 18:35:46 2025.
 Gaussian 16:  ES64L-G16RevC.01  3-Jul-2019

 ----------------------------------------------------------------------
 #t hf aug-cc-pvdz iop(5/13=1,5/36=2,99/5=2) pseudo=read geom=check gue
 ss=(read,tcheck) scf=(maxcycle=1)
 ----------------------------------------------------------------------
 -----
 title
 -----
 Structure from the checkpoint file:  "Grambow2020_wb97xd3_007741_forward_mol1.chk"
 Charge =  0 Multiplicity = 1

                         Standard orientation:
 ---------------------------------------------------------------------
 Center     Atomic      Atomic             Coordinates (Angstroms)
 Number     Number       Type             X           Y           Z
 ---------------------------------------------------------------------
      1          6           0        1.991155   -0.970541    0.087550
      2          6           0        0.566854   -0.530432   -0.111209
      3          6           0       -0.544364   -1.455407   -0.210218
      4          6           0       -1.747562   -0.676108    0.207866
      5          6           0       -1.406564    0.784962   -0.112662
      6          6           0        0.061187    0.802104    0.190052
      7          8           0        0.742294    1.958589   -0.037797
      8          1           0        2.153585   -1.213125    1.138239
      9          1           0        2.710187   -0.201593   -0.202235
     10          1           0        2.197344   -1.863186   -0.503169
     11          1           0       -0.427878   -2.514003   -0.017638
     12          1           0       -1.782866   -0.727293    1.319438
     13          1           0       -2.710108   -1.010412   -0.177584
     14          1           0       -1.571487    1.015727   -1.183192
     15          1           0       -1.983673    1.501238    0.469478
     16          1           0        0.335864   -0.280373   -1.202391
     17          1           0        1.616446    1.896843    0.353159
 ---------------------------------------------------------------------

 SCF Done:  E(RHF) =  -308.061056209     A.U. after    2 cycles

 The electronic state is 1-A.
 Alpha  occ. eigenvalues --  -20.58868 -11.31444 -11.26608 -11.24904 -11.23720
 Alpha  occ. eigenvalues --  -11.23045 -11.21464  -1.50037  -1.16798  -1.03590
 Alpha  occ. eigenvalues --   -0.94661  -0.92579  -0.78684  -0.77688  -0.69167
 Alpha  occ. eigenvalues --   -0.66794  -0.64498  -0.60216  -0.59086  -0.56446
 Alpha  occ. eigenvalues --   -0.55715  -0.53993  -0.50564  -0.50170  -0.48515
 Alpha  occ. eigenvalues --   -0.46901  -0.21234
 Alpha virt. eigenvalues --    0.02699   0.03877   0.04049   0.04384   0.05296
 Alpha virt. eigenvalues --    0.05880   0.06175   0.06375   0.07868   0.08438
 Alpha virt. eigenvalues --    0.09524   0.11369   0.12439   0.13397   0.13788

 Mulliken charges:
               1
     1  C   -0.408993
     2  C   -0.415919
     3  C    0.003276
     4  C   -0.506740
     5  C   -0.299751
     6  C    0.993639
     7  O   -1.499834
     8  H    0.249091
     9  H    0.171192
    10  H    0.195258
    11  H   -0.212448
    12  H    0.257538
    13  H    0.087849
    14  H    0.194995
    15  H    0.120057
    16  H    0.762325
    17  H    0.308466
 Sum of Mulliken charges =  -0.00000

 Dipole moment (field-independent basis, Debye):
    X=              1.9488    Y=              0.3545    Z=              0.7474  Tot=              2.1171

 Test job not archived.
 1\1\GINC-SE173\SP\RHF\Aug-CC-pVDZ\C6H10O1\OHZDE\09-Apr-2025\0\\#t hf a
 ug-cc-pvdz iop(5/13=1,5/36=2,99/5=2) pseudo=read geom=check guess=(rea
 d,tcheck) scf=(maxcycle=1)\\title\\0,1\C,0,2.09660425,0.20835889,0.274
 64946\C,0,0.64900331,-0.06778626,-0.02539699\C,0,0.05096897,-1.3830741
 7,0.0866798\C,0,-1.40519751,-1.13897893,0.3098032\C,0,-1.68391102,0.22
 411331,-0.33675821\C,0,-0.40162987,0.9411983,-0.04050567\O,0,-0.254865
 94,2.20471499,-0.52554724\H,0,2.23669409,0.28232251,1.35357601\H,0,2.4
 4804438,1.13612571,-0.18142342\H,0,2.72140277,-0.60517596,-0.09422172\

 Normal termination of Gaussian 16 at Wed Apr  9 18:35:52 2025.
