 Gaussian 16, Revision C.01,

 ----------------------------------------------------------------------
 #t hf aug-cc-pvdz symm=none int=(grid=ultrafine) guess=(read,tcheck) s
 table=(opt,rrhf)
 ----------------------------------------------------------------------
 -----
 title
 -----
 Symbolic Z-matrix:
 Charge =  0 Multiplicity = 1

 SCF Done:  E(RHF) =  -342.485145914     A.U. after   17 cycles
 Normal termination of Gaussian 16 at Wed Apr  9 19:04:52 2025.
 Gaussian 16:  ES64L-G16RevC.01  3-Jul-2019

 ----------------------------------------------------------------------
 #t hf aug-cc-pvdz iop(5/13=1,5/36=2,99/5=2) pseudo=read geom=check gue
 ss=(read,tcheck) scf=(maxcycle=1)
 ----------------------------------------------------------------------
 -----
 title
 -----
 Structure from the checkpoint file:  "Grambow2020_wb97xd3_008522_reverse_mol2.chk"
 Charge =  0 Multiplicity = 1

                         Standard orientation:
 ---------------------------------------------------------------------
 Center     Atomic      Atomic             Coordinates (Angstroms)
 Number     Number       Type             X           Y           Z
 ---------------------------------------------------------------------
      1          8           0        2.314930   -0.012406    0.077127
      2          6           0        1.095697   -0.031883    0.005542
      3          6           0        0.321718   -1.221530    0.115816
      4          8           0       -1.009954   -1.196639   -0.110166
      5          6           0       -1.730669   -0.149671   -0.085047
      6          6           0       -1.103649    1.123764    0.303279
      7          6           0        0.295270    1.231991   -0.296553
      8          1           0        0.728619   -2.218316    0.098112
      9          1           0        0.255016    1.350102   -1.384615
     10          1           0       -2.780366   -0.321200   -0.279159
     11          1           0       -0.998036    1.088085    1.403471
     12          1           0       -1.747607    1.968637    0.062723
     13          1           0        0.832367    2.089031    0.105566
 ---------------------------------------------------------------------

 SCF Done:  E(RHF) =  -342.830786789     A.U. after    2 cycles

 The electronic state is 1-A.
 Alpha  occ. eigenvalues --  -20.69922 -20.48119 -11.38162 -11.31065 -11.28611
 Alpha  occ. eigenvalues --  -11.25958 -11.25460  -1.62749  -1.42014  -1.12239
 Alpha  occ. eigenvalues --   -1.06368  -0.92905  -0.88581  -0.78899  -0.73600
 Alpha  occ. eigenvalues --   -0.70334  -0.67749  -0.62812  -0.62006  -0.60669
 Alpha  occ. eigenvalues --   -0.57406  -0.55469  -0.52684  -0.47946  -0.38003
 Alpha  occ. eigenvalues --   -0.28005
 Alpha virt. eigenvalues --    0.01846   0.02738   0.03329   0.04194   0.04924
 Alpha virt. eigenvalues --    0.06192   0.06485   0.09204   0.10642   0.11960
 Alpha virt. eigenvalues --    0.12065   0.12661   0.13877   0.14594   0.14690

 Mulliken charges:
               1
     1  O   -1.490822
     2  C    1.267900
     3  C    0.675979
     4  O   -1.267008
     5  C    1.090656
     6  C   -0.596388
     7  C   -0.423897
     8  H   -0.141154
     9  H    0.242335
    10  H   -0.010568
    11  H    0.331634
    12  H    0.142689
    13  H    0.178642
 Sum of Mulliken charges =  -0.00000

 Dipole moment (field-independent basis, Debye):
    X=             -6.8401    Y=              1.6272    Z=             -0.4753  Tot=              7.0470

 Test job not archived.
 1\1\GINC-SE222\SP\RHF\Aug-CC-pVDZ\C5H6O2\OHZDE\09-Apr-2025\0\\#t hf au
 g-cc-pvdz iop(5/13=1,5/36=2,99/5=2) pseudo=read geom=check guess=(read
 ,tcheck) scf=(maxcycle=1)\\title\\0,1\O,0,1.52871656,1.88225604,0.9232
 0048\C,0,0.94618961,0.92440868,0.43820212\C,0,1.55174958,-0.35024046,0
 .25103983\O,0,0.90033512,-1.3275161,-0.41651505\C,0,-0.35472787,-1.356
 99869,-0.61689037\C,0,-1.1863443,-0.30556511,-0.00985507\C,0,-0.479877
 82,1.04448053,-0.09211628\H,0,2.60575223,-0.5460454,0.3520531\H,0,-0.4
 2320076,1.40305105,-1.12539482\H,0,-0.70312445,-2.22311914,-1.16225338

 Normal termination of Gaussian 16 at Wed Apr  9 19:04:56 2025.
