 Gaussian 16, Revision C.01,

 ----------------------------------------------------------------------
 #t hf aug-cc-pvdz symm=none int=(grid=ultrafine) guess=(read,tcheck) s
 table=(opt,rrhf)
 ----------------------------------------------------------------------
 -----
 title
 -----
 Symbolic Z-matrix:
 Charge =  0 Multiplicity = 1

 SCF Done:  E(RHF) =  -307.657772352     A.U. after   16 cycles

 1\1\GINC-SE029\Stability\RHF\Aug-CC-pVDZ\C6H10O1\OHZDE\09-Apr-2025\0\\
 #t hf aug-cc-pvdz symm=none int=(grid=ultrafine) guess=(read,tcheck) s
 table=(opt,rrhf)\\title\\0,1\C,0,1.96323723,0.04793771,0.0108672\C,0,0
 .52428321,-0.35863995,0.04937233\C,0,0.04654785,-1.48145056,0.55908715
 \C,0,-1.41329352,-1.38314979,0.38668866\C,0,-1.36208236,-0.00871718,-0
 .34022543\C,0,-0.25088842,1.57790476,-0.82495497\O,0,0.26131441,2.3570
 4587,0.14125747\H,0,2.115433,1.04927217,0.41334476\H,0,2.35863721,0.02
 661894,-1.00722974\H,0,2.54297226,-0.65474684,0.61642802\H,0,0.6284613

 Normal termination of Gaussian 16 at Wed Apr  9 18:34:45 2025.
 Gaussian 16:  ES64L-G16RevC.01  3-Jul-2019

 ----------------------------------------------------------------------
 #t hf aug-cc-pvdz iop(5/13=1,5/36=2,99/5=2) pseudo=read geom=check gue
 ss=(read,tcheck) scf=(maxcycle=1)
 ----------------------------------------------------------------------
 -----
 title
 -----
 Structure from the checkpoint file:  "Grambow2020_wb97xd3_007728_forward_mol1.chk"
 Charge =  0 Multiplicity = 1

                         Standard orientation:
 ---------------------------------------------------------------------
 Center     Atomic      Atomic             Coordinates (Angstroms)
 Number     Number       Type             X           Y           Z
 ---------------------------------------------------------------------
      1          6           0        0.732938    1.832005    0.135804
      2          6           0       -0.242504    0.699126    0.086055
      3          6           0       -1.523413    0.788814   -0.230128
      4          6           0       -2.024809   -0.595214   -0.170223
      5          6           0       -0.666417   -1.201782    0.284681
      6          6           0        1.292709   -0.902012    0.527672
      7          8           0        2.064167   -0.622216   -0.535129
      8          1           0        1.634338    1.620119   -0.439005
      9          1           0        1.029567    2.060716    1.161971
     10          1           0        0.259284    2.722063   -0.288473
     11          1           0       -2.059571    1.698668   -0.483500
     12          1           0       -2.355920   -0.990962   -1.134627
     13          1           0       -2.823351   -0.773091    0.556957
     14          1           0       -0.715876   -1.550008    1.310537
     15          1           0       -0.400948   -2.037903   -0.355735
     16          1           0        1.448884   -0.112085    1.268869
     17          1           0        2.059227   -1.385406   -1.119126
 ---------------------------------------------------------------------

 SCF Done:  E(RHF) =  -307.980648415     A.U. after    2 cycles

 The electronic state is 1-A.
 Alpha  occ. eigenvalues --  -20.57616 -11.28233 -11.27954 -11.26415 -11.23117
 Alpha  occ. eigenvalues --  -11.22945 -11.22892  -1.49231  -1.13033  -1.00656
 Alpha  occ. eigenvalues --   -0.92763  -0.87403  -0.83301  -0.70648  -0.65762
 Alpha  occ. eigenvalues --   -0.64945  -0.64335  -0.62508  -0.59063  -0.57090
 Alpha  occ. eigenvalues --   -0.53624  -0.51778  -0.51211  -0.49779  -0.41429
 Alpha  occ. eigenvalues --   -0.36147  -0.30322
 Alpha virt. eigenvalues --    0.03373   0.03737   0.03971   0.04297   0.05884
 Alpha virt. eigenvalues --    0.06031   0.06301   0.06966   0.08437   0.09478
 Alpha virt. eigenvalues --    0.10811   0.12423   0.12953   0.13031   0.13859

 Mulliken charges:
               1
     1  C   -0.914951
     2  C    0.357585
     3  C    0.067446
     4  C   -0.753125
     5  C    0.228478
     6  C    0.549860
     7  O   -1.043317
     8  H    0.280548
     9  H    0.244470
    10  H    0.063476
    11  H   -0.167293
    12  H    0.175620
    13  H    0.158947
    14  H    0.192204
    15  H    0.066053
    16  H    0.183277
    17  H    0.310722
 Sum of Mulliken charges =  -0.00000

 Dipole moment (field-independent basis, Debye):
    X=             -0.9553    Y=              0.0699    Z=             -0.8987  Tot=              1.3134

 Test job not archived.
 1\1\GINC-SE029\SP\RHF\Aug-CC-pVDZ\C6H10O1\OHZDE\09-Apr-2025\0\\#t hf a
 ug-cc-pvdz iop(5/13=1,5/36=2,99/5=2) pseudo=read geom=check guess=(rea
 d,tcheck) scf=(maxcycle=1)\\title\\0,1\C,0,1.96323723,0.04793771,0.010
 8672\C,0,0.52428321,-0.35863995,0.04937233\C,0,0.04654785,-1.48145056,
 0.55908715\C,0,-1.41329352,-1.38314979,0.38668866\C,0,-1.36208236,-0.0
 0871718,-0.34022543\C,0,-0.25088842,1.57790476,-0.82495497\O,0,0.26131
 441,2.35704587,0.14125747\H,0,2.115433,1.04927217,0.41334476\H,0,2.358
 63721,0.02661894,-1.00722974\H,0,2.54297226,-0.65474684,0.61642802\H,0

 Normal termination of Gaussian 16 at Wed Apr  9 18:34:51 2025.
