 Gaussian 16, Revision C.01,

 ----------------------------------------------------------------------
 #t hf aug-cc-pvdz symm=none int=(grid=ultrafine) guess=(read,tcheck) s
 table=(opt,rrhf)
 ----------------------------------------------------------------------
 -----
 title
 -----
 Symbolic Z-matrix:
 Charge =  0 Multiplicity = 1

 SCF Done:  E(RHF) =  -247.706345910     A.U. after   18 cycles
 Normal termination of Gaussian 16 at Wed Apr  9 16:54:08 2025.
 Gaussian 16:  ES64L-G16RevC.01  3-Jul-2019

 ----------------------------------------------------------------------
 #t hf aug-cc-pvdz iop(5/13=1,5/36=2,99/5=2) pseudo=read geom=check gue
 ss=(read,tcheck) scf=(maxcycle=1)
 ----------------------------------------------------------------------
 -----
 title
 -----
 Structure from the checkpoint file:  "Grambow2020_wb97xd3_006168_forward_mol1.chk"
 Charge =  0 Multiplicity = 1

                         Standard orientation:
 ---------------------------------------------------------------------
 Center     Atomic      Atomic             Coordinates (Angstroms)
 Number     Number       Type             X           Y           Z
 ---------------------------------------------------------------------
      1          6           0       -2.008941   -0.165719   -0.521215
      2          6           0       -0.880173    0.071834    0.465383
      3          6           0        0.235770   -0.947034    0.479628
      4          6           0        0.106233    1.167608    0.136355
      5          6           0        1.229471    0.423326   -0.152134
      6          7           0        2.141236   -0.290192   -0.477403
      7          1           0       -2.681313    0.693645   -0.535132
      8          1           0       -2.593147   -1.052440   -0.259249
      9          1           0       -1.611976   -0.292220   -1.530345
     10          1           0       -1.268569    0.147205    1.486957
     11          1           0        0.248382   -1.757555   -0.240925
     12          1           0        0.687383   -1.176775    1.435144
     13          1           0        0.136427    2.169399    0.537275
 ---------------------------------------------------------------------

 SCF Done:  E(RHF) =  -247.962540810     A.U. after    2 cycles

 The electronic state is 1-A.
 Alpha  occ. eigenvalues --  -15.52981 -11.35113 -11.29889 -11.26908 -11.23486
 Alpha  occ. eigenvalues --  -11.22262  -1.25508  -1.13642  -0.98171  -0.94164
 Alpha  occ. eigenvalues --   -0.81797  -0.70938  -0.68480  -0.63788  -0.61263
 Alpha  occ. eigenvalues --   -0.59032  -0.56588  -0.54663  -0.52690  -0.51163
 Alpha  occ. eigenvalues --   -0.46564  -0.30699
 Alpha virt. eigenvalues --    0.02117   0.03142   0.03893   0.04284   0.04985
 Alpha virt. eigenvalues --    0.05997   0.06928   0.07443   0.09649   0.11095
 Alpha virt. eigenvalues --    0.12135   0.13063   0.13846   0.14822   0.15211

 Mulliken charges:
               1
     1  C   -0.310197
     2  C   -0.377933
     3  C   -0.104470
     4  C    0.935068
     5  C   -1.590964
     6  N    0.751543
     7  H    0.181658
     8  H    0.164654
     9  H    0.223229
    10  H    0.078521
    11  H    0.088036
    12  H    0.091660
    13  H   -0.130806
 Sum of Mulliken charges =  -0.00000

 Dipole moment (field-independent basis, Debye):
    X=             -3.3566    Y=             -1.1126    Z=              2.2560  Tot=              4.1945

 Test job not archived.
 1\1\GINC-SE026\SP\RHF\Aug-CC-pVDZ\C5H7N1\OHZDE\09-Apr-2025\0\\#t hf au
 g-cc-pvdz iop(5/13=1,5/36=2,99/5=2) pseudo=read geom=check guess=(read
 ,tcheck) scf=(maxcycle=1)\\title\\0,1\C,0,1.55100004,0.50988844,-0.175
 79171\C,0,0.34701844,-0.4135576,-0.21579967\C,0,-0.59058337,-0.3595968
 2,0.96809874\C,0,-0.78276726,-0.03637946,-1.14493841\C,0,-1.75511423,0
 .31864999,-0.2353553\N,0,-2.52196079,0.69842435,0.60959595\H,0,2.07691
 792,0.48127519,-1.13149897\H,0,2.25454013,0.22089173,0.61015245\H,0,1.
 23462976,1.54031231,-0.00240601\H,0,0.66245159,-1.45563195,-0.33716658

 Normal termination of Gaussian 16 at Wed Apr  9 16:54:12 2025.
