 Gaussian 16, Revision C.01,

 ----------------------------------------------------------------------
 #t hf aug-cc-pvdz symm=none int=(grid=ultrafine) guess=(read,tcheck) s
 table=(opt,rrhf)
 ----------------------------------------------------------------------
 -----
 title
 -----
 Symbolic Z-matrix:
 Charge =  0 Multiplicity = 1

 SCF Done:  E(RHF) =  -306.644798632     A.U. after   13 cycles
 Normal termination of Gaussian 16 at Wed Apr  9 19:19:01 2025.
 Gaussian 16:  ES64L-G16RevC.01  3-Jul-2019

 ----------------------------------------------------------------------
 #t hf aug-cc-pvdz iop(5/13=1,5/36=2,99/5=2) pseudo=read geom=check gue
 ss=(read,tcheck) scf=(maxcycle=1)
 ----------------------------------------------------------------------
 -----
 title
 -----
 Structure from the checkpoint file:  "Grambow2020_wb97xd3_009277_reverse_mol2.chk"
 Charge =  0 Multiplicity = 1

                         Standard orientation:
 ---------------------------------------------------------------------
 Center     Atomic      Atomic             Coordinates (Angstroms)
 Number     Number       Type             X           Y           Z
 ---------------------------------------------------------------------
      1          6           0       -1.613642    1.282393   -0.418949
      2          6           0       -0.926473    0.000161   -0.040898
      3          6           0       -1.616933   -1.279629   -0.421457
      4          6           0        0.485528   -0.001365    0.233337
      5          8           0       -0.350714   -0.002403    1.309239
      6          6           0        1.742251    0.000243   -0.045143
      7          6           0        3.005008   -0.000180   -0.365122
      8          1           0       -2.622924    1.306744   -0.002306
      9          1           0       -1.693348    1.357092   -1.505104
     10          1           0       -1.055614    2.141503   -0.050368
     11          1           0        3.555495    0.925914   -0.496437
     12          1           0       -2.627958   -1.299062   -0.008766
     13          1           0       -1.692692   -1.355429   -1.507756
     14          1           0       -1.064342   -2.140596   -0.048890
     15          1           0        3.552665   -0.926678   -0.504891
 ---------------------------------------------------------------------

 SCF Done:  E(RHF) =  -306.962512179     A.U. after    2 cycles

 The electronic state is 1-A.
 Alpha  occ. eigenvalues --  -20.57639 -11.32037 -11.30909 -11.25703 -11.25194
 Alpha  occ. eigenvalues --  -11.24279 -11.24265  -1.52298  -1.07070  -1.06366
 Alpha  occ. eigenvalues --   -0.96679  -0.94500  -0.84444  -0.71559  -0.67235
 Alpha  occ. eigenvalues --   -0.66451  -0.63006  -0.61472  -0.60787  -0.56444
 Alpha  occ. eigenvalues --   -0.54268  -0.54117  -0.48681  -0.47932  -0.37879
 Alpha  occ. eigenvalues --   -0.35630
 Alpha virt. eigenvalues --    0.03473   0.03745   0.04058   0.04764   0.05488
 Alpha virt. eigenvalues --    0.06121   0.07318   0.08537   0.09510   0.09773
 Alpha virt. eigenvalues --    0.11384   0.12088   0.12821   0.14294   0.14731

 Mulliken charges:
               1
     1  C   -0.493753
     2  C    0.300897
     3  C   -0.492479
     4  C    1.082911
     5  O   -1.505605
     6  C    0.047339
     7  C   -0.115546
     8  H    0.207969
     9  H    0.262347
    10  H    0.174542
    11  H   -0.056841
    12  H    0.208304
    13  H    0.262297
    14  H    0.174990
    15  H   -0.057371
 Sum of Mulliken charges =   0.00000

 Dipole moment (field-independent basis, Debye):
    X=             -0.8500    Y=              0.0028    Z=             -1.9802  Tot=              2.1549

 Test job not archived.
 1\1\GINC-SE162\SP\RHF\Aug-CC-pVDZ\C6H8O1\OHZDE\09-Apr-2025\0\\#t hf au
 g-cc-pvdz iop(5/13=1,5/36=2,99/5=2) pseudo=read geom=check guess=(read
 ,tcheck) scf=(maxcycle=1)\\title\\0,1\C,0,-1.06877325,0.87897048,-1.42
 498325\C,0,-0.63855216,0.49353713,-0.03732549\C,0,-1.65758923,-0.19993
 309,0.82295731\C,0,0.76128043,0.3714699,0.27011938\O,0,0.14291812,1.52
 108691,0.6611159\C,0,1.91876047,-0.19089121,0.30003699\C,0,3.07448598,
 -0.7917771,0.31335741\H,0,-1.9595924,1.50942146,-1.38247552\H,0,-1.313
 2853,-0.01494215,-2.00187264\H,0,-0.27481091,1.41886033,-1.93826815\H,

 Normal termination of Gaussian 16 at Wed Apr  9 19:19:05 2025.
