 Gaussian 16, Revision C.01,

 ----------------------------------------------------------------------
 #t hf aug-cc-pvdz symm=none int=(grid=ultrafine) guess=(read,tcheck) s
 table=(opt,rrhf)
 ----------------------------------------------------------------------
 -----
 title
 -----
 Symbolic Z-matrix:
 Charge =  0 Multiplicity = 1

 SCF Done:  E(RHF) =  -286.670937973     A.U. after   16 cycles
 Normal termination of Gaussian 16 at Wed Apr  9 18:25:55 2025.
 Gaussian 16:  ES64L-G16RevC.01  3-Jul-2019

 ----------------------------------------------------------------------
 #t hf aug-cc-pvdz iop(5/13=1,5/36=2,99/5=2) pseudo=read geom=check gue
 ss=(read,tcheck) scf=(maxcycle=1)
 ----------------------------------------------------------------------
 -----
 title
 -----
 Structure from the checkpoint file:  "Grambow2020_wb97xd3_007555_forward_mol1.chk"
 Charge =  0 Multiplicity = 1

                         Standard orientation:
 ---------------------------------------------------------------------
 Center     Atomic      Atomic             Coordinates (Angstroms)
 Number     Number       Type             X           Y           Z
 ---------------------------------------------------------------------
      1          6           0        0.992601    1.410184   -0.615388
      2          6           0        0.609785    0.250850    0.244721
      3          6           0       -0.422312    0.377170    1.324006
      4          6           0       -1.147351   -0.133812    0.145537
      5          6           0       -2.081234    0.043082   -0.763269
      6          6           0        0.164310   -1.294005   -0.448549
      7          7           0        1.406223   -0.915735    0.239265
      8          1           0        0.225680    2.180988   -0.602382
      9          1           0        1.147613    1.097362   -1.649037
     10          1           0        1.932442    1.819669   -0.232417
     11          1           0       -0.657082    1.395930    1.616849
     12          1           0       -0.267380   -0.294445    2.166650
     13          1           0       -2.960491    0.520168   -0.308413
     14          1           0       -0.275496   -2.197347   -0.043626
     15          1           0        0.143658   -1.216471   -1.528734
     16          1           0        2.172706   -0.816532   -0.416102
 ---------------------------------------------------------------------

 SCF Done:  E(RHF) =  -286.978048076     A.U. after    2 cycles

 The electronic state is 1-A.
 Alpha  occ. eigenvalues --  -15.53751 -11.36467 -11.30791 -11.26820 -11.26204
 Alpha  occ. eigenvalues --  -11.25120 -11.18200  -1.32318  -1.12524  -1.02825
 Alpha  occ. eigenvalues --   -0.95927  -0.90870  -0.82377  -0.73795  -0.70935
 Alpha  occ. eigenvalues --   -0.67480  -0.66022  -0.60149  -0.59409  -0.58663
 Alpha  occ. eigenvalues --   -0.56428  -0.54068  -0.49267  -0.44085  -0.35108
 Alpha  occ. eigenvalues --   -0.30088
 Alpha virt. eigenvalues --    0.02554   0.03640   0.03863   0.04694   0.05265
 Alpha virt. eigenvalues --    0.05552   0.06236   0.07189   0.08190   0.09802
 Alpha virt. eigenvalues --    0.11026   0.11982   0.12281   0.13397   0.13770

 Mulliken charges:
               1
     1  C   -0.467843
     2  C   -1.805696
     3  C    0.396993
     4  C    0.583220
     5  C   -0.723498
     6  C    0.211550
     7  N    0.801811
     8  H    0.190757
     9  H    0.239242
    10  H    0.248715
    11  H   -0.040860
    12  H    0.021438
    13  H   -0.057988
    14  H    0.040461
    15  H    0.011895
    16  H    0.349803
 Sum of Mulliken charges =  -0.00000

 Dipole moment (field-independent basis, Debye):
    X=              4.1896    Y=              1.4435    Z=              1.3018  Tot=              4.6186

 Test job not archived.
 1\1\GINC-SE173\SP\RHF\Aug-CC-pVDZ\C6H9N1\OHZDE\09-Apr-2025\0\\#t hf au
 g-cc-pvdz iop(5/13=1,5/36=2,99/5=2) pseudo=read geom=check guess=(read
 ,tcheck) scf=(maxcycle=1)\\title\\0,1\C,0,-0.28759613,1.61151602,0.567
 48392\C,0,-0.40820417,0.30291952,-0.14203744\C,0,0.63815175,-0.1710136
 3,-1.10461936\C,0,0.98269427,-0.79352758,0.18740994\C,0,1.83759854,-0.
 9283066,1.17752676\C,0,-0.7435047,-1.18017362,0.7260977\N,0,-1.6398677
 ,-0.38849407,-0.12730863\H,0,0.74168637,1.9622105,0.57563813\H,0,-0.63
 117653,1.53102898,1.59985544\H,0,-0.91972087,2.33780653,0.04732574\H,0

 Normal termination of Gaussian 16 at Wed Apr  9 18:26:01 2025.
