 Gaussian 16, Revision C.01,

 ----------------------------------------------------------------------
 #t hf aug-cc-pvdz symm=none int=(grid=ultrafine) guess=(read,tcheck) s
 table=(opt,rrhf)
 ----------------------------------------------------------------------
 -----
 title
 -----
 Symbolic Z-matrix:
 Charge =  0 Multiplicity = 1

 SCF Done:  E(RHF) =  -307.906013128     A.U. after   14 cycles

 1\1\GINC-SE108\Stability\RHF\Aug-CC-pVDZ\C6H10O1\OHZDE\09-Apr-2025\0\\
 #t hf aug-cc-pvdz symm=none int=(grid=ultrafine) guess=(read,tcheck) s
 table=(opt,rrhf)\\title\\0,1\C,0,1.68603925,-0.7891864,0.33873488\C,0,
 0.75033818,0.42025493,0.32243146\C,0,0.12065978,0.6594874,-1.054493\C,
 0,-1.63109507,0.16556699,0.99870402\O,0,-2.10122374,0.0477874,-0.26501
 591\C,0,-1.10217059,-0.22115633,-1.23984175\C,0,-0.35323104,0.30262008
 ,1.33778325\H,0,2.07727877,-0.96767695,1.34232079\H,0,2.53424681,-0.63
 507616,-0.33303117\H,0,1.16296914,-1.69618043,0.02688788\H,0,1.3482404

 Normal termination of Gaussian 16 at Wed Apr  9 19:04:05 2025.
 Gaussian 16:  ES64L-G16RevC.01  3-Jul-2019

 ----------------------------------------------------------------------
 #t hf aug-cc-pvdz iop(5/13=1,5/36=2,99/5=2) pseudo=read geom=check gue
 ss=(read,tcheck) scf=(maxcycle=1)
 ----------------------------------------------------------------------
 -----
 title
 -----
 Structure from the checkpoint file:  "Grambow2020_wb97xd3_008493_reverse_mol2.chk"
 Charge =  0 Multiplicity = 1

                         Standard orientation:
 ---------------------------------------------------------------------
 Center     Atomic      Atomic             Coordinates (Angstroms)
 Number     Number       Type             X           Y           Z
 ---------------------------------------------------------------------
      1          6           0       -2.110586    0.020119   -0.607963
      2          6           0       -1.049970    0.155471    0.485347
      3          6           0       -0.214598   -1.118276    0.656728
      4          6           0        1.171838    1.142757   -0.045940
      5          8           0        1.794083   -0.047771   -0.211279
      6          6           0        0.913859   -1.154245   -0.358403
      7          6           0       -0.116441    1.308337    0.236220
      8          1           0       -2.653298    0.957590   -0.744794
      9          1           0       -2.835726   -0.757062   -0.353726
     10          1           0       -1.656387   -0.236488   -1.567830
     11          1           0       -1.573227    0.346955    1.428383
     12          1           0        0.218942   -1.147555    1.659788
     13          1           0       -0.834519   -2.011145    0.541641
     14          1           0        1.862927    1.968465   -0.164999
     15          1           0        1.532329   -2.044275   -0.246209
     16          1           0        0.513064   -1.140207   -1.379572
     17          1           0       -0.491381    2.320905    0.321611
 ---------------------------------------------------------------------

 SCF Done:  E(RHF) =  -308.232679101     A.U. after    2 cycles

 The electronic state is 1-A.
 Alpha  occ. eigenvalues --  -20.56122 -11.28810 -11.28636 -11.23934 -11.23154
 Alpha  occ. eigenvalues --  -11.22469 -11.21782  -1.49227  -1.10652  -1.03654
 Alpha  occ. eigenvalues --   -0.96732  -0.87702  -0.84268  -0.72139  -0.71278
 Alpha  occ. eigenvalues --   -0.65011  -0.64523  -0.60674  -0.58798  -0.57412
 Alpha  occ. eigenvalues --   -0.55909  -0.52396  -0.51504  -0.47950  -0.46203
 Alpha  occ. eigenvalues --   -0.45427  -0.33379
 Alpha virt. eigenvalues --    0.03585   0.03678   0.04019   0.04126   0.05642
 Alpha virt. eigenvalues --    0.06295   0.06365   0.06694   0.08584   0.09922
 Alpha virt. eigenvalues --    0.11512   0.12458   0.13448   0.14075   0.14631

 Mulliken charges:
               1
     1  C   -0.329275
     2  C   -0.957163
     3  C   -0.152208
     4  C    0.882013
     5  O   -1.516074
     6  C    0.550122
     7  C    0.761183
     8  H    0.131795
     9  H    0.151748
    10  H    0.194314
    11  H    0.169545
    12  H    0.102593
    13  H    0.195264
    14  H   -0.104445
    15  H    0.007130
    16  H    0.122489
    17  H   -0.209032
 Sum of Mulliken charges =  -0.00000

 Dipole moment (field-independent basis, Debye):
    X=             -1.1576    Y=             -0.5739    Z=              0.1291  Tot=              1.2985

 Test job not archived.
 1\1\GINC-SE108\SP\RHF\Aug-CC-pVDZ\C6H10O1\OHZDE\09-Apr-2025\0\\#t hf a
 ug-cc-pvdz iop(5/13=1,5/36=2,99/5=2) pseudo=read geom=check guess=(rea
 d,tcheck) scf=(maxcycle=1)\\title\\0,1\C,0,1.68603925,-0.7891864,0.338
 73488\C,0,0.75033818,0.42025493,0.32243146\C,0,0.12065978,0.6594874,-1
 .054493\C,0,-1.63109507,0.16556699,0.99870402\O,0,-2.10122374,0.047787
 4,-0.26501591\C,0,-1.10217059,-0.22115633,-1.23984175\C,0,-0.35323104,
 0.30262008,1.33778325\H,0,2.07727877,-0.96767695,1.34232079\H,0,2.5342
 4681,-0.63507616,-0.33303117\H,0,1.16296914,-1.69618043,0.02688788\H,0

 Normal termination of Gaussian 16 at Wed Apr  9 19:04:12 2025.
