 Gaussian 16, Revision C.01,

 ----------------------------------------------------------------------
 #t hf aug-cc-pvdz symm=none int=(grid=ultrafine) guess=(read,tcheck) s
 table=(opt,rrhf)
 ----------------------------------------------------------------------
 -----
 title
 -----
 Symbolic Z-matrix:
 Charge =  0 Multiplicity = 1

 SCF Done:  E(RHF) =  -318.768214767     A.U. after   15 cycles
 Normal termination of Gaussian 16 at Wed Apr  9 17:58:39 2025.
 Gaussian 16:  ES64L-G16RevC.01  3-Jul-2019

 ----------------------------------------------------------------------
 #t hf aug-cc-pvdz iop(5/13=1,5/36=2,99/5=2) pseudo=read geom=check gue
 ss=(read,tcheck) scf=(maxcycle=1)
 ----------------------------------------------------------------------
 -----
 title
 -----
 Structure from the checkpoint file:  "Grambow2020_wb97xd3_006915_reverse_mol1.chk"
 Charge =  0 Multiplicity = 1

                         Standard orientation:
 ---------------------------------------------------------------------
 Center     Atomic      Atomic             Coordinates (Angstroms)
 Number     Number       Type             X           Y           Z
 ---------------------------------------------------------------------
      1          7           0       -2.460405   -0.488613    0.069751
      2          6           0       -1.096991   -0.178372   -0.027086
      3          6           0        0.031153   -0.930011   -0.031462
      4          6           0        1.168918   -0.061683   -0.019098
      5          7           0        2.481470   -0.534097    0.107534
      6          6           0        0.843529    1.277168   -0.111660
      7          7           0       -0.682960    1.152900    0.021361
      8          1           0       -2.950804   -0.435893   -0.812138
      9          1           0       -2.618234   -1.393955    0.484197
     10          1           0        0.052660   -2.011399   -0.004605
     11          1           0        3.149905    0.202764   -0.060713
     12          1           0        2.682506   -1.330366   -0.477640
     13          1           0       -0.103019    1.507290    0.935943
     14          1           0       -1.259400    1.907617   -0.319737
 ---------------------------------------------------------------------

 SCF Done:  E(RHF) =  -319.103090979     A.U. after    2 cycles

 The electronic state is 1-A.
 Alpha  occ. eigenvalues --  -15.58276 -15.52529 -15.48581 -11.30775 -11.25009
 Alpha  occ. eigenvalues --  -11.23902 -11.21294  -1.32094  -1.21137  -1.18979
 Alpha  occ. eigenvalues --   -1.05207  -0.96666  -0.83495  -0.80920  -0.75639
 Alpha  occ. eigenvalues --   -0.72491  -0.71536  -0.68492  -0.62775  -0.60548
 Alpha  occ. eigenvalues --   -0.57181  -0.51457  -0.50301  -0.38630  -0.35680
 Alpha  occ. eigenvalues --   -0.29676
 Alpha virt. eigenvalues --    0.02276   0.03934   0.04430   0.05093   0.05798
 Alpha virt. eigenvalues --    0.06795   0.07878   0.09859   0.11097   0.11459
 Alpha virt. eigenvalues --    0.12303   0.12966   0.13510   0.13932   0.15226

 Mulliken charges:
               1
     1  N    0.715837
     2  C   -2.299944
     3  C    0.875864
     4  C   -0.851408
     5  N    0.672048
     6  C   -0.769177
     7  N    0.581708
     8  H    0.260411
     9  H    0.200910
    10  H   -0.214908
    11  H    0.085236
    12  H    0.119096
    13  H    0.544908
    14  H    0.079419
 Sum of Mulliken charges =  -0.00000

 Dipole moment (field-independent basis, Debye):
    X=             -3.3044    Y=             -2.4983    Z=             -1.1478  Tot=              4.2987

 Test job not archived.
 1\1\GINC-SE030\SP\RHF\Aug-CC-pVDZ\C4H7N3\OHZDE\09-Apr-2025\0\\#t hf au
 g-cc-pvdz iop(5/13=1,5/36=2,99/5=2) pseudo=read geom=check guess=(read
 ,tcheck) scf=(maxcycle=1)\\title\\0,1\N,0,-2.43240815,-0.20233001,0.02
 995796\C,0,-1.046517,-0.00520483,-0.0405478\C,0,0.01860893,-0.83871815
 ,0.05137703\C,0,1.22027914,-0.06120863,0.04020687\N,0,2.48718647,-0.62
 113192,0.24861776\C,0,1.00417277,1.2874816,-0.16301531\N,0,-0.53066997
 ,1.29043803,-0.07610061\H,0,-2.89038534,-0.18021582,-0.8704684\H,0,-2.
 67337772,-1.05854614,0.5044542\H,0,-0.04585205,-1.91334553,0.15910379\

 Normal termination of Gaussian 16 at Wed Apr  9 17:58:44 2025.
