 Gaussian 16, Revision C.01,

 ----------------------------------------------------------------------
 #t hf aug-cc-pvdz symm=none int=(grid=ultrafine) guess=(read,tcheck) s
 table=(opt,rrhf)
 ----------------------------------------------------------------------
 -----
 title
 -----
 Symbolic Z-matrix:
 Charge =  0 Multiplicity = 1

 SCF Done:  E(RHF) =  -307.938512835     A.U. after   15 cycles

 1\1\GINC-SE135\Stability\RHF\Aug-CC-pVDZ\C6H10O1\OHZDE\09-Apr-2025\0\\
 #t hf aug-cc-pvdz symm=none int=(grid=ultrafine) guess=(read,tcheck) s
 table=(opt,rrhf)\\title\\0,1\C,0,1.74823724,0.48290848,-0.10388013\C,0
 ,0.6761741,-0.58779702,-0.2840186\C,0,-0.05042824,-0.88866181,1.030163
 74\C,0,-1.2015022,0.10423225,1.08473534\O,0,-1.84803669,0.37912432,2.0
 5842041\C,0,-1.39748446,0.69257992,-0.30624788\C,0,-0.4657893,-0.11600
 35,-1.20936171\H,0,2.52843548,0.14486434,0.58086011\H,0,1.33064134,1.4
 0559898,0.30920245\H,0,2.21997975,0.73056201,-1.0569122\H,0,1.14423648

 Normal termination of Gaussian 16 at Wed Apr  9 19:08:09 2025.
 Gaussian 16:  ES64L-G16RevC.01  3-Jul-2019

 ----------------------------------------------------------------------
 #t hf aug-cc-pvdz iop(5/13=1,5/36=2,99/5=2) pseudo=read geom=check gue
 ss=(read,tcheck) scf=(maxcycle=1)
 ----------------------------------------------------------------------
 -----
 title
 -----
 Structure from the checkpoint file:  "Grambow2020_wb97xd3_008607_reverse_mol2.chk"
 Charge =  0 Multiplicity = 1

                         Standard orientation:
 ---------------------------------------------------------------------
 Center     Atomic      Atomic             Coordinates (Angstroms)
 Number     Number       Type             X           Y           Z
 ---------------------------------------------------------------------
      1          6           0       -1.877705   -0.647517   -0.788259
      2          6           0       -1.171526   -0.197199    0.487165
      3          6           0        0.136808   -0.961411    0.710296
      4          6           0        1.196352   -0.161692   -0.032404
      5          8           0        2.293343   -0.550639   -0.327304
      6          6           0        0.631500    1.218832   -0.339800
      7          6           0       -0.703277    1.271385    0.403897
      8          1           0       -2.169652   -1.697548   -0.724602
      9          1           0       -1.232038   -0.542224   -1.664849
     10          1           0       -2.778538   -0.057233   -0.967721
     11          1           0       -1.852717   -0.329984    1.330106
     12          1           0        0.130799   -2.001479    0.383434
     13          1           0        0.422943   -0.953543    1.767686
     14          1           0       -0.551015    1.663186    1.412908
     15          1           0        1.346200    1.991729   -0.057132
     16          1           0        0.505232    1.286718   -1.423993
     17          1           0       -1.440864    1.911110   -0.082770
 ---------------------------------------------------------------------

 SCF Done:  E(RHF) =  -308.264955277     A.U. after    2 cycles

 The electronic state is 1-A.
 Alpha  occ. eigenvalues --  -20.52994 -11.33158 -11.24691 -11.24093 -11.24084
 Alpha  occ. eigenvalues --  -11.23960 -11.23393  -1.46882  -1.14734  -1.01444
 Alpha  occ. eigenvalues --   -0.97496  -0.90737  -0.78671  -0.74263  -0.68330
 Alpha  occ. eigenvalues --   -0.66514  -0.61976  -0.60375  -0.58442  -0.57310
 Alpha  occ. eigenvalues --   -0.55660  -0.54016  -0.50177  -0.48385  -0.48074
 Alpha  occ. eigenvalues --   -0.47265  -0.39191
 Alpha virt. eigenvalues --    0.02998   0.03485   0.03569   0.04362   0.05899
 Alpha virt. eigenvalues --    0.06045   0.06388   0.06585   0.08127   0.09738
 Alpha virt. eigenvalues --    0.10475   0.12270   0.12801   0.14161   0.14449

 Mulliken charges:
               1
     1  C   -0.156273
     2  C   -0.796936
     3  C   -0.195825
     4  C    1.172266
     5  O   -1.393716
     6  C   -0.421959
     7  C    0.193588
     8  H    0.131780
     9  H    0.243738
    10  H    0.123451
    11  H    0.117042
    12  H    0.150069
    13  H    0.220626
    14  H    0.098091
    15  H    0.161649
    16  H    0.214687
    17  H    0.137722
 Sum of Mulliken charges =  -0.00000

 Dipole moment (field-independent basis, Debye):
    X=             -3.2162    Y=              1.0700    Z=              0.8615  Tot=              3.4973

 Test job not archived.
 1\1\GINC-SE135\SP\RHF\Aug-CC-pVDZ\C6H10O1\OHZDE\09-Apr-2025\0\\#t hf a
 ug-cc-pvdz iop(5/13=1,5/36=2,99/5=2) pseudo=read geom=check guess=(rea
 d,tcheck) scf=(maxcycle=1)\\title\\0,1\C,0,1.74823724,0.48290848,-0.10
 388013\C,0,0.6761741,-0.58779702,-0.2840186\C,0,-0.05042824,-0.8886618
 1,1.03016374\C,0,-1.2015022,0.10423225,1.08473534\O,0,-1.84803669,0.37
 912432,2.05842041\C,0,-1.39748446,0.69257992,-0.30624788\C,0,-0.465789
 3,-0.1160035,-1.20936171\H,0,2.52843548,0.14486434,0.58086011\H,0,1.33
 064134,1.40559898,0.30920245\H,0,2.21997975,0.73056201,-1.0569122\H,0,

 Normal termination of Gaussian 16 at Wed Apr  9 19:08:15 2025.
