 Gaussian 16, Revision C.01,

 ----------------------------------------------------------------------
 #t hf aug-cc-pvdz symm=none int=(grid=ultrafine) guess=(read,tcheck) s
 table=(opt,rrhf)
 ----------------------------------------------------------------------
 -----
 title
 -----
 Symbolic Z-matrix:
 Charge =  0 Multiplicity = 1

 SCF Done:  E(RHF) =  -286.694344197     A.U. after   15 cycles
 Normal termination of Gaussian 16 at Wed Apr  9 18:29:54 2025.
 Gaussian 16:  ES64L-G16RevC.01  3-Jul-2019

 ----------------------------------------------------------------------
 #t hf aug-cc-pvdz iop(5/13=1,5/36=2,99/5=2) pseudo=read geom=check gue
 ss=(read,tcheck) scf=(maxcycle=1)
 ----------------------------------------------------------------------
 -----
 title
 -----
 Structure from the checkpoint file:  "Grambow2020_wb97xd3_007641_reverse_mol1.chk"
 Charge =  0 Multiplicity = 1

                         Standard orientation:
 ---------------------------------------------------------------------
 Center     Atomic      Atomic             Coordinates (Angstroms)
 Number     Number       Type             X           Y           Z
 ---------------------------------------------------------------------
      1          6           0        1.798617   -1.046277    0.053646
      2          6           0        0.672929   -0.086136   -0.094875
      3          6           0        0.579976    1.213022   -0.807530
      4          6           0        0.299043    1.144774    0.649537
      5          6           0       -0.662449    0.032127    0.779989
      6          7           0       -1.909196   -0.080797    0.082509
      7          6           0       -1.221449   -1.012542   -0.730378
      8          1           0        1.755707   -1.551950    1.020680
      9          1           0        2.759376   -0.531927   -0.020806
     10          1           0        1.756045   -1.806014   -0.728666
     11          1           0        1.528757    1.666627   -1.074103
     12          1           0       -0.214908    1.377449   -1.530721
     13          1           0        0.810932    1.613069    1.474277
     14          1           0       -0.621344   -0.529088    1.707260
     15          1           0       -2.116307    0.766162   -0.435139
     16          1           0       -1.093899   -1.908559   -0.092674
 ---------------------------------------------------------------------

 SCF Done:  E(RHF) =  -287.000260091     A.U. after    2 cycles

 The electronic state is 1-A.
 Alpha  occ. eigenvalues --  -15.50581 -11.31462 -11.27316 -11.27211 -11.26129
 Alpha  occ. eigenvalues --  -11.25792 -11.24460  -1.29440  -1.19688  -0.99647
 Alpha  occ. eigenvalues --   -0.94779  -0.86255  -0.79431  -0.77358  -0.70172
 Alpha  occ. eigenvalues --   -0.67460  -0.62173  -0.60234  -0.58370  -0.57003
 Alpha  occ. eigenvalues --   -0.56355  -0.51709  -0.47301  -0.45268  -0.37386
 Alpha  occ. eigenvalues --   -0.33395
 Alpha virt. eigenvalues --    0.03025   0.03660   0.03770   0.04500   0.05777
 Alpha virt. eigenvalues --    0.06109   0.06709   0.06952   0.08322   0.09980
 Alpha virt. eigenvalues --    0.11904   0.12345   0.12990   0.13193   0.13529

 Mulliken charges:
               1
     1  C   -0.877265
     2  C    0.182964
     3  C    0.259352
     4  C    0.366411
     5  C   -0.863124
     6  N    0.628432
     7  C   -0.363419
     8  H    0.241264
     9  H    0.188259
    10  H    0.244042
    11  H   -0.100794
    12  H   -0.145517
    13  H   -0.212926
    14  H   -0.210528
    15  H    0.431205
    16  H    0.231644
 Sum of Mulliken charges =  -0.00000

 Dipole moment (field-independent basis, Debye):
    X=              2.6119    Y=              1.1565    Z=              1.7532  Tot=              3.3516

 Test job not archived.
 1\1\GINC-SE226\SP\RHF\Aug-CC-pVDZ\C6H9N1\OHZDE\09-Apr-2025\0\\#t hf au
 g-cc-pvdz iop(5/13=1,5/36=2,99/5=2) pseudo=read geom=check guess=(read
 ,tcheck) scf=(maxcycle=1)\\title\\0,1\C,0,1.38765118,-0.50338938,1.098
 29128\C,0,0.42251685,0.00719503,0.08887429\C,0,0.62850686,0.78488093,-
 1.15896502\C,0,-0.24512238,1.32365341,-0.08512896\C,0,-1.15934829,0.20
 815717,0.23003311\N,0,-1.98948637,-0.48319456,-0.71151481\C,0,-1.01174
 61,-1.50252509,-0.62833931\H,0,0.94239848,-0.51119431,2.09548245\H,0,2
 .28346041,0.12091186,1.1287933\H,0,1.68979631,-1.52313809,0.85365753\H

 Normal termination of Gaussian 16 at Wed Apr  9 18:30:00 2025.
