 Gaussian 16, Revision C.01,

 ----------------------------------------------------------------------
 #t hf aug-cc-pvdz symm=none int=(grid=ultrafine) guess=(read,tcheck) s
 table=(opt,rrhf)
 ----------------------------------------------------------------------
 -----
 title
 -----
 Symbolic Z-matrix:
 Charge =  0 Multiplicity = 1

 SCF Done:  E(RHF) =  -375.620600730     A.U. after   15 cycles
 Normal termination of Gaussian 16 at Wed Apr  9 03:46:29 2025.
 Gaussian 16:  ES64L-G16RevC.01  3-Jul-2019

 ----------------------------------------------------------------------
 #t hf aug-cc-pvdz iop(5/13=1,5/36=2,99/5=2) pseudo=read geom=check gue
 ss=(read,tcheck) scf=(maxcycle=1)
 ----------------------------------------------------------------------
 -----
 title
 -----
 Structure from the checkpoint file:  "Grambow2020_wb97xd3_007868_reverse_mol1.chk"
 Charge =  0 Multiplicity = 1

                         Standard orientation:
 ---------------------------------------------------------------------
 Center     Atomic      Atomic             Coordinates (Angstroms)
 Number     Number       Type             X           Y           Z
 ---------------------------------------------------------------------
      1          7           0        0.960666   -0.713680    1.108483
      2          6           0        1.099127    0.080593   -0.194043
      3          8           0        2.046729   -0.057875   -0.906234
      4          6           0        0.218676    1.197138    0.070721
      5          8           0       -1.180453    0.995248    0.292093
      6          6           0       -1.824894   -0.081782   -0.121955
      7          7           0       -1.266405   -1.140464   -0.534820
      8          1           0        1.847181   -1.101339    1.407131
      9          1           0        0.233044   -1.419358    1.011822
     10          1           0        0.349623    2.074349   -0.552683
     11          1           0        0.678313    0.496318    1.356233
     12          1           0       -2.900542    0.075857   -0.024401
     13          1           0       -1.955114   -1.821494   -0.828957
 ---------------------------------------------------------------------

 SCF Done:  E(RHF) =  -375.999884030     A.U. after    2 cycles

 The electronic state is 1-A.
 Alpha  occ. eigenvalues --  -20.59645 -20.53773 -15.56132 -15.49688 -11.37790
 Alpha  occ. eigenvalues --  -11.36387 -11.26517  -1.53104  -1.48805  -1.24674
 Alpha  occ. eigenvalues --   -1.22280  -1.01492  -0.88273  -0.78399  -0.77671
 Alpha  occ. eigenvalues --   -0.75577  -0.72392  -0.69804  -0.64548  -0.61012
 Alpha  occ. eigenvalues --   -0.59532  -0.55693  -0.53355  -0.49455  -0.46582
 Alpha  occ. eigenvalues --   -0.43587  -0.33243
 Alpha virt. eigenvalues --    0.02783   0.03814   0.05002   0.05566   0.06245
 Alpha virt. eigenvalues --    0.06562   0.08981   0.10091   0.10647   0.12645
 Alpha virt. eigenvalues --    0.12863   0.13984   0.14365   0.14840   0.15462

 Mulliken charges:
               1
     1  N   -0.214887
     2  C    0.707875
     3  O   -1.279660
     4  C    0.412655
     5  O   -1.312806
     6  C   -0.063175
     7  N    0.571876
     8  H    0.153248
     9  H    0.307513
    10  H   -0.056145
    11  H    0.704834
    12  H    0.006274
    13  H    0.062397
 Sum of Mulliken charges =  -0.00000

 Dipole moment (field-independent basis, Debye):
    X=             -2.7419    Y=             -1.5795    Z=              2.4274  Tot=              3.9881

 Test job not archived.
 1\1\GINC-SE174\SP\RHF\Aug-CC-pVDZ\C3H6N2O2\OHZDE\09-Apr-2025\0\\#t hf
 aug-cc-pvdz iop(5/13=1,5/36=2,99/5=2) pseudo=read geom=check guess=(re
 ad,tcheck) scf=(maxcycle=1)\\title\\0,1\N,0,-1.46119687,0.62471667,-0.
 05822892\C,0,-0.98376591,-0.78430753,0.30690773\O,0,-1.67302955,-1.740
 16635,0.11826092\C,0,0.03871549,-0.4826683,1.28441142\O,0,1.19932986,0
 .27378579,0.92653438\C,0,1.62863291,0.38429914,-0.31854404\N,0,0.96103
 284,0.05307392,-1.34215224\H,0,-2.46598094,0.66053216,-0.17866928\H,0,
 -0.95305234,0.96597546,-0.87191804\H,0,0.33990756,-1.29555811,1.935390

 Normal termination of Gaussian 16 at Wed Apr  9 03:46:33 2025.
