 Gaussian 16, Revision C.01,

 ----------------------------------------------------------------------
 #t hf aug-cc-pvdz symm=none int=(grid=ultrafine) guess=(read,tcheck) s
 table=(opt,rrhf)
 ----------------------------------------------------------------------
 -----
 title
 -----
 Symbolic Z-matrix:
 Charge =  0 Multiplicity = 1

 SCF Done:  E(RHF) =  -357.174593655     A.U. after   18 cycles
 Normal termination of Gaussian 16 at Wed Apr  9 03:59:23 2025.
 Gaussian 16:  ES64L-G16RevC.01  3-Jul-2019

 ----------------------------------------------------------------------
 #t hf aug-cc-pvdz iop(5/13=1,5/36=2,99/5=2) pseudo=read geom=check gue
 ss=(read,tcheck) scf=(maxcycle=1)
 ----------------------------------------------------------------------
 -----
 title
 -----
 Structure from the checkpoint file:  "Grambow2020_wb97xd3_008757_reverse_mol1.chk"
 Charge =  0 Multiplicity = 1

                         Standard orientation:
 ---------------------------------------------------------------------
 Center     Atomic      Atomic             Coordinates (Angstroms)
 Number     Number       Type             X           Y           Z
 ---------------------------------------------------------------------
      1          8           0        2.490763    0.488724   -0.002075
      2          6           0        1.799281   -0.492762    0.000373
      3          6           0        0.347208   -0.446561    0.001937
      4          7           0       -0.626228   -1.149974    0.000413
      5          8           0       -1.822757   -1.122195   -0.001041
      6          6           0       -1.741011    1.337193   -0.000827
      7          6           0       -0.536506    1.496491    0.001493
      8          1           0        2.215076   -1.514478    0.002535
      9          1           0       -2.803724    1.275983   -0.003038
     10          1           0        0.414370    1.989918    0.004687
 ---------------------------------------------------------------------

 SCF Done:  E(RHF) =  -357.521949229     A.U. after    2 cycles

 The electronic state is 1-A.
 Alpha  occ. eigenvalues --  -20.59761 -20.58894 -15.67774 -11.40527 -11.34102
 Alpha  occ. eigenvalues --  -11.28477 -11.26537  -1.60118  -1.52512  -1.25181
 Alpha  occ. eigenvalues --   -1.05887  -0.97805  -0.80492  -0.79360  -0.75555
 Alpha  occ. eigenvalues --   -0.72829  -0.70233  -0.70048  -0.68353  -0.58332
 Alpha  occ. eigenvalues --   -0.49373  -0.45067  -0.44045  -0.40683  -0.39708
 Alpha virt. eigenvalues --    0.02192   0.04117   0.04228   0.04669   0.05314
 Alpha virt. eigenvalues --    0.08082   0.09442   0.09712   0.10949   0.12014
 Alpha virt. eigenvalues --    0.12877   0.13041   0.13837   0.14464   0.14680

 Mulliken charges:
               1
     1  O   -1.136557
     2  C    1.394875
     3  C   -0.966316
     4  N    1.683640
     5  O   -1.268986
     6  C    0.270303
     7  C    0.310322
     8  H    0.145901
     9  H   -0.221595
    10  H   -0.211588
 Sum of Mulliken charges =  -0.00000

 Dipole moment (field-independent basis, Debye):
    X=              0.5850    Y=              0.1488    Z=              0.0064  Tot=              0.6036

 Test job not archived.
 1\1\GINC-SE329\SP\RHF\Aug-CC-pVDZ\C4H3N1O2\OHZDE\09-Apr-2025\0\\#t hf
 aug-cc-pvdz iop(5/13=1,5/36=2,99/5=2) pseudo=read geom=check guess=(re
 ad,tcheck) scf=(maxcycle=1)\\title\\0,1\O,0,-2.46052088,0.48105354,-0.
 39968344\C,0,-1.73594707,-0.38803491,-0.8011154\C,0,-0.33048314,-0.483
 52318,-0.44586274\N,0,0.65125409,-1.15243373,-0.622274\O,0,1.80928341,
 -1.24111607,-0.33320762\C,0,1.5955919,0.78746727,1.04318608\C,0,0.4198
 0728,1.0310965,0.85774523\H,0,-2.08261971,-1.18790674,-1.47699835\H,0,
 2.62858733,0.63761512,1.25193267\H,0,-0.5281772,1.5263122,0.91884558\\

 Normal termination of Gaussian 16 at Wed Apr  9 03:59:27 2025.
