 Gaussian 16, Revision C.01,

 ----------------------------------------------------------------------
 #t hf aug-cc-pvdz symm=none int=(grid=ultrafine) guess=(read,tcheck) s
 table=(opt,rrhf)
 ----------------------------------------------------------------------
 -----
 title
 -----
 Symbolic Z-matrix:
 Charge =  0 Multiplicity = 1

 SCF Done:  E(RHF) =  -355.936739850     A.U. after   13 cycles
 Normal termination of Gaussian 16 at Wed Apr  9 19:16:02 2025.
 Gaussian 16:  ES64L-G16RevC.01  3-Jul-2019

 ----------------------------------------------------------------------
 #t hf aug-cc-pvdz iop(5/13=1,5/36=2,99/5=2) pseudo=read geom=check gue
 ss=(read,tcheck) scf=(maxcycle=1)
 ----------------------------------------------------------------------
 -----
 title
 -----
 Structure from the checkpoint file:  "Grambow2020_wb97xd3_008997_reverse_mol2.chk"
 Charge =  0 Multiplicity = 1

                         Standard orientation:
 ---------------------------------------------------------------------
 Center     Atomic      Atomic             Coordinates (Angstroms)
 Number     Number       Type             X           Y           Z
 ---------------------------------------------------------------------
      1          6           0       -2.706540   -0.015004    0.299369
      2          7           0       -1.430019   -0.659234    0.097344
      3          6           0       -0.322973    0.096939   -0.239615
      4          8           0        2.460349    0.536243    0.618241
      5          7           0        0.818279   -0.722387   -0.387986
      6          6           0        2.105470   -0.411340   -0.021908
      7          7           0       -0.259898    1.334778   -0.480291
      8          1           0       -3.010209    0.499157   -0.614272
      9          1           0       -2.697675    0.710709    1.121113
     10          1           0       -3.455204   -0.774997    0.516321
     11          1           0       -1.231310   -1.437462    0.703321
     12          1           0        0.681980   -1.597115   -0.865624
     13          1           0        2.807020   -1.190952   -0.375086
     14          1           0       -1.131675    1.805052   -0.262239
 ---------------------------------------------------------------------

 SCF Done:  E(RHF) =  -356.301081506     A.U. after    2 cycles

 The electronic state is 1-A.
 Alpha  occ. eigenvalues --  -20.52207 -15.54539 -15.53277 -15.47115 -11.36708
 Alpha  occ. eigenvalues --  -11.35857 -11.28436  -1.47323  -1.31829  -1.22755
 Alpha  occ. eigenvalues --   -1.17509  -0.99409  -0.90165  -0.81833  -0.80142
 Alpha  occ. eigenvalues --   -0.73562  -0.71779  -0.66963  -0.63755  -0.62101
 Alpha  occ. eigenvalues --   -0.60411  -0.57629  -0.52815  -0.48798  -0.44702
 Alpha  occ. eigenvalues --   -0.43354  -0.41182
 Alpha virt. eigenvalues --    0.02339   0.03628   0.04156   0.05238   0.05323
 Alpha virt. eigenvalues --    0.05932   0.07945   0.08801   0.10167   0.11838
 Alpha virt. eigenvalues --    0.12750   0.12945   0.13655   0.14241   0.15079

 Mulliken charges:
               1
     1  C   -0.357081
     2  N    0.348758
     3  C   -1.943523
     4  O   -1.069400
     5  N    0.535369
     6  C    0.759991
     7  N    0.729916
     8  H    0.170137
     9  H    0.181863
    10  H    0.004548
    11  H    0.174224
    12  H    0.202419
    13  H    0.096668
    14  H    0.166111
 Sum of Mulliken charges =  -0.00000

 Dipole moment (field-independent basis, Debye):
    X=             -3.7970    Y=             -4.7195    Z=             -0.0642  Tot=              6.0577

 Test job not archived.
 1\1\GINC-SE125\SP\RHF\Aug-CC-pVDZ\C3H7N3O1\OHZDE\09-Apr-2025\0\\#t hf
 aug-cc-pvdz iop(5/13=1,5/36=2,99/5=2) pseudo=read geom=check guess=(re
 ad,tcheck) scf=(maxcycle=1)\\title\\0,1\C,0,1.95294854,1.0231482,-0.10
 982968\N,0,0.78909654,0.36567036,0.43654551\C,0,-0.30841063,0.12683502
 ,-0.36926128\O,0,-2.09506064,-2.07738689,-1.15987884\N,0,-1.33128922,-
 0.52416982,0.35577516\C,0,-2.17475501,-1.50228295,-0.11271672\N,0,-0.4
 9378337,0.47465136,-1.56876491\H,0,1.67956353,2.01348302,-0.47836032\H
 ,0,2.41946901,0.46311809,-0.92880905\H,0,2.68802917,1.15563455,0.68216

 Normal termination of Gaussian 16 at Wed Apr  9 19:16:08 2025.
