 Gaussian 16, Revision C.01,

 ----------------------------------------------------------------------
 #t hf aug-cc-pvdz symm=none int=(grid=ultrafine) guess=(read,tcheck) s
 table=(opt,rrhf)
 ----------------------------------------------------------------------
 -----
 title
 -----
 Symbolic Z-matrix:
 Charge =  0 Multiplicity = 1

 SCF Done:  E(RHF) =  -302.685364900     A.U. after   16 cycles
 Normal termination of Gaussian 16 at Wed Apr  9 19:11:03 2025.
 Gaussian 16:  ES64L-G16RevC.01  3-Jul-2019

 ----------------------------------------------------------------------
 #t hf aug-cc-pvdz iop(5/13=1,5/36=2,99/5=2) pseudo=read geom=check gue
 ss=(read,tcheck) scf=(maxcycle=1)
 ----------------------------------------------------------------------
 -----
 title
 -----
 Structure from the checkpoint file:  "Grambow2020_wb97xd3_008851_forward_mol1.chk"
 Charge =  0 Multiplicity = 1

                         Standard orientation:
 ---------------------------------------------------------------------
 Center     Atomic      Atomic             Coordinates (Angstroms)
 Number     Number       Type             X           Y           Z
 ---------------------------------------------------------------------
      1          6           0       -2.163276   -0.511183   -0.382582
      2          6           0       -0.785142   -0.103424    0.039814
      3          6           0        0.272359   -1.140359    0.383625
      4          6           0        1.440831   -0.307826   -0.047402
      5          7           0        2.599690   -0.024353   -0.211581
      6          6           0        0.022086    1.004594   -0.516537
      7          7           0       -0.551375    1.090318    0.842936
      8          1           0       -2.127281   -1.211080   -1.220089
      9          1           0       -2.702936   -0.993776    0.436563
     10          1           0       -2.739978    0.359725   -0.700454
     11          1           0        0.221343   -2.029778   -0.248916
     12          1           0        0.326750   -1.431537    1.433258
     13          1           0       -0.356457    1.663877   -1.295156
     14          1           0        1.704619    0.860569   -0.517145
     15          1           0       -1.385411    1.669430    0.830943
 ---------------------------------------------------------------------

 SCF Done:  E(RHF) =  -303.008476144     A.U. after    2 cycles

 The electronic state is 1-A.
 Alpha  occ. eigenvalues --  -15.51961 -15.50192 -11.35831 -11.28087 -11.27744
 Alpha  occ. eigenvalues --  -11.24808 -11.24663  -1.30227  -1.26750  -1.06474
 Alpha  occ. eigenvalues --   -0.99859  -0.88672  -0.78829  -0.73686  -0.70213
 Alpha  occ. eigenvalues --   -0.68409  -0.64005  -0.61705  -0.60827  -0.58805
 Alpha  occ. eigenvalues --   -0.53676  -0.52578  -0.50817  -0.48948  -0.41875
 Alpha  occ. eigenvalues --   -0.33374
 Alpha virt. eigenvalues --    0.03078   0.03743   0.03964   0.04263   0.05744
 Alpha virt. eigenvalues --    0.06092   0.07165   0.07470   0.09064   0.10848
 Alpha virt. eigenvalues --    0.11875   0.13271   0.13298   0.14122   0.14501

 Mulliken charges:
               1
     1  C   -0.473320
     2  C   -0.787686
     3  C   -0.416493
     4  C   -1.173209
     5  N    0.779085
     6  C   -0.211466
     7  N    0.636840
     8  H    0.238178
     9  H    0.242890
    10  H    0.125911
    11  H    0.210837
    12  H    0.233854
    13  H   -0.237011
    14  H    0.703625
    15  H    0.127963
 Sum of Mulliken charges =  -0.00000

 Dipole moment (field-independent basis, Debye):
    X=             -4.2564    Y=             -1.1875    Z=             -1.2485  Tot=              4.5919

 Test job not archived.
 1\1\GINC-SE098\SP\RHF\Aug-CC-pVDZ\C5H8N2\OHZDE\09-Apr-2025\0\\#t hf au
 g-cc-pvdz iop(5/13=1,5/36=2,99/5=2) pseudo=read geom=check guess=(read
 ,tcheck) scf=(maxcycle=1)\\title\\0,1\C,0,-1.29677048,1.13751953,-0.62
 484524\C,0,-0.29837685,0.08934105,-0.23952617\C,0,1.14132751,0.1571291
 1,-0.72367865\C,0,1.73094089,-0.5287207,0.47055181\N,0,2.59083972,-1.0
 2757219,1.15024872\C,0,-0.16143911,-0.56282576,1.08137354\N,0,-0.67686
 316,-1.30979606,-0.08513691\H,0,-0.93144558,2.13743658,-0.38138119\H,0
 ,-1.50909293,1.10837934,-1.69685182\H,0,-2.23656438,0.98652954,-0.0899

 Normal termination of Gaussian 16 at Wed Apr  9 19:11:08 2025.
