 Gaussian 16, Revision C.01,

 ----------------------------------------------------------------------
 #t hf aug-cc-pvdz symm=none int=(grid=ultrafine) guess=(read,tcheck) s
 table=(opt,rrhf)
 ----------------------------------------------------------------------
 -----
 title
 -----
 Symbolic Z-matrix:
 Charge =  0 Multiplicity = 1

 SCF Done:  E(RHF) =  -286.797322971     A.U. after   15 cycles
 Normal termination of Gaussian 16 at Wed Apr  9 18:12:51 2025.
 Gaussian 16:  ES64L-G16RevC.01  3-Jul-2019

 ----------------------------------------------------------------------
 #t hf aug-cc-pvdz iop(5/13=1,5/36=2,99/5=2) pseudo=read geom=check gue
 ss=(read,tcheck) scf=(maxcycle=1)
 ----------------------------------------------------------------------
 -----
 title
 -----
 Structure from the checkpoint file:  "Grambow2020_wb97xd3_007181_reverse_mol2.chk"
 Charge =  0 Multiplicity = 1

                         Standard orientation:
 ---------------------------------------------------------------------
 Center     Atomic      Atomic             Coordinates (Angstroms)
 Number     Number       Type             X           Y           Z
 ---------------------------------------------------------------------
      1          6           0       -0.381303    1.853732   -0.398815
      2          6           0        1.629739    0.567196    0.291485
      3          6           0        1.734484   -0.724916   -0.095133
      4          6           0        0.453646   -1.407927   -0.244317
      5          6           0       -0.547302   -0.577549    0.047441
      6          6           0       -2.025449   -0.739793    0.088950
      7          7           0        0.082014    0.701972    0.399422
      8          1           0        0.180813    2.729619   -0.086367
      9          1           0       -0.162108    1.641464   -1.443249
     10          1           0       -1.451676    2.009596   -0.261719
     11          1           0        2.684967   -1.206755   -0.279891
     12          1           0        0.315209   -2.438644   -0.545335
     13          1           0       -2.535511   -0.093658   -0.631634
     14          1           0       -2.285598   -1.770016   -0.150661
     15          1           0       -2.435296   -0.516596    1.078701
     16          1           0       -0.067782    0.906723    1.386531
 ---------------------------------------------------------------------

 SCF Done:  E(RHF) =  -287.102868237     A.U. after    2 cycles

 The electronic state is 1-A.
 Alpha  occ. eigenvalues --  -15.59598 -11.28985 -11.26821 -11.25735 -11.24644
 Alpha  occ. eigenvalues --  -11.20721 -11.19463  -1.31040  -1.09415  -1.03116
 Alpha  occ. eigenvalues --   -0.95911  -0.92247  -0.81106  -0.77188  -0.71842
 Alpha  occ. eigenvalues --   -0.67010  -0.61667  -0.61532  -0.59292  -0.58742
 Alpha  occ. eigenvalues --   -0.55470  -0.54243  -0.52459  -0.43287  -0.33852
 Alpha  occ. eigenvalues --   -0.30120
 Alpha virt. eigenvalues --    0.02622   0.03461   0.03855   0.04134   0.05480
 Alpha virt. eigenvalues --    0.05771   0.06378   0.06850   0.09194   0.09695
 Alpha virt. eigenvalues --    0.10978   0.11915   0.12568   0.13420   0.14374

 Mulliken charges:
               1
     1  C   -0.224860
     2  C   -0.815342
     3  C    0.418728
     4  C    0.151895
     5  C   -0.645612
     6  C   -0.828249
     7  N    0.777293
     8  H    0.108485
     9  H    0.253502
    10  H    0.062658
    11  H   -0.148286
    12  H   -0.190537
    13  H    0.202076
    14  H    0.161581
    15  H    0.223727
    16  H    0.492941
 Sum of Mulliken charges =  -0.00000

 Dipole moment (field-independent basis, Debye):
    X=             -5.1377    Y=             -0.4605    Z=             -0.2015  Tot=              5.1622

 Test job not archived.
 1\1\GINC-SE045\SP\RHF\Aug-CC-pVDZ\C6H9N1\OHZDE\09-Apr-2025\0\\#t hf au
 g-cc-pvdz iop(5/13=1,5/36=2,99/5=2) pseudo=read geom=check guess=(read
 ,tcheck) scf=(maxcycle=1)\\title\\0,1\C,0,-1.47903501,-0.96528584,-0.4
 789022\C,0,-1.38994223,0.91152787,1.14763143\C,0,-0.48338404,1.8958756
 2,0.94960881\C,0,0.73824328,1.45572191,0.28387686\C,0,0.67539503,0.150
 07847,0.02331703\C,0,1.62388394,-0.8099742,-0.60248911\N,0,-0.629747,-
 0.29751466,0.52667647\H,0,-2.42903572,-1.20887414,-0.0109917\H,0,-1.64
 955173,-0.25900685,-1.28886627\H,0,-0.99072654,-1.863546,-0.8576761\H,

 Normal termination of Gaussian 16 at Wed Apr  9 18:12:57 2025.
