 Gaussian 16, Revision C.01,

 ----------------------------------------------------------------------
 #t hf aug-cc-pvdz symm=none int=(grid=ultrafine) guess=(read,tcheck) s
 table=(opt,rrhf)
 ----------------------------------------------------------------------
 -----
 title
 -----
 Symbolic Z-matrix:
 Charge =  0 Multiplicity = 1

 SCF Done:  E(RHF) =  -394.427471207     A.U. after   15 cycles
 Normal termination of Gaussian 16 at Wed Apr  9 18:13:53 2025.
 Gaussian 16:  ES64L-G16RevC.01  3-Jul-2019

 ----------------------------------------------------------------------
 #t hf aug-cc-pvdz iop(5/13=1,5/36=2,99/5=2) pseudo=read geom=check gue
 ss=(read,tcheck) scf=(maxcycle=1)
 ----------------------------------------------------------------------
 -----
 title
 -----
 Structure from the checkpoint file:  "Grambow2020_wb97xd3_007207_reverse_mol2.chk"
 Charge =  0 Multiplicity = 1

                         Standard orientation:
 ---------------------------------------------------------------------
 Center     Atomic      Atomic             Coordinates (Angstroms)
 Number     Number       Type             X           Y           Z
 ---------------------------------------------------------------------
      1          7           0        0.428581    1.698622    0.005743
      2          6           0        1.090856    0.762433    0.009599
      3          8           0       -1.165784   -1.209562    0.008551
      4          6           0       -2.226246   -0.644589   -0.007195
      5          8           0       -2.407115    0.665741   -0.008390
      6          6           0        1.881824   -0.493089    0.016389
      7          8           0        3.073427   -0.481152   -0.024120
      8          1           0       -1.543612    1.118353    0.000957
      9          1           0       -3.193576   -1.163462   -0.023415
     10          1           0        1.254290   -1.393992    0.061167
 ---------------------------------------------------------------------

 SCF Done:  E(RHF) =  -394.807082547     A.U. after    2 cycles

 The electronic state is 1-A.
 Alpha  occ. eigenvalues --  -20.61476 -20.61128 -20.56151 -15.56427 -11.41541
 Alpha  occ. eigenvalues --  -11.41414 -11.32646  -1.56968  -1.54475  -1.47746
 Alpha  occ. eigenvalues --   -1.28543  -0.98540  -0.91027  -0.78445  -0.74098
 Alpha  occ. eigenvalues --   -0.73329  -0.71204  -0.66504  -0.64396  -0.61463
 Alpha  occ. eigenvalues --   -0.60417  -0.55729  -0.53612  -0.49538  -0.49504
 Alpha  occ. eigenvalues --   -0.47313
 Alpha virt. eigenvalues --    0.02912   0.03508   0.04505   0.05924   0.07925
 Alpha virt. eigenvalues --    0.08569   0.09372   0.10752   0.12093   0.12493
 Alpha virt. eigenvalues --    0.12763   0.13058   0.14400   0.15373   0.15411

 Mulliken charges:
               1
     1  N    0.803173
     2  C   -1.401673
     3  O   -0.964262
     4  C    1.422216
     5  O   -1.100906
     6  C    1.322804
     7  O   -0.972267
     8  H    0.576229
     9  H    0.055099
    10  H    0.259587
 Sum of Mulliken charges =   0.00000

 Dipole moment (field-independent basis, Debye):
    X=             -1.2873    Y=             -1.8772    Z=              0.0735  Tot=              2.2774

 Test job not archived.
 1\1\GINC-SE224\SP\RHF\Aug-CC-pVDZ\C3H3N1O3\OHZDE\09-Apr-2025\0\\#t hf
 aug-cc-pvdz iop(5/13=1,5/36=2,99/5=2) pseudo=read geom=check guess=(re
 ad,tcheck) scf=(maxcycle=1)\\title\\0,1\N,0,-0.97549669,1.41545788,-0.
 86754461\C,0,-1.478698,0.53011831,-0.34025487\O,0,1.06509808,-0.802244
 56,0.51712593\C,0,2.02072124,-0.16546922,0.16311492\O,0,1.98876828,0.9
 6367615,-0.52513548\C,0,-2.05758146,-0.64400471,0.3585592\O,0,-3.23609
 284,-0.78507426,0.47218513\H,0,1.06401081,1.21479545,-0.70498286\H,0,3
 .05848999,-0.45374813,0.37560418\H,0,-1.29292842,-1.33456791,0.7404734

 Normal termination of Gaussian 16 at Wed Apr  9 18:13:56 2025.
