 Gaussian 16, Revision C.01,

 ----------------------------------------------------------------------
 #t hf aug-cc-pvdz symm=none int=(grid=ultrafine) guess=(read,tcheck) s
 table=(opt,rrhf)
 ----------------------------------------------------------------------
 -----
 title
 -----
 Symbolic Z-matrix:
 Charge =  0 Multiplicity = 1

 SCF Done:  E(RHF) =  -234.102136862     A.U. after   14 cycles
 Normal termination of Gaussian 16 at Wed Apr  9 15:50:06 2025.
 Gaussian 16:  ES64L-G16RevC.01  3-Jul-2019

 ----------------------------------------------------------------------
 #t hf aug-cc-pvdz iop(5/13=1,5/36=2,99/5=2) pseudo=read geom=check gue
 ss=(read,tcheck) scf=(maxcycle=1)
 ----------------------------------------------------------------------
 -----
 title
 -----
 Structure from the checkpoint file:  "Grambow2020_b97d3_006795_reverse_mol2.chk"
 Charge =  0 Multiplicity = 1

                         Standard orientation:
 ---------------------------------------------------------------------
 Center     Atomic      Atomic             Coordinates (Angstroms)
 Number     Number       Type             X           Y           Z
 ---------------------------------------------------------------------
      1          6           0       -2.488795    0.136613    0.287422
      2          6           0       -1.467551   -0.382477   -0.644646
      3          6           0        0.707908    1.471403    0.006654
      4          6           0        0.949955    0.003214   -0.377171
      5          6           0        2.244162   -0.531239    0.251995
      6          6           0       -0.263666   -0.894391    0.056748
      7          1           0       -2.175117    0.426820    1.312944
      8          1           0       -3.106240   -0.785391    0.406211
      9          1           0       -3.169711    0.881681   -0.149989
     10          1           0       -0.166095    1.880290   -0.520690
     11          1           0        0.526649    1.564512    1.088475
     12          1           0        1.579959    2.090898   -0.246841
     13          1           0        1.022944   -0.065677   -1.471943
     14          1           0        2.427853   -1.575764   -0.036393
     15          1           0        3.104470    0.071262   -0.074693
     16          1           0        2.195371   -0.482879    1.349885
     17          1           0       -0.038739   -1.909700   -0.313148
     18          1           0       -0.293422   -0.914785    1.170170
 ---------------------------------------------------------------------

 SCF Done:  E(RHF) =  -234.359623295     A.U. after    2 cycles

 The electronic state is 1-A.
 Alpha  occ. eigenvalues --  -11.26272 -11.24728 -11.23941 -11.23303 -11.22904
 Alpha  occ. eigenvalues --  -11.22852  -1.10606  -1.03312  -0.93641  -0.93202
 Alpha  occ. eigenvalues --   -0.78488  -0.72778  -0.64439  -0.61059  -0.60535
 Alpha  occ. eigenvalues --   -0.57599  -0.56204  -0.55751  -0.54210  -0.51118
 Alpha  occ. eigenvalues --   -0.47977  -0.47667  -0.45671  -0.34226
 Alpha virt. eigenvalues --    0.03596   0.03661   0.03773   0.04282   0.05815
 Alpha virt. eigenvalues --    0.06005   0.06410   0.06941   0.07536   0.08449
 Alpha virt. eigenvalues --    0.09151   0.09437   0.09797   0.12263   0.13721

 Mulliken charges:
               1
     1  C   -0.445306
     2  C   -0.399760
     3  C   -0.074621
     4  C   -1.253452
     5  C   -0.104620
     6  C    0.044525
     7  H    0.154730
     8  H    0.298205
     9  H    0.162786
    10  H    0.197942
    11  H    0.241042
    12  H    0.126533
    13  H    0.135188
    14  H    0.157937
    15  H    0.168806
    16  H    0.228482
    17  H    0.216161
    18  H    0.145423
 Sum of Mulliken charges =  -0.00000

 Dipole moment (field-independent basis, Debye):
    X=              0.4381    Y=              0.0559    Z=              1.7778  Tot=              1.8319

 Test job not archived.
 1\1\GINC-SE168\SP\RHF\Aug-CC-pVDZ\C6H12\OHZDE\09-Apr-2025\0\\#t hf aug
 -cc-pvdz iop(5/13=1,5/36=2,99/5=2) pseudo=read geom=check guess=(read,
 tcheck) scf=(maxcycle=1)\\title\\0,1\C,0,-2.56025099,-0.09197871,0.191
 53644\C,0,-1.51610522,-0.46984401,-0.78217802\C,0,0.53463193,1.4768149
 9,-0.00843337\C,0,0.87218213,0.06084115,-0.50094207\C,0,2.20659653,-0.
 4278192,0.07958446\C,0,-0.27255272,-0.94758896,-0.12743733\H,0,-2.2560
 3037,0.14327808,1.23384807\H,0,-3.1119837,-1.06054225,0.24553133\H,0,-
 3.29514445,0.63443691,-0.18576261\H,0,-0.37090816,1.86203569,-0.499109

 Normal termination of Gaussian 16 at Wed Apr  9 15:50:11 2025.
