 Gaussian 16, Revision C.01,

 ----------------------------------------------------------------------
 #t hf aug-cc-pvdz symm=none int=(grid=ultrafine) guess=(read,tcheck) s
 table=(opt,rrhf)
 ----------------------------------------------------------------------
 -----
 title
 -----
 Symbolic Z-matrix:
 Charge =  0 Multiplicity = 1

 SCF Done:  E(RHF) =  -344.757136269     A.U. after   15 cycles

 1\1\GINC-SE135\Stability\RHF\Aug-CC-pVDZ\C5H10O2\OHZDE\09-Apr-2025\0\\
 #t hf aug-cc-pvdz symm=none int=(grid=ultrafine) guess=(read,tcheck) s
 table=(opt,rrhf)\\title\\0,1\O,0,0.33904165,-1.17083304,1.31426777\C,0
 ,1.3690434,-0.86928468,0.3966014\C,0,0.77340765,-0.39696421,-0.9395360
 3\C,0,-0.5448261,0.33623063,-0.68335279\C,0,-1.40753826,-0.49649204,0.
 19314469\O,0,-0.61878364,1.01803818,1.50889352\C,0,-0.45135455,1.56315
 926,0.23135831\H,0,0.04303381,-0.22163406,1.65128269\H,0,1.98117173,-1
 .76120914,0.25014786\H,0,2.00720555,-0.08571623,0.81890886\H,0,0.57736

 Normal termination of Gaussian 16 at Wed Apr  9 18:25:36 2025.
 Gaussian 16:  ES64L-G16RevC.01  3-Jul-2019

 ----------------------------------------------------------------------
 #t hf aug-cc-pvdz iop(5/13=1,5/36=2,99/5=2) pseudo=read geom=check gue
 ss=(read,tcheck) scf=(maxcycle=1)
 ----------------------------------------------------------------------
 -----
 title
 -----
 Structure from the checkpoint file:  "Grambow2020_wb97xd3_007543_reverse_mol1.chk"
 Charge =  0 Multiplicity = 1

                         Standard orientation:
 ---------------------------------------------------------------------
 Center     Atomic      Atomic             Coordinates (Angstroms)
 Number     Number       Type             X           Y           Z
 ---------------------------------------------------------------------
      1          8           0       -1.007361   -1.217739    0.240930
      2          6           0       -1.582245   -0.171697   -0.513556
      3          6           0       -0.984819    1.181124   -0.093925
      4          6           0        0.466998    0.986297    0.347906
      5          6           0        0.536310   -0.125583    1.330183
      6          8           0        1.259463   -0.993447   -0.505844
      7          6           0        1.403111    0.383677   -0.706290
      8          1           0       -0.076547   -1.355503   -0.224673
      9          1           0       -2.662703   -0.179110   -0.357882
     10          1           0       -1.391736   -0.350400   -1.577203
     11          1           0       -1.553164    1.600458    0.741856
     12          1           0       -1.041604    1.901870   -0.912029
     13          1           0        0.811218    1.914910    0.827000
     14          1           0       -0.236666   -0.248840    2.078571
     15          1           0        1.504098   -0.521092    1.601102
     16          1           0        2.438289    0.703675   -0.513318
     17          1           0        1.155873    0.700613   -1.730025
 ---------------------------------------------------------------------

 SCF Done:  E(RHF) =  -345.118333002     A.U. after    2 cycles

 The electronic state is 1-A.
 Alpha  occ. eigenvalues --  -20.52453 -20.45340 -11.38197 -11.27937 -11.26442
 Alpha  occ. eigenvalues --  -11.26398 -11.24699  -1.43784  -1.34273  -1.11662
 Alpha  occ. eigenvalues --   -1.00578  -0.91631  -0.86262  -0.77941  -0.71436
 Alpha  occ. eigenvalues --   -0.70038  -0.67332  -0.61826  -0.59645  -0.58042
 Alpha  occ. eigenvalues --   -0.57015  -0.52783  -0.51730  -0.50485  -0.46261
 Alpha  occ. eigenvalues --   -0.43753  -0.36217  -0.35441
 Alpha virt. eigenvalues --    0.01905   0.03134   0.03579   0.04615   0.05039
 Alpha virt. eigenvalues --    0.05915   0.06276   0.06379   0.07248   0.09214
 Alpha virt. eigenvalues --    0.09398   0.11887   0.13191   0.13747   0.14075

 Mulliken charges:
               1
     1  O   -1.415787
     2  C    0.683555
     3  C   -0.341190
     4  C   -0.602423
     5  C    0.706304
     6  O   -1.539511
     7  C    0.769650
     8  H    1.037322
     9  H   -0.023572
    10  H    0.150557
    11  H    0.124960
    12  H    0.128155
    13  H    0.150636
    14  H    0.041019
    15  H    0.004459
    16  H    0.031078
    17  H    0.094788
 Sum of Mulliken charges =  -0.00000

 Dipole moment (field-independent basis, Debye):
    X=             -0.8466    Y=              4.0494    Z=              2.7867  Tot=              4.9880

 Test job not archived.
 1\1\GINC-SE135\SP\RHF\Aug-CC-pVDZ\C5H10O2\OHZDE\09-Apr-2025\0\\#t hf a
 ug-cc-pvdz iop(5/13=1,5/36=2,99/5=2) pseudo=read geom=check guess=(rea
 d,tcheck) scf=(maxcycle=1)\\title\\0,1\O,0,0.33904165,-1.17083304,1.31
 426777\C,0,1.3690434,-0.86928468,0.3966014\C,0,0.77340765,-0.39696421,
 -0.93953603\C,0,-0.5448261,0.33623063,-0.68335279\C,0,-1.40753826,-0.4
 9649204,0.19314469\O,0,-0.61878364,1.01803818,1.50889352\C,0,-0.451354
 55,1.56315926,0.23135831\H,0,0.04303381,-0.22163406,1.65128269\H,0,1.9
 8117173,-1.76120914,0.25014786\H,0,2.00720555,-0.08571623,0.81890886\H

 Normal termination of Gaussian 16 at Wed Apr  9 18:25:42 2025.
