 Gaussian 16, Revision C.01,

 ----------------------------------------------------------------------
 #t hf aug-cc-pvdz symm=none int=(grid=ultrafine) guess=(read,tcheck) s
 table=(opt,rrhf)
 ----------------------------------------------------------------------
 -----
 title
 -----
 Symbolic Z-matrix:
 Charge =  0 Multiplicity = 1

 SCF Done:  E(RHF) =  -305.300692113     A.U. after   17 cycles
 Normal termination of Gaussian 16 at Wed Apr  9 18:55:44 2025.
 Gaussian 16:  ES64L-G16RevC.01  3-Jul-2019

 ----------------------------------------------------------------------
 #t hf aug-cc-pvdz iop(5/13=1,5/36=2,99/5=2) pseudo=read geom=check gue
 ss=(read,tcheck) scf=(maxcycle=1)
 ----------------------------------------------------------------------
 -----
 title
 -----
 Structure from the checkpoint file:  "Grambow2020_wb97xd3_008355_reverse_mol1.chk"
 Charge =  0 Multiplicity = 1

                         Standard orientation:
 ---------------------------------------------------------------------
 Center     Atomic      Atomic             Coordinates (Angstroms)
 Number     Number       Type             X           Y           Z
 ---------------------------------------------------------------------
      1          6           0        3.181445    0.102277   -0.001150
      2          6           0        1.994725   -0.093990    0.000810
      3          6           0        0.615474   -0.213964    0.001402
      4          6           0       -0.341947   -1.037120    0.000480
      5          6           0       -1.701479   -1.291991   -0.000192
      6          8           0       -1.983009    0.963622   -0.002348
      7          6           0       -0.852155    1.468930    0.001468
      8          1           0        4.233842    0.259987   -0.003938
      9          1           0       -0.521569   -2.250163    0.000044
     10          1           0       -2.206942   -1.509170   -0.934034
     11          1           0       -2.207404   -1.510834    0.933055
     12          1           0       -0.408311    1.847294    0.933887
     13          1           0       -0.401919    1.849058   -0.927147
 ---------------------------------------------------------------------

 SCF Done:  E(RHF) =  -305.610178341     A.U. after    2 cycles

 The electronic state is 1-A.
 Alpha  occ. eigenvalues --  -20.50848 -11.35419 -11.32140 -11.28660 -11.25639
 Alpha  occ. eigenvalues --  -11.25530 -11.24308  -1.43229  -1.14100  -1.05805
 Alpha  occ. eigenvalues --   -0.97994  -0.84612  -0.81950  -0.74286  -0.70308
 Alpha  occ. eigenvalues --   -0.68482  -0.64998  -0.63229  -0.60193  -0.47848
 Alpha  occ. eigenvalues --   -0.46507  -0.45338  -0.39499  -0.36462  -0.31378
 Alpha virt. eigenvalues --    0.02768   0.03600   0.04262   0.04838   0.05347
 Alpha virt. eigenvalues --    0.06422   0.06674   0.08644   0.09061   0.10623
 Alpha virt. eigenvalues --    0.10889   0.11963   0.13115   0.13456   0.13578

 Mulliken charges:
               1
     1  C   -0.256234
     2  C    0.551647
     3  C    0.550176
     4  C   -0.237184
     5  C   -0.209728
     6  O   -1.092543
     7  C    0.659257
     8  H   -0.500402
     9  H    0.179683
    10  H    0.025035
    11  H    0.025129
    12  H    0.152666
    13  H    0.152497
 Sum of Mulliken charges =   0.00000

 Dipole moment (field-independent basis, Debye):
    X=             -0.1122    Y=             -2.6896    Z=              0.0027  Tot=              2.6919

 Test job not archived.
 1\1\GINC-SE029\SP\RHF\Aug-CC-pVDZ\C6H6O1\OHZDE\09-Apr-2025\0\\#t hf au
 g-cc-pvdz iop(5/13=1,5/36=2,99/5=2) pseudo=read geom=check guess=(read
 ,tcheck) scf=(maxcycle=1)\\title\\0,1\C,0,3.1907106,-0.27541028,0.6509
 1892\C,0,2.02195276,-0.05288863,0.47395516\C,0,0.6596768,0.09816224,0.
 27871938\C,0,-0.26097162,0.94013455,0.08447833\C,0,-1.5992905,1.225215
 47,-0.11780992\O,0,-1.95520347,-1.01501936,0.0295935\C,0,-0.85154197,-
 1.54459527,0.21843836\H,0,4.22759664,-0.4563776,0.80756411\H,0,-0.3977
 2555,2.15262488,-0.03759768\H,0,-2.21564849,1.5324549,0.71910516\H,0,-

 Normal termination of Gaussian 16 at Wed Apr  9 18:55:48 2025.
