 Gaussian 16, Revision C.01,

 ----------------------------------------------------------------------
 #t hf aug-cc-pvdz symm=none int=(grid=ultrafine) guess=(read,tcheck) s
 table=(opt,rrhf)
 ----------------------------------------------------------------------
 -----
 title
 -----
 Symbolic Z-matrix:
 Charge =  0 Multiplicity = 1

 SCF Done:  E(RHF) =  -375.597678632     A.U. after   15 cycles
 Normal termination of Gaussian 16 at Wed Apr  9 03:46:28 2025.
 Gaussian 16:  ES64L-G16RevC.01  3-Jul-2019

 ----------------------------------------------------------------------
 #t hf aug-cc-pvdz iop(5/13=1,5/36=2,99/5=2) pseudo=read geom=check gue
 ss=(read,tcheck) scf=(maxcycle=1)
 ----------------------------------------------------------------------
 -----
 title
 -----
 Structure from the checkpoint file:  "Grambow2020_wb97xd3_007857_reverse_mol1.chk"
 Charge =  0 Multiplicity = 1

                         Standard orientation:
 ---------------------------------------------------------------------
 Center     Atomic      Atomic             Coordinates (Angstroms)
 Number     Number       Type             X           Y           Z
 ---------------------------------------------------------------------
      1          7           0        2.291477    0.906958    0.177788
      2          6           0        1.539102   -0.104530   -0.084223
      3          8           0        1.626669   -1.330351   -0.295780
      4          6           0        0.079007    0.195672   -0.266662
      5          8           0       -0.739697   -0.149090    0.689950
      6          6           0       -2.100107   -0.212656    0.422775
      7          7           0       -2.577826    0.293718   -0.606575
      8          1           0        3.275176    0.675890    0.239395
      9          1           0        0.926030    1.876318    0.012936
     10          1           0       -0.343584    0.229285   -1.269612
     11          1           0        0.116662    1.935968   -0.146968
     12          1           0       -2.591561   -0.727278    1.244159
     13          1           0       -3.582068    0.169696   -0.663094
 ---------------------------------------------------------------------

 SCF Done:  E(RHF) =  -375.972306335     A.U. after    2 cycles

 The electronic state is 1-A.
 Alpha  occ. eigenvalues --  -20.68046 -20.49089 -15.55607 -15.45764 -11.43580
 Alpha  occ. eigenvalues --  -11.41276 -11.33949  -1.63052  -1.42983  -1.28859
 Alpha  occ. eigenvalues --   -1.18416  -1.05102  -0.90582  -0.85485  -0.78819
 Alpha  occ. eigenvalues --   -0.77043  -0.72553  -0.69043  -0.65903  -0.61625
 Alpha  occ. eigenvalues --   -0.58182  -0.56227  -0.54022  -0.52430  -0.46521
 Alpha  occ. eigenvalues --   -0.39836  -0.38085
 Alpha virt. eigenvalues --    0.01664   0.03468   0.03825   0.05590   0.06209
 Alpha virt. eigenvalues --    0.06536   0.08068   0.09187   0.09520   0.10874
 Alpha virt. eigenvalues --    0.11830   0.12711   0.13440   0.13818   0.14706

 Mulliken charges:
               1
     1  N    0.431747
     2  C    0.294000
     3  O   -1.282950
     4  C    0.299381
     5  O   -1.174165
     6  C    0.018873
     7  N    0.597293
     8  H    0.055488
     9  H    0.108885
    10  H    0.269382
    11  H    0.267564
    12  H    0.012976
    13  H    0.101527
 Sum of Mulliken charges =   0.00000

 Dipole moment (field-independent basis, Debye):
    X=             -6.7870    Y=              0.7076    Z=              0.8092  Tot=              6.8716

 Test job not archived.
 1\1\GINC-SE041\SP\RHF\Aug-CC-pVDZ\C3H6N2O2\OHZDE\09-Apr-2025\0\\#t hf
 aug-cc-pvdz iop(5/13=1,5/36=2,99/5=2) pseudo=read geom=check guess=(re
 ad,tcheck) scf=(maxcycle=1)\\title\\0,1\N,0,-2.39625265,-0.72320295,0.
 64825106\C,0,-1.73954847,0.2770016,0.17269129\O,0,-1.91985115,1.463494
 16,-0.16611243\C,0,-0.30058598,0.0133794,-0.16667999\O,0,0.61365909,0.
 50378017,0.62572572\C,0,1.9233257,0.5867272,0.17402889\N,0,2.29244248,
 -0.02276737,-0.84403827\H,0,-3.37511009,-0.52450588,0.81320789\H,0,-1.
 01244078,-1.65197443,0.41645995\H,0,-0.00836261,-0.12615465,-1.2062749

 Normal termination of Gaussian 16 at Wed Apr  9 03:46:33 2025.
