 Gaussian 16, Revision C.01,

 ----------------------------------------------------------------------
 #t hf aug-cc-pvdz symm=none int=(grid=ultrafine) guess=(read,tcheck) s
 table=(opt,rrhf)
 ----------------------------------------------------------------------
 -----
 title
 -----
 Symbolic Z-matrix:
 Charge =  0 Multiplicity = 1

 SCF Done:  E(RHF) =  -316.490327410     A.U. after   15 cycles
 Normal termination of Gaussian 16 at Wed Apr  9 18:16:23 2025.
 Gaussian 16:  ES64L-G16RevC.01  3-Jul-2019

 ----------------------------------------------------------------------
 #t hf aug-cc-pvdz iop(5/13=1,5/36=2,99/5=2) pseudo=read geom=check gue
 ss=(read,tcheck) scf=(maxcycle=1)
 ----------------------------------------------------------------------
 -----
 title
 -----
 Structure from the checkpoint file:  "Grambow2020_wb97xd3_007263_reverse_mol2.chk"
 Charge =  0 Multiplicity = 1

                         Standard orientation:
 ---------------------------------------------------------------------
 Center     Atomic      Atomic             Coordinates (Angstroms)
 Number     Number       Type             X           Y           Z
 ---------------------------------------------------------------------
      1          7           0       -2.782711    0.769196    0.162161
      2          6           0       -1.790695    0.204065    0.049162
      3          6           0       -0.562225   -0.489597   -0.029597
      4          7           0        0.049330   -1.297606   -0.754742
      5          6           0        0.750152   -0.786746    0.500977
      6          6           0        1.850585    0.193830    0.309293
      7          7           0        1.642313    1.247207   -0.352488
      8          1           0        0.860542   -1.514982    1.297680
      9          1           0        2.811056   -0.065493    0.765885
     10          1           0        2.478979    1.819588   -0.427094
 ---------------------------------------------------------------------

 SCF Done:  E(RHF) =  -316.803813257     A.U. after    2 cycles

 The electronic state is 1-A.
 Alpha  occ. eigenvalues --  -15.58124 -15.55726 -15.52280 -11.35977 -11.32530
 Alpha  occ. eigenvalues --  -11.31936 -11.31748  -1.37469  -1.27177  -1.24342
 Alpha  occ. eigenvalues --   -0.99092  -0.95861  -0.83057  -0.77252  -0.71408
 Alpha  occ. eigenvalues --   -0.68602  -0.65196  -0.63564  -0.57029  -0.55958
 Alpha  occ. eigenvalues --   -0.52303  -0.50386  -0.47249  -0.45566
 Alpha virt. eigenvalues --    0.02599   0.02882   0.03707   0.04975   0.05879
 Alpha virt. eigenvalues --    0.07102   0.09104   0.10354   0.10947   0.11141
 Alpha virt. eigenvalues --    0.12727   0.12801   0.13446   0.13787   0.13906

 Mulliken charges:
               1
     1  N    1.152334
     2  C   -2.377100
     3  C    0.759188
     4  N    0.743279
     5  C   -0.129999
     6  C   -0.606568
     7  N    0.609418
     8  H   -0.184097
     9  H   -0.111490
    10  H    0.145036
 Sum of Mulliken charges =   0.00000

 Dipole moment (field-independent basis, Debye):
    X=              4.5025    Y=             -1.3301    Z=              2.7135  Tot=              5.4226

 Test job not archived.
 1\1\GINC-SE105\SP\RHF\Aug-CC-pVDZ\C4H3N3\OHZDE\09-Apr-2025\0\\#t hf au
 g-cc-pvdz iop(5/13=1,5/36=2,99/5=2) pseudo=read geom=check guess=(read
 ,tcheck) scf=(maxcycle=1)\\title\\0,1\N,0,3.04744799,-1.42768177,-0.49
 307479\C,0,1.98085499,-1.22714968,-0.12104875\C,0,0.64711999,-0.989665
 76,0.28052535\N,0,-0.086755,-1.04719921,1.28592584\C,0,-0.6990981,-0.5
 5635303,-0.02291586\C,0,-0.98754805,0.89774682,-0.13070038\N,0,-0.0711
 9913,1.7358662,0.0901917\H,0,-1.39616674,-1.24205961,-0.49318253\H,0,-
 2.01379305,1.16592493,-0.40112527\H,0,-0.4039149,2.6925291,0.0047997\\

 Normal termination of Gaussian 16 at Wed Apr  9 18:16:26 2025.
