 Gaussian 16, Revision C.01,

 ----------------------------------------------------------------------
 #t hf aug-cc-pvdz symm=none int=(grid=ultrafine) guess=(read,tcheck) s
 table=(opt,rrhf)
 ----------------------------------------------------------------------
 -----
 title
 -----
 Symbolic Z-matrix:
 Charge =  0 Multiplicity = 1

 SCF Done:  E(RHF) =  -344.803886178     A.U. after   15 cycles

 1\1\GINC-SE117\Stability\RHF\Aug-CC-pVDZ\C5H10O2\OHZDE\09-Apr-2025\0\\
 #t hf aug-cc-pvdz symm=none int=(grid=ultrafine) guess=(read,tcheck) s
 table=(opt,rrhf)\\title\\0,1\C,0,-2.10028243,-0.71843132,-0.55599046\C
 ,0,-1.09612811,0.41098611,-0.71851705\C,0,-0.07771922,0.5195568,0.3590
 2308\O,0,0.82690717,-1.24056803,0.12498466\C,0,1.13685296,1.2122953,0.
 19462714\C,0,2.02785952,-0.29164662,-0.16045957\O,0,2.9989694,-0.49949
 702,0.54900334\H,0,-2.85393346,-0.67946839,-1.34309576\H,0,-1.59659347
 ,-1.68329069,-0.60618674\H,0,-2.61795253,-0.65254567,0.40362341\H,0,-0

 Normal termination of Gaussian 16 at Wed Apr  9 18:37:43 2025.
 Gaussian 16:  ES64L-G16RevC.01  3-Jul-2019

 ----------------------------------------------------------------------
 #t hf aug-cc-pvdz iop(5/13=1,5/36=2,99/5=2) pseudo=read geom=check gue
 ss=(read,tcheck) scf=(maxcycle=1)
 ----------------------------------------------------------------------
 -----
 title
 -----
 Structure from the checkpoint file:  "Grambow2020_wb97xd3_007838_reverse_mol1.chk"
 Charge =  0 Multiplicity = 1

                         Standard orientation:
 ---------------------------------------------------------------------
 Center     Atomic      Atomic             Coordinates (Angstroms)
 Number     Number       Type             X           Y           Z
 ---------------------------------------------------------------------
      1          6           0        2.619423   -0.603233   -0.009014
      2          6           0        1.670289    0.533425    0.333736
      3          6           0        0.454010    0.627498   -0.515885
      4          8           0       -0.385525   -1.124086   -0.070583
      5          6           0       -0.701121    1.328537   -0.120519
      6          6           0       -1.502477   -0.164824    0.435827
      7          8           0       -2.597809   -0.380812   -0.057317
      8          1           0        3.517505   -0.553744    0.607461
      9          1           0        2.135686   -1.564759    0.160224
     10          1           0        2.931045   -0.556708   -1.054915
     11          1           0        1.365718    0.496032    1.383445
     12          1           0        2.175584    1.500935    0.207343
     13          1           0        0.583871    0.371083   -1.562783
     14          1           0       -0.806149   -1.538512   -0.834100
     15          1           0       -1.339095    1.718533   -0.903132
     16          1           0       -0.612024    1.970980    0.749828
     17          1           0       -1.326204   -0.133079    1.524960
 ---------------------------------------------------------------------

 SCF Done:  E(RHF) =  -345.165221081     A.U. after    2 cycles

 The electronic state is 1-A.
 Alpha  occ. eigenvalues --  -20.55568 -20.46159 -11.36114 -11.36009 -11.27481
 Alpha  occ. eigenvalues --  -11.24811 -11.23265  -1.46491  -1.38583  -1.13510
 Alpha  occ. eigenvalues --   -1.03646  -0.90851  -0.84610  -0.79890  -0.69119
 Alpha  occ. eigenvalues --   -0.67077  -0.65219  -0.62778  -0.62595  -0.59094
 Alpha  occ. eigenvalues --   -0.56692  -0.56065  -0.54167  -0.52938  -0.52346
 Alpha  occ. eigenvalues --   -0.46782  -0.38065  -0.32953
 Alpha virt. eigenvalues --    0.02516   0.02819   0.03331   0.04534   0.05780
 Alpha virt. eigenvalues --    0.05925   0.06397   0.06974   0.07184   0.08551
 Alpha virt. eigenvalues --    0.08978   0.11836   0.12817   0.13604   0.13943

 Mulliken charges:
               1
     1  C   -0.308694
     2  C   -0.460211
     3  C    0.664024
     4  O   -1.134877
     5  C   -0.357357
     6  C    1.757418
     7  O   -1.343718
     8  H    0.137142
     9  H    0.211990
    10  H    0.172042
    11  H    0.150248
    12  H    0.287980
    13  H   -0.145908
    14  H    0.288218
    15  H   -0.031484
    16  H    0.018760
    17  H    0.094427
 Sum of Mulliken charges =   0.00000

 Dipole moment (field-independent basis, Debye):
    X=              5.9091    Y=              1.9271    Z=             -0.6940  Tot=              6.2540

 Test job not archived.
 1\1\GINC-SE117\SP\RHF\Aug-CC-pVDZ\C5H10O2\OHZDE\09-Apr-2025\0\\#t hf a
 ug-cc-pvdz iop(5/13=1,5/36=2,99/5=2) pseudo=read geom=check guess=(rea
 d,tcheck) scf=(maxcycle=1)\\title\\0,1\C,0,-2.10028243,-0.71843132,-0.
 55599046\C,0,-1.09612811,0.41098611,-0.71851705\C,0,-0.07771922,0.5195
 568,0.35902308\O,0,0.82690717,-1.24056803,0.12498466\C,0,1.13685296,1.
 2122953,0.19462714\C,0,2.02785952,-0.29164662,-0.16045957\O,0,2.998969
 4,-0.49949702,0.54900334\H,0,-2.85393346,-0.67946839,-1.34309576\H,0,-
 1.59659347,-1.68329069,-0.60618674\H,0,-2.61795253,-0.65254567,0.40362

 Normal termination of Gaussian 16 at Wed Apr  9 18:37:50 2025.
