 Gaussian 16, Revision C.01,

 ----------------------------------------------------------------------
 #t hf aug-cc-pvdz symm=none int=(grid=ultrafine) guess=(read,tcheck) s
 table=(opt,rrhf)
 ----------------------------------------------------------------------
 -----
 title
 -----
 Symbolic Z-matrix:
 Charge =  0 Multiplicity = 1

 SCF Done:  E(RHF) =  -284.677762292     A.U. after   16 cycles
 Normal termination of Gaussian 16 at Wed Apr  9 16:23:54 2025.
 Gaussian 16:  ES64L-G16RevC.01  3-Jul-2019

 ----------------------------------------------------------------------
 #t hf aug-cc-pvdz iop(5/13=1,5/36=2,99/5=2) pseudo=read geom=check gue
 ss=(read,tcheck) scf=(maxcycle=1)
 ----------------------------------------------------------------------
 -----
 title
 -----
 Structure from the checkpoint file:  "Grambow2020_b97d3_007211_forward_mol1.chk"
 Charge =  0 Multiplicity = 1

                         Standard orientation:
 ---------------------------------------------------------------------
 Center     Atomic      Atomic             Coordinates (Angstroms)
 Number     Number       Type             X           Y           Z
 ---------------------------------------------------------------------
      1          6           0       -1.533554    1.323320    0.279976
      2          6           0       -1.086674   -0.570832   -0.855324
      3          8           0       -0.490726   -1.273176    0.095365
      4          6           0        0.431129   -0.533806    0.854719
      5          6           0        1.484274    0.093370    0.117990
      6          7           0        2.255298    0.698885   -0.531414
      7          1           0       -1.976741    1.550341    1.262736
      8          1           0       -0.913173    2.159659   -0.067438
      9          1           0       -2.386620    1.240300   -0.405977
     10          1           0       -0.483373    0.041974   -1.526983
     11          1           0       -1.987139   -1.044581   -1.245626
     12          1           0        0.697607   -1.088216    1.752216
     13          1           0       -0.582896    0.561416    0.803878
 ---------------------------------------------------------------------

 SCF Done:  E(RHF) =  -284.965565429     A.U. after    2 cycles

 The electronic state is 1-A.
 Alpha  occ. eigenvalues --  -20.64508 -15.51167 -11.39377 -11.30976 -11.28267
 Alpha  occ. eigenvalues --  -11.24458  -1.57089  -1.21562  -1.03379  -0.97512
 Alpha  occ. eigenvalues --   -0.90494  -0.75957  -0.75012  -0.70506  -0.63611
 Alpha  occ. eigenvalues --   -0.60171  -0.59397  -0.57165  -0.55063  -0.51012
 Alpha  occ. eigenvalues --   -0.49112  -0.45504  -0.33596
 Alpha virt. eigenvalues --    0.02505   0.03084   0.03939   0.04707   0.06276
 Alpha virt. eigenvalues --    0.06660   0.07514   0.08871   0.09406   0.10113
 Alpha virt. eigenvalues --    0.12249   0.12952   0.14522   0.14587   0.15059

 Mulliken charges:
               1
     1  C   -0.732943
     2  C    0.405563
     3  O   -1.089009
     4  C    0.663072
     5  C   -1.635751
     6  N    0.816850
     7  H    0.079137
     8  H    0.198034
     9  H    0.069829
    10  H    0.395318
    11  H   -0.078312
    12  H   -0.072319
    13  H    0.980530
 Sum of Mulliken charges =  -0.00000

 Dipole moment (field-independent basis, Debye):
    X=             -4.7090    Y=             -1.8961    Z=              0.1679  Tot=              5.0792

 Test job not archived.
 1\1\GINC-SE163\SP\RHF\Aug-CC-pVDZ\C4H7N1O1\OHZDE\09-Apr-2025\0\\#t hf
 aug-cc-pvdz iop(5/13=1,5/36=2,99/5=2) pseudo=read geom=check guess=(re
 ad,tcheck) scf=(maxcycle=1)\\title\\0,1\C,0,-1.45629291,0.36435082,-0.
 39393324\C,0,-0.04999787,-1.32088314,0.11472993\O,0,0.77709591,-0.6904
 755,0.93372558\C,0,1.15358465,0.58733749,0.48813265\C,0,1.76915712,0.6
 4107804,-0.80160223\N,0,2.14989856,0.66167228,-1.91401611\H,0,-1.99798
 229,1.123938,0.19204629\H,0,-1.33694731,0.69115487,-1.43507967\H,0,-2.
 11356479,-0.51491765,-0.39915985\H,0,0.18422007,-1.37044227,-0.9498430

 Normal termination of Gaussian 16 at Wed Apr  9 16:23:58 2025.
