 Gaussian 16, Revision C.01,

 ----------------------------------------------------------------------
 #t hf aug-cc-pvdz symm=none int=(grid=ultrafine) guess=(read,tcheck) s
 table=(opt,rrhf)
 ----------------------------------------------------------------------
 -----
 title
 -----
 Symbolic Z-matrix:
 Charge =  0 Multiplicity = 1

 SCF Done:  E(RHF) =  -317.605630696     A.U. after   16 cycles
 Normal termination of Gaussian 16 at Wed Apr  9 18:46:24 2025.
 Gaussian 16:  ES64L-G16RevC.01  3-Jul-2019

 ----------------------------------------------------------------------
 #t hf aug-cc-pvdz iop(5/13=1,5/36=2,99/5=2) pseudo=read geom=check gue
 ss=(read,tcheck) scf=(maxcycle=1)
 ----------------------------------------------------------------------
 -----
 title
 -----
 Structure from the checkpoint file:  "Grambow2020_wb97xd3_008056_reverse_mol1.chk"
 Charge =  0 Multiplicity = 1

                         Standard orientation:
 ---------------------------------------------------------------------
 Center     Atomic      Atomic             Coordinates (Angstroms)
 Number     Number       Type             X           Y           Z
 ---------------------------------------------------------------------
      1          7           0        2.702072   -0.049578   -0.498785
      2          6           0        1.661232    0.060069   -0.010058
      3          6           0        0.414960    0.156768    0.651364
      4          6           0       -0.585087    1.236769    0.244087
      5          7           0       -1.664664    0.578031   -0.511171
      6          6           0       -1.569380   -0.662872   -0.386754
      7          7           0       -0.456839   -1.144025    0.381463
      8          1           0       -0.222569   -0.850077    1.443858
      9          1           0       -1.051853    1.726448    1.102229
     10          1           0       -0.127077    2.017454   -0.365455
     11          1           0       -2.255254   -1.387902   -0.808478
     12          1           0        0.062415   -1.941317    0.035466
 ---------------------------------------------------------------------

 SCF Done:  E(RHF) =  -317.927111303     A.U. after    2 cycles

 The electronic state is 1-A.
 Alpha  occ. eigenvalues --  -15.61099 -15.53765 -15.49545 -11.35401 -11.29178
 Alpha  occ. eigenvalues --  -11.28216 -11.26853  -1.35961  -1.23508  -1.21618
 Alpha  occ. eigenvalues --   -1.05836  -0.91895  -0.88116  -0.84222  -0.77011
 Alpha  occ. eigenvalues --   -0.69026  -0.64394  -0.62589  -0.59570  -0.58695
 Alpha  occ. eigenvalues --   -0.52901  -0.52322  -0.48097  -0.47343  -0.34910
 Alpha virt. eigenvalues --    0.01905   0.03785   0.04413   0.05007   0.05892
 Alpha virt. eigenvalues --    0.06929   0.08443   0.08561   0.09625   0.10445
 Alpha virt. eigenvalues --    0.12265   0.12396   0.13603   0.14398   0.14847

 Mulliken charges:
               1
     1  N    0.944253
     2  C   -1.750793
     3  C   -0.289631
     4  C   -0.113669
     5  N    0.690882
     6  C   -0.747537
     7  N    0.392334
     8  H    0.515354
     9  H    0.077803
    10  H    0.119542
    11  H   -0.033082
    12  H    0.194544
 Sum of Mulliken charges =  -0.00000

 Dipole moment (field-independent basis, Debye):
    X=             -4.7600    Y=             -2.9891    Z=              1.5882  Tot=              5.8408

 Test job not archived.
 1\1\GINC-SE117\SP\RHF\Aug-CC-pVDZ\C4H5N3\OHZDE\09-Apr-2025\0\\#t hf au
 g-cc-pvdz iop(5/13=1,5/36=2,99/5=2) pseudo=read geom=check guess=(read
 ,tcheck) scf=(maxcycle=1)\\title\\0,1\N,0,2.50907419,-1.02053012,1.343
 94574\C,0,1.68408919,-0.73190089,0.58875265\C,0,0.72985289,-0.3476046,
 -0.38169684\C,0,-0.62133302,-1.05631159,-0.44804451\N,0,-1.63109343,-0
 .13630569,0.10314521\C,0,-1.13627253,1.0053948,0.22991761\N,0,0.247790
 89,1.14424028,-0.12293355\H,0,0.6957583,0.87684143,-1.12182975\H,0,-0.
 92807405,-1.2874399,-1.47105649\H,0,-0.62623146,-1.99305635,0.11165866

 Normal termination of Gaussian 16 at Wed Apr  9 18:46:29 2025.
