 Gaussian 16, Revision C.01,

 ----------------------------------------------------------------------
 #t hf aug-cc-pvdz symm=none int=(grid=ultrafine) guess=(read,tcheck) s
 table=(opt,rrhf)
 ----------------------------------------------------------------------
 -----
 title
 -----
 Symbolic Z-matrix:
 Charge =  0 Multiplicity = 1

 SCF Done:  E(RHF) =  -307.867931326     A.U. after   14 cycles

 1\1\GINC-SE018\Stability\RHF\Aug-CC-pVDZ\C6H10O1\OHZDE\09-Apr-2025\0\\
 #t hf aug-cc-pvdz symm=none int=(grid=ultrafine) guess=(read,tcheck) s
 table=(opt,rrhf)\\title\\0,1\C,0,1.85104512,-0.47313546,0.10914941\C,0
 ,0.95799258,-0.82875129,1.2568336\C,0,-0.49946195,2.07599015,-1.545174
 76\C,0,-0.98372664,1.1755361,-0.70450618\O,0,-0.95223451,-0.15131792,-
 0.96852175\C,0,-1.32038317,-0.99828572,0.10584871\C,0,-0.35107359,-1.0
 5234297,1.25600385\H,0,2.73362836,-1.11721211,0.11436774\H,0,2.2087960
 7,0.55527236,0.20944315\H,0,1.35498586,-0.56420361,-0.85323848\H,0,1.4

 Normal termination of Gaussian 16 at Wed Apr  9 19:05:11 2025.
 Gaussian 16:  ES64L-G16RevC.01  3-Jul-2019

 ----------------------------------------------------------------------
 #t hf aug-cc-pvdz iop(5/13=1,5/36=2,99/5=2) pseudo=read geom=check gue
 ss=(read,tcheck) scf=(maxcycle=1)
 ----------------------------------------------------------------------
 -----
 title
 -----
 Structure from the checkpoint file:  "Grambow2020_wb97xd3_008510_reverse_mol2.chk"
 Charge =  0 Multiplicity = 1

                         Standard orientation:
 ---------------------------------------------------------------------
 Center     Atomic      Atomic             Coordinates (Angstroms)
 Number     Number       Type             X           Y           Z
 ---------------------------------------------------------------------
      1          6           0       -1.254309    1.598597    0.378951
      2          6           0       -1.824858    0.445666   -0.386822
      3          6           0        2.449853    0.790448   -0.242172
      4          6           0        1.532883   -0.154186   -0.379598
      5          8           0        0.794509   -0.602663    0.661992
      6          6           0       -0.278883   -1.463993    0.325687
      7          6           0       -1.427126   -0.821271   -0.404920
      8          1           0       -2.057001    2.137604    0.887845
      9          1           0       -0.777486    2.309219   -0.301728
     10          1           0       -0.516271    1.290528    1.114445
     11          1           0       -2.681061    0.688474   -1.011495
     12          1           0        3.036736    1.095402   -1.095900
     13          1           0        2.635029    1.258812    0.715747
     14          1           0        1.328450   -0.629109   -1.336887
     15          1           0       -0.617640   -1.884047    1.275812
     16          1           0        0.103002   -2.299382   -0.274588
     17          1           0       -1.995192   -1.517763   -1.015946
 ---------------------------------------------------------------------

 SCF Done:  E(RHF) =  -308.192900238     A.U. after    2 cycles

 The electronic state is 1-A.
 Alpha  occ. eigenvalues --  -20.56638 -11.29990 -11.29604 -11.24253 -11.23557
 Alpha  occ. eigenvalues --  -11.22360 -11.21633  -1.49882  -1.08735  -1.03751
 Alpha  occ. eigenvalues --   -0.97483  -0.90100  -0.80333  -0.74901  -0.69844
 Alpha  occ. eigenvalues --   -0.66670  -0.65216  -0.61127  -0.58053  -0.56542
 Alpha  occ. eigenvalues --   -0.56304  -0.54578  -0.53077  -0.48822  -0.47719
 Alpha  occ. eigenvalues --   -0.36353  -0.34296
 Alpha virt. eigenvalues --    0.03348   0.03890   0.03997   0.04395   0.05826
 Alpha virt. eigenvalues --    0.06043   0.06606   0.06767   0.07259   0.09826
 Alpha virt. eigenvalues --    0.11895   0.12364   0.12779   0.13640   0.14191

 Mulliken charges:
               1
     1  C   -0.617671
     2  C    0.108818
     3  C   -0.179976
     4  C    1.245134
     5  O   -1.368384
     6  C    0.334489
     7  C    0.289948
     8  H    0.166008
     9  H    0.296829
    10  H    0.158422
    11  H   -0.202413
    12  H   -0.078941
    13  H   -0.142374
    14  H   -0.111680
    15  H    0.108463
    16  H    0.190317
    17  H   -0.196991
 Sum of Mulliken charges =  -0.00000

 Dipole moment (field-independent basis, Debye):
    X=             -1.0342    Y=             -0.5811    Z=             -0.8099  Tot=              1.4364

 Test job not archived.
 1\1\GINC-SE018\SP\RHF\Aug-CC-pVDZ\C6H10O1\OHZDE\09-Apr-2025\0\\#t hf a
 ug-cc-pvdz iop(5/13=1,5/36=2,99/5=2) pseudo=read geom=check guess=(rea
 d,tcheck) scf=(maxcycle=1)\\title\\0,1\C,0,1.85104512,-0.47313546,0.10
 914941\C,0,0.95799258,-0.82875129,1.2568336\C,0,-0.49946195,2.07599015
 ,-1.54517476\C,0,-0.98372664,1.1755361,-0.70450618\O,0,-0.95223451,-0.
 15131792,-0.96852175\C,0,-1.32038317,-0.99828572,0.10584871\C,0,-0.351
 07359,-1.05234297,1.25600385\H,0,2.73362836,-1.11721211,0.11436774\H,0
 ,2.20879607,0.55527236,0.20944315\H,0,1.35498586,-0.56420361,-0.853238

 Normal termination of Gaussian 16 at Wed Apr  9 19:05:17 2025.
