 Gaussian 16, Revision C.01,

 ----------------------------------------------------------------------
 #t hf aug-cc-pvdz symm=none int=(grid=ultrafine) guess=(read,tcheck) s
 table=(opt,rrhf)
 ----------------------------------------------------------------------
 -----
 title
 -----
 Symbolic Z-matrix:
 Charge =  0 Multiplicity = 1

 SCF Done:  E(RHF) =  -339.246131329     A.U. after   16 cycles
 Normal termination of Gaussian 16 at Wed Apr  9 15:50:35 2025.
 Gaussian 16:  ES64L-G16RevC.01  3-Jul-2019

 ----------------------------------------------------------------------
 #t hf aug-cc-pvdz iop(5/13=1,5/36=2,99/5=2) pseudo=read geom=check gue
 ss=(read,tcheck) scf=(maxcycle=1)
 ----------------------------------------------------------------------
 -----
 title
 -----
 Structure from the checkpoint file:  "Grambow2020_b97d3_006818_forward_mol1.chk"
 Charge =  0 Multiplicity = 1

                         Standard orientation:
 ---------------------------------------------------------------------
 Center     Atomic      Atomic             Coordinates (Angstroms)
 Number     Number       Type             X           Y           Z
 ---------------------------------------------------------------------
      1          8           0       -2.343712   -0.765854   -0.455937
      2          6           0       -1.703068   -0.227794    0.440463
      3          6           0       -0.333174    0.256550    0.215974
      4          8           0       -0.067234    1.419603   -0.174497
      5          6           0        1.849114    0.009893   -0.005677
      6          8           0        2.664826   -0.813142   -0.013186
      7          1           0       -2.038409   -0.200559    1.506120
      8          1           0        1.130145    1.243808   -0.261724
 ---------------------------------------------------------------------

 SCF Done:  E(RHF) =  -339.568102906     A.U. after    2 cycles

 The electronic state is 1-A.
 Alpha  occ. eigenvalues --  -20.66551 -20.63623 -20.56544 -11.41837 -11.37079
 Alpha  occ. eigenvalues --  -11.35106  -1.59694  -1.55136  -1.48103  -0.98699
 Alpha  occ. eigenvalues --   -0.85277  -0.79782  -0.76666  -0.71131  -0.66375
 Alpha  occ. eigenvalues --   -0.65075  -0.63518  -0.58711  -0.55714  -0.52818
 Alpha  occ. eigenvalues --   -0.46083  -0.37602
 Alpha virt. eigenvalues --    0.03258   0.04345   0.05345   0.06957   0.07765
 Alpha virt. eigenvalues --    0.08989   0.09227   0.10468   0.11757   0.12906
 Alpha virt. eigenvalues --    0.13650   0.14480   0.15057   0.15739   0.16081

 Mulliken charges:
               1
     1  O   -1.060171
     2  C    1.105440
     3  C    0.428349
     4  O   -1.247152
     5  C    0.497471
     6  O   -0.781706
     7  H    0.219651
     8  H    0.838118
 Sum of Mulliken charges =  -0.00000

 Dipole moment (field-independent basis, Debye):
    X=              1.9447    Y=              1.5479    Z=              1.9538  Tot=              3.1616

 Test job not archived.
 1\1\GINC-SE120\SP\RHF\Aug-CC-pVDZ\C3H2O3\OHZDE\09-Apr-2025\0\\#t hf au
 g-cc-pvdz iop(5/13=1,5/36=2,99/5=2) pseudo=read geom=check guess=(read
 ,tcheck) scf=(maxcycle=1)\\title\\0,1\O,0,-2.26343229,0.18959299,1.007
 88778\C,0,-1.21998589,0.79929418,0.80064002\C,0,-0.1568489,0.23062749,
 -0.04075923\O,0,-0.08370043,0.41588141,-1.28020015\C,0,1.56048386,-1.0
 961181,-0.44432472\O,0,2.20761795,-1.91002974,0.06713833\H,0,-0.936914
 05,1.73645907,1.339538\H,0,0.87489174,-0.30804331,-1.45126303\\Version
 =ES64L-G16RevC.01\State=1-A\HF=-339.5681029\RMSD=9.735e-03\Dipole=1.08

 Normal termination of Gaussian 16 at Wed Apr  9 15:50:38 2025.
