 Gaussian 16, Revision C.01,

 ----------------------------------------------------------------------
 #t hf aug-cc-pvdz symm=none int=(grid=ultrafine) guess=(read,tcheck) s
 table=(opt,rrhf)
 ----------------------------------------------------------------------
 -----
 title
 -----
 Symbolic Z-matrix:
 Charge =  0 Multiplicity = 1

 SCF Done:  E(RHF) =  -306.894781785     A.U. after   14 cycles

 1\1\GINC-SE113\Stability\RHF\Aug-CC-pVDZ\C4H10O2\OHZDE\09-Apr-2025\0\\
 #t hf aug-cc-pvdz symm=none int=(grid=ultrafine) guess=(read,tcheck) s
 table=(opt,rrhf)\\title\\0,1\C,0,2.01565167,0.35520987,0.00521831\O,0,
 1.17934675,-0.5055205,-0.76274226\C,0,-0.26333113,-1.32757312,0.439499
 24\C,0,-1.43892636,-0.5448748,0.49019392\C,0,-1.24337497,1.07406923,-0
 .59492536\O,0,-0.66712246,0.78233853,-1.70986112\H,0,1.44157663,1.0346
 9959,0.65433091\H,0,2.67042694,-0.26301557,0.63543046\H,0,2.64287036,0
 .96070617,-0.66764378\H,0,0.4275127,-1.36004415,1.28065466\H,0,-0.2109

 Normal termination of Gaussian 16 at Wed Apr  9 15:48:57 2025.
 Gaussian 16:  ES64L-G16RevC.01  3-Jul-2019

 ----------------------------------------------------------------------
 #t hf aug-cc-pvdz iop(5/13=1,5/36=2,99/5=2) pseudo=read geom=check gue
 ss=(read,tcheck) scf=(maxcycle=1)
 ----------------------------------------------------------------------
 -----
 title
 -----
 Structure from the checkpoint file:  "Grambow2020_b97d3_006768_reverse_mol1.chk"
 Charge =  0 Multiplicity = 1

                         Standard orientation:
 ---------------------------------------------------------------------
 Center     Atomic      Atomic             Coordinates (Angstroms)
 Number     Number       Type             X           Y           Z
 ---------------------------------------------------------------------
      1          6           0       -2.001629   -0.289632    0.545536
      2          8           0       -1.222012   -0.038244   -0.620238
      3          6           0        0.061230    1.522788   -0.275357
      4          6           0        1.308643    1.097895    0.235170
      5          6           0        1.341886   -0.847786    0.458611
      6          8           0        0.796910   -1.411502   -0.563877
      7          1           0       -1.393618   -0.319535    1.463165
      8          1           0       -2.749944    0.509167    0.645773
      9          1           0       -2.525518   -1.252670    0.441275
     10          1           0       -0.672048    2.010521    0.365175
     11          1           0       -0.046755    1.736772   -1.336975
     12          1           0        2.132655    1.165833   -0.478779
     13          1           0        1.559789    1.413327    1.248429
     14          1           0        2.437393   -0.947828    0.569964
     15          1           0        0.815293   -0.843358    1.431161
     16          1           0       -0.417211   -0.773857   -0.660034
 ---------------------------------------------------------------------

 SCF Done:  E(RHF) =  -307.217611717     A.U. after    2 cycles

 The electronic state is 1-A.
 Alpha  occ. eigenvalues --  -20.53835 -20.48426 -11.33923 -11.33272 -11.28499
 Alpha  occ. eigenvalues --  -11.23243  -1.43628  -1.39517  -1.05994  -0.92632
 Alpha  occ. eigenvalues --   -0.88165  -0.81675  -0.70692  -0.68113  -0.63052
 Alpha  occ. eigenvalues --   -0.62139  -0.61270  -0.58970  -0.57712  -0.54349
 Alpha  occ. eigenvalues --   -0.51957  -0.49641  -0.44266  -0.38386  -0.33418
 Alpha virt. eigenvalues --    0.03070   0.03273   0.03949   0.04661   0.06067
 Alpha virt. eigenvalues --    0.06167   0.06580   0.07065   0.07823   0.09319
 Alpha virt. eigenvalues --    0.09986   0.12917   0.13212   0.13821   0.14871

 Mulliken charges:
               1
     1  C    0.248707
     2  O   -1.410696
     3  C    0.282773
     4  C   -0.352672
     5  C    0.642589
     6  O   -1.371605
     7  H    0.162923
     8  H    0.059574
     9  H    0.029116
    10  H    0.061388
    11  H   -0.010499
    12  H    0.114103
    13  H    0.096773
    14  H    0.051853
    15  H    0.249663
    16  H    1.146009
 Sum of Mulliken charges =  -0.00000

 Dipole moment (field-independent basis, Debye):
    X=             -0.3273    Y=              3.1961    Z=              2.4762  Tot=              4.0563

 Test job not archived.
 1\1\GINC-SE113\SP\RHF\Aug-CC-pVDZ\C4H10O2\OHZDE\09-Apr-2025\0\\#t hf a
 ug-cc-pvdz iop(5/13=1,5/36=2,99/5=2) pseudo=read geom=check guess=(rea
 d,tcheck) scf=(maxcycle=1)\\title\\0,1\C,0,2.01565167,0.35520987,0.005
 21831\O,0,1.17934675,-0.5055205,-0.76274226\C,0,-0.26333113,-1.3275731
 2,0.43949924\C,0,-1.43892636,-0.5448748,0.49019392\C,0,-1.24337497,1.0
 7406923,-0.59492536\O,0,-0.66712246,0.78233853,-1.70986112\H,0,1.44157
 663,1.03469959,0.65433091\H,0,2.67042694,-0.26301557,0.63543046\H,0,2.
 64287036,0.96070617,-0.66764378\H,0,0.4275127,-1.36004415,1.28065466\H

 Normal termination of Gaussian 16 at Wed Apr  9 15:49:02 2025.
