 Gaussian 16, Revision C.01,

 ----------------------------------------------------------------------
 #t hf aug-cc-pvdz symm=none int=(grid=ultrafine) guess=(read,tcheck) s
 table=(opt,rrhf)
 ----------------------------------------------------------------------
 -----
 title
 -----
 Symbolic Z-matrix:
 Charge =  0 Multiplicity = 1

 SCF Done:  E(RHF) =  -284.801797228     A.U. after   13 cycles
 Normal termination of Gaussian 16 at Wed Apr  9 03:06:49 2025.
 Gaussian 16:  ES64L-G16RevC.01  3-Jul-2019

 ----------------------------------------------------------------------
 #t hf aug-cc-pvdz iop(5/13=1,5/36=2,99/5=2) pseudo=read geom=check gue
 ss=(read,tcheck) scf=(maxcycle=1)
 ----------------------------------------------------------------------
 -----
 title
 -----
 Structure from the checkpoint file:  "Grambow2020_b97d3_006550_forward_mol2.chk"
 Charge =  0 Multiplicity = 1

                         Standard orientation:
 ---------------------------------------------------------------------
 Center     Atomic      Atomic             Coordinates (Angstroms)
 Number     Number       Type             X           Y           Z
 ---------------------------------------------------------------------
      1          8           0        1.919166   -0.452087   -0.249418
      2          6           0        0.847458    0.175821    0.426125
      3          6           0       -0.056431    1.233265   -0.281995
      4          7           0       -1.319514    0.520465    0.152012
      5          6           0       -1.248619   -0.791421   -0.511064
      6          6           0       -0.436428   -0.598351    0.713382
      7          1           0        1.539559   -0.920216   -1.016942
      8          1           0        1.285475    0.583903    1.343994
      9          1           0        0.052287    1.304891   -1.374371
     10          1           0       -0.011611    2.236411    0.156894
     11          1           0       -0.774012   -0.866280   -1.495965
     12          1           0       -2.163772   -1.375947   -0.409557
     13          1           0       -0.680539   -1.105204    1.648523
 ---------------------------------------------------------------------

 SCF Done:  E(RHF) =  -285.099095248     A.U. after    2 cycles

 The electronic state is 1-A.
 Alpha  occ. eigenvalues --  -20.56109 -15.51363 -11.30362 -11.27826 -11.27639
 Alpha  occ. eigenvalues --  -11.27045  -1.45776  -1.29452  -1.01070  -0.94196
 Alpha  occ. eigenvalues --   -0.84877  -0.78445  -0.73228  -0.67055  -0.64803
 Alpha  occ. eigenvalues --   -0.60924  -0.58123  -0.57296  -0.54571  -0.47978
 Alpha  occ. eigenvalues --   -0.46378  -0.44215  -0.41248
 Alpha virt. eigenvalues --    0.03527   0.03954   0.04675   0.04899   0.05615
 Alpha virt. eigenvalues --    0.06312   0.07010   0.09734   0.11010   0.12413
 Alpha virt. eigenvalues --    0.13930   0.14165   0.14586   0.15085   0.15484

 Mulliken charges:
               1
     1  O   -1.363909
     2  C    1.393955
     3  C   -0.365603
     4  N    0.235321
     5  C    0.169840
     6  C   -0.123910
     7  H    0.286079
     8  H    0.082870
     9  H    0.042268
    10  H    0.004447
    11  H   -0.110089
    12  H   -0.068530
    13  H   -0.182739
 Sum of Mulliken charges =  -0.00000

 Dipole moment (field-independent basis, Debye):
    X=              0.0377    Y=             -1.1116    Z=             -0.8961  Tot=              1.4283

 Test job not archived.
 1\1\GINC-SE456\SP\RHF\Aug-CC-pVDZ\C4H7N1O1\OHZDE\09-Apr-2025\0\\#t hf
 aug-cc-pvdz iop(5/13=1,5/36=2,99/5=2) pseudo=read geom=check guess=(re
 ad,tcheck) scf=(maxcycle=1)\\title\\0,1\O,0,-1.6177439,-0.87291032,0.9
 2349932\C,0,-1.06301821,-0.04716256,-0.08129256\C,0,-0.20603911,1.2080
 6065,0.27457027\N,0,0.9055941,0.77793804,-0.65875291\C,0,1.38814344,-0
 .49327446,-0.09580888\C,0,0.13833958,-0.52739889,-0.89143682\H,0,-0.87
 469586,-1.21846776,1.45341387\H,0,-1.90445899,0.22172741,-0.7297903\H,
 0,0.11183276,1.29170307,1.32442568\H,0,-0.63661642,2.16054647,-0.05453

 Normal termination of Gaussian 16 at Wed Apr  9 03:06:52 2025.
