 Gaussian 16, Revision C.01,

 ----------------------------------------------------------------------
 #t hf aug-cc-pvdz symm=none int=(grid=ultrafine) guess=(read,tcheck) s
 table=(opt,rrhf)
 ----------------------------------------------------------------------
 -----
 title
 -----
 Symbolic Z-matrix:
 Charge =  0 Multiplicity = 1

 SCF Done:  E(RHF) =  -344.768867503     A.U. after   15 cycles

 1\1\GINC-SE459\Stability\RHF\Aug-CC-pVDZ\C5H10O2\OHZDE\09-Apr-2025\0\\
 #t hf aug-cc-pvdz symm=none int=(grid=ultrafine) guess=(read,tcheck) s
 table=(opt,rrhf)\\title\\0,1\C,0,-2.48234147,-0.58606699,-0.06888586\C
 ,0,-0.43662145,-0.40333889,-0.8161167\O,0,-0.45337304,0.79059747,-1.41
 625396\C,0,0.22476784,-0.44103667,0.53901831\C,0,1.73679359,-0.2746805
 8,0.39832655\C,0,2.20572512,1.14372978,0.25652354\O,0,1.48737586,2.107
 56107,0.17527548\H,0,-2.65002263,-1.40870706,0.62441069\H,0,-2.3859482
 1,0.36499597,0.44492417\H,0,-3.25224836,-0.53315733,-0.83803779\H,0,-1

 Normal termination of Gaussian 16 at Wed Apr  9 03:34:38 2025.
 Gaussian 16:  ES64L-G16RevC.01  3-Jul-2019

 ----------------------------------------------------------------------
 #t hf aug-cc-pvdz iop(5/13=1,5/36=2,99/5=2) pseudo=read geom=check gue
 ss=(read,tcheck) scf=(maxcycle=1)
 ----------------------------------------------------------------------
 -----
 title
 -----
 Structure from the checkpoint file:  "Grambow2020_wb97xd3_007089_forward_mol1.chk"
 Charge =  0 Multiplicity = 1

                         Standard orientation:
 ---------------------------------------------------------------------
 Center     Atomic      Atomic             Coordinates (Angstroms)
 Number     Number       Type             X           Y           Z
 ---------------------------------------------------------------------
      1          6           0        2.821210    0.086381    0.493311
      2          6           0        0.987886    0.041012   -0.695629
      3          8           0        0.647433   -1.250585   -0.653219
      4          6           0        0.196647    0.952370    0.209144
      5          6           0       -1.230481    1.111898   -0.311958
      6          6           0       -2.166897   -0.000011    0.060436
      7          8           0       -1.854907   -1.000770    0.654357
      8          1           0        3.178973    1.081052    0.754365
      9          1           0        2.303755   -0.389229    1.320263
     10          1           0        3.620201   -0.552800    0.118862
     11          1           0        2.185014    0.249757   -0.706806
     12          1           0        0.047692   -1.436571    0.089489
     13          1           0        0.144903    0.595255    1.248022
     14          1           0        0.684627    1.927087    0.223515
     15          1           0       -1.248918    1.199468   -1.405432
     16          1           0       -1.685304    2.036383    0.060520
     17          1           0       -3.221345    0.150539   -0.243725
 ---------------------------------------------------------------------

 SCF Done:  E(RHF) =  -345.126632571     A.U. after    2 cycles

 The electronic state is 1-A.
 Alpha  occ. eigenvalues --  -20.56673 -20.56510 -11.36019 -11.29874 -11.26571
 Alpha  occ. eigenvalues --  -11.25027 -11.23789  -1.50276  -1.48595  -1.09585
 Alpha  occ. eigenvalues --   -0.99047  -0.93072  -0.84062  -0.78660  -0.71464
 Alpha  occ. eigenvalues --   -0.69806  -0.66308  -0.65353  -0.61176  -0.58573
 Alpha  occ. eigenvalues --   -0.57622  -0.55498  -0.54651  -0.52438  -0.51804
 Alpha  occ. eigenvalues --   -0.47670  -0.43628  -0.29494
 Alpha virt. eigenvalues --    0.02784   0.03542   0.04214   0.04577   0.05843
 Alpha virt. eigenvalues --    0.06091   0.06707   0.07531   0.08939   0.08964
 Alpha virt. eigenvalues --    0.10356   0.11579   0.11936   0.13408   0.13831

 Mulliken charges:
               1
     1  C   -0.678033
     2  C    0.848917
     3  O   -1.303188
     4  C   -0.311341
     5  C   -0.476274
     6  C    1.060077
     7  O   -1.158115
     8  H    0.075137
     9  H    0.178071
    10  H   -0.017669
    11  H    0.597470
    12  H    0.439223
    13  H    0.093214
    14  H    0.070299
    15  H    0.265639
    16  H    0.206882
    17  H    0.109690
 Sum of Mulliken charges =  -0.00000

 Dipole moment (field-independent basis, Debye):
    X=             -1.4649    Y=              2.9216    Z=              0.7866  Tot=              3.3616

 Test job not archived.
 1\1\GINC-SE459\SP\RHF\Aug-CC-pVDZ\C5H10O2\OHZDE\09-Apr-2025\0\\#t hf a
 ug-cc-pvdz iop(5/13=1,5/36=2,99/5=2) pseudo=read geom=check guess=(rea
 d,tcheck) scf=(maxcycle=1)\\title\\0,1\C,0,-2.48234147,-0.58606699,-0.
 06888586\C,0,-0.43662145,-0.40333889,-0.8161167\O,0,-0.45337304,0.7905
 9747,-1.41625396\C,0,0.22476784,-0.44103667,0.53901831\C,0,1.73679359,
 -0.27468058,0.39832655\C,0,2.20572512,1.14372978,0.25652354\O,0,1.4873
 7586,2.10756107,0.17527548\H,0,-2.65002263,-1.40870706,0.62441069\H,0,
 -2.38594821,0.36499597,0.44492417\H,0,-3.25224836,-0.53315733,-0.83803

 Normal termination of Gaussian 16 at Wed Apr  9 03:34:43 2025.
