 Gaussian 16, Revision C.01,

 ----------------------------------------------------------------------
 #t hf aug-cc-pvdz symm=none int=(grid=ultrafine) guess=(read,tcheck) s
 table=(opt,rrhf)
 ----------------------------------------------------------------------
 -----
 title
 -----
 Symbolic Z-matrix:
 Charge =  0 Multiplicity = 1

 SCF Done:  E(RHF) =  -304.604030645     A.U. after   15 cycles
 Normal termination of Gaussian 16 at Wed Apr  9 03:14:49 2025.
 Gaussian 16:  ES64L-G16RevC.01  3-Jul-2019

 ----------------------------------------------------------------------
 #t hf aug-cc-pvdz iop(5/13=1,5/36=2,99/5=2) pseudo=read geom=check gue
 ss=(read,tcheck) scf=(maxcycle=1)
 ----------------------------------------------------------------------
 -----
 title
 -----
 Structure from the checkpoint file:  "Grambow2020_b97d3_006923_reverse_mol2.chk"
 Charge =  0 Multiplicity = 1

                         Standard orientation:
 ---------------------------------------------------------------------
 Center     Atomic      Atomic             Coordinates (Angstroms)
 Number     Number       Type             X           Y           Z
 ---------------------------------------------------------------------
      1          8           0       -2.696078   -0.262845    0.001820
      2          6           0       -1.410860   -0.522365   -0.243897
      3          6           0        2.804586   -0.350250   -0.054116
      4          6           0        1.479162   -0.333366    0.152427
      5          8           0        0.696803    0.723712   -0.230836
      6          6           0       -0.649270    0.694310    0.236100
      7          1           0       -3.210460   -1.046940   -0.283782
      8          1           0        3.386278   -1.218023    0.246941
      9          1           0        3.316818    0.479645   -0.538046
     10          1           0        0.950567   -1.166945    0.620410
     11          1           0       -1.102550    1.639273   -0.102186
     12          1           0       -0.688165    0.696080    1.345705
 ---------------------------------------------------------------------

 SCF Done:  E(RHF) =  -304.909357574     A.U. after    2 cycles

 The electronic state is 1-A.
 Alpha  occ. eigenvalues --  -20.63251 -20.57102 -11.32926 -11.30781 -11.29930
 Alpha  occ. eigenvalues --  -11.22085  -1.54003  -1.49171  -1.04818  -0.98813
 Alpha  occ. eigenvalues --   -0.84415  -0.78850  -0.71256  -0.67973  -0.66896
 Alpha  occ. eigenvalues --   -0.65743  -0.59802  -0.57225  -0.55471  -0.51357
 Alpha  occ. eigenvalues --   -0.50166  -0.38787  -0.33869
 Alpha virt. eigenvalues --    0.02996   0.04493   0.04549   0.05140   0.06142
 Alpha virt. eigenvalues --    0.07082   0.07901   0.10601   0.11409   0.12126
 Alpha virt. eigenvalues --    0.12552   0.13805   0.14145   0.14646   0.16566

 Mulliken charges:
               1
     1  O   -1.087907
     2  C    0.556668
     3  C   -0.144357
     4  C    1.178336
     5  O   -1.415134
     6  C    0.316224
     7  H    0.484193
     8  H   -0.054794
     9  H   -0.099668
    10  H   -0.035387
    11  H    0.040662
    12  H    0.261164
 Sum of Mulliken charges =  -0.00000

 Dipole moment (field-independent basis, Debye):
    X=             -2.5681    Y=             -0.4377    Z=              0.9699  Tot=              2.7798

 Test job not archived.
 1\1\GINC-SE123\SP\RHF\Aug-CC-pVDZ\C4H6O2\OHZDE\09-Apr-2025\0\\#t hf au
 g-cc-pvdz iop(5/13=1,5/36=2,99/5=2) pseudo=read geom=check guess=(read
 ,tcheck) scf=(maxcycle=1)\\title\\0,1\O,0,2.00408554,-1.83995569,-1.10
 109767\C,0,0.83126484,-1.37222168,-0.67071585\C,0,-2.12348256,1.276257
 8,0.77519194\C,0,-1.08275579,0.66109025,0.19368606\O,0,0.05930401,0.35
 387639,0.88485063\C,0,1.15208266,-0.1063623,0.09439248\H,0,1.82071982,
 -2.65253275,-1.61787525\H,0,-3.01976233,1.48367224,0.19580212\H,0,-2.1
 0427594,1.55824238,1.82657703\H,0,-1.09622315,0.35680671,-0.85536359\H

 Normal termination of Gaussian 16 at Wed Apr  9 03:14:53 2025.
