 Gaussian 16, Revision C.01,

 ----------------------------------------------------------------------
 #t hf aug-cc-pvdz symm=none int=(grid=ultrafine) guess=(read,tcheck) s
 table=(opt,rrhf)
 ----------------------------------------------------------------------
 -----
 title
 -----
 Symbolic Z-matrix:
 Charge =  0 Multiplicity = 1

 SCF Done:  E(RHF) =  -270.026280732     A.U. after   13 cycles

 1\1\GINC-SE174\Stability\RHF\Aug-CC-pVDZ\C5H10O1\OHZDE\09-Apr-2025\0\\
 #t hf aug-cc-pvdz symm=none int=(grid=ultrafine) guess=(read,tcheck) s
 table=(opt,rrhf)\\title\\0,1\C,0,2.03431159,0.19760209,1.11402128\C,0,
 0.92046653,0.06628855,-1.46165755\C,0,0.16518605,0.27753828,-0.3639619
 \O,0,0.63254729,0.36383689,0.92181564\C,0,-1.33581024,0.43279937,-0.38
 6399\C,0,-2.06612272,-0.7001462,0.35897796\H,0,2.3662394,-0.79510246,0
 .77092849\H,0,2.60331869,0.97209011,0.57572484\H,0,2.2052978,0.2939513
 2,2.19138041\H,0,0.43923105,0.01528718,-2.43528827\H,0,2.00014397,-0.0

 Normal termination of Gaussian 16 at Wed Apr  9 15:47:55 2025.
 Gaussian 16:  ES64L-G16RevC.01  3-Jul-2019

 ----------------------------------------------------------------------
 #t hf aug-cc-pvdz iop(5/13=1,5/36=2,99/5=2) pseudo=read geom=check gue
 ss=(read,tcheck) scf=(maxcycle=1)
 ----------------------------------------------------------------------
 -----
 title
 -----
 Structure from the checkpoint file:  "Grambow2020_b97d3_006747_reverse_mol2.chk"
 Charge =  0 Multiplicity = 1

                         Standard orientation:
 ---------------------------------------------------------------------
 Center     Atomic      Atomic             Coordinates (Angstroms)
 Number     Number       Type             X           Y           Z
 ---------------------------------------------------------------------
      1          6           0       -2.113743   -0.733102    0.096883
      2          6           0       -0.593829    1.624746    0.246648
      3          6           0       -0.059019    0.451039   -0.148827
      4          8           0       -0.733771   -0.737289   -0.256925
      5          6           0        1.392245    0.263919   -0.518175
      6          6           0        2.136952   -0.683228    0.441426
      7          1           0       -2.252078   -0.437480    1.148939
      8          1           0       -2.686455   -0.046930   -0.546958
      9          1           0       -2.466502   -1.759445   -0.049416
     10          1           0        0.039769    2.506945    0.295876
     11          1           0       -1.637685    1.749726    0.522525
     12          1           0        1.879403    1.247863   -0.530958
     13          1           0        1.446619   -0.140299   -1.541675
     14          1           0        1.661823   -1.672044    0.453919
     15          1           0        3.183674   -0.805826    0.130033
     16          1           0        2.125955   -0.284444    1.465382
 ---------------------------------------------------------------------

 SCF Done:  E(RHF) =  -270.314661344     A.U. after    2 cycles

 The electronic state is 1-A.
 Alpha  occ. eigenvalues --  -20.56908 -11.30364 -11.29153 -11.23805 -11.22584
 Alpha  occ. eigenvalues --  -11.21630  -1.48856  -1.07455  -0.98723  -0.94957
 Alpha  occ. eigenvalues --   -0.85540  -0.75090  -0.67396  -0.66420  -0.64829
 Alpha  occ. eigenvalues --   -0.60212  -0.57691  -0.56432  -0.53106  -0.50745
 Alpha  occ. eigenvalues --   -0.49895  -0.48704  -0.47667  -0.33908
 Alpha virt. eigenvalues --    0.03740   0.03992   0.04087   0.04496   0.05911
 Alpha virt. eigenvalues --    0.06271   0.06652   0.07169   0.08709   0.09442
 Alpha virt. eigenvalues --    0.11712   0.12018   0.13508   0.13771   0.15088

 Mulliken charges:
               1
     1  C    0.205145
     2  C   -0.086901
     3  C    1.849311
     4  O   -1.657697
     5  C   -0.744243
     6  C   -0.464223
     7  H    0.182609
     8  H    0.183432
     9  H   -0.039618
    10  H   -0.115146
    11  H   -0.195902
    12  H    0.149696
    13  H    0.238396
    14  H    0.214061
    15  H    0.104963
    16  H    0.176118
 Sum of Mulliken charges =   0.00000

 Dipole moment (field-independent basis, Debye):
    X=             -0.5377    Y=             -0.0332    Z=              0.1786  Tot=              0.5675

 Test job not archived.
 1\1\GINC-SE174\SP\RHF\Aug-CC-pVDZ\C5H10O1\OHZDE\09-Apr-2025\0\\#t hf a
 ug-cc-pvdz iop(5/13=1,5/36=2,99/5=2) pseudo=read geom=check guess=(rea
 d,tcheck) scf=(maxcycle=1)\\title\\0,1\C,0,2.03431159,0.19760209,1.114
 02128\C,0,0.92046653,0.06628855,-1.46165755\C,0,0.16518605,0.27753828,
 -0.3639619\O,0,0.63254729,0.36383689,0.92181564\C,0,-1.33581024,0.4327
 9937,-0.386399\C,0,-2.06612272,-0.7001462,0.35897796\H,0,2.3662394,-0.
 79510246,0.77092849\H,0,2.60331869,0.97209011,0.57572484\H,0,2.2052978
 ,0.29395132,2.19138041\H,0,0.43923105,0.01528718,-2.43528827\H,0,2.000

 Normal termination of Gaussian 16 at Wed Apr  9 15:48:00 2025.
