 Gaussian 16, Revision C.01,

 ----------------------------------------------------------------------
 #t hf aug-cc-pvdz symm=none int=(grid=ultrafine) guess=(read,tcheck) s
 table=(opt,rrhf)
 ----------------------------------------------------------------------
 -----
 title
 -----
 Symbolic Z-matrix:
 Charge =  0 Multiplicity = 1

 SCF Done:  E(RHF) =  -360.835996144     A.U. after   13 cycles
 Normal termination of Gaussian 16 at Wed Apr  9 03:58:42 2025.
 Gaussian 16:  ES64L-G16RevC.01  3-Jul-2019

 ----------------------------------------------------------------------
 #t hf aug-cc-pvdz iop(5/13=1,5/36=2,99/5=2) pseudo=read geom=check gue
 ss=(read,tcheck) scf=(maxcycle=1)
 ----------------------------------------------------------------------
 -----
 title
 -----
 Structure from the checkpoint file:  "Grambow2020_wb97xd3_008682_reverse_mol2.chk"
 Charge =  0 Multiplicity = 1

                         Standard orientation:
 ---------------------------------------------------------------------
 Center     Atomic      Atomic             Coordinates (Angstroms)
 Number     Number       Type             X           Y           Z
 ---------------------------------------------------------------------
      1          6           0       -2.576181   -1.217588   -0.049578
      2          7           0       -2.182397    0.021578    0.200429
      3          6           0       -2.637467    1.205138   -0.176898
      4          6           0        0.975205   -0.068835   -0.326438
      5          8           0        0.652308    0.058664    0.826671
      6          8           0        2.218433   -0.083327   -0.770101
      7          6           0        3.240824    0.067612    0.221659
      8          1           0       -2.026372   -2.021308    0.408990
      9          1           0        0.267162   -0.190736   -1.156142
     10          1           0       -3.460319   -1.386596   -0.643698
     11          1           0       -1.331368    0.070793    0.761395
     12          1           0       -2.121910    2.079056    0.181621
     13          1           0       -3.525744    1.265791   -0.785666
     14          1           0        3.195245   -0.752095    0.938066
     15          1           0        3.118842    1.013180    0.748986
     16          1           0        4.181038    0.050208   -0.321579
 ---------------------------------------------------------------------

 SCF Done:  E(RHF) =  -361.207818879     A.U. after    2 cycles

 The electronic state is 1-A.
 Alpha  occ. eigenvalues --  -20.61578 -20.56261 -15.59530 -11.40970 -11.31286
 Alpha  occ. eigenvalues --  -11.22999 -11.22896  -1.57561  -1.48046  -1.29007
 Alpha  occ. eigenvalues --   -1.01024  -0.98573  -0.85358  -0.84012  -0.76553
 Alpha  occ. eigenvalues --   -0.72977  -0.70564  -0.69392  -0.67340  -0.61556
 Alpha  occ. eigenvalues --   -0.57473  -0.57118  -0.56445  -0.54990  -0.54735
 Alpha  occ. eigenvalues --   -0.47875  -0.47569  -0.24230
 Alpha virt. eigenvalues --    0.03207   0.04443   0.04623   0.04626   0.05623
 Alpha virt. eigenvalues --    0.06267   0.06452   0.07973   0.08091   0.09013
 Alpha virt. eigenvalues --    0.10278   0.10688   0.14036   0.14360   0.14706

 Mulliken charges:
               1
     1  C   -0.404215
     2  N    1.052332
     3  C   -0.400768
     4  C    1.471180
     5  O   -1.004131
     6  O   -1.194284
     7  C    0.172152
     8  H   -0.094853
     9  H    0.176629
    10  H   -0.109715
    11  H    0.235382
    12  H   -0.091686
    13  H   -0.106831
    14  H    0.143947
    15  H    0.145330
    16  H    0.009531
 Sum of Mulliken charges =  -0.00000

 Dipole moment (field-independent basis, Debye):
    X=              3.1139    Y=             -0.0054    Z=             -0.5519  Tot=              3.1625

 Test job not archived.
 1\1\GINC-SE403\SP\RHF\Aug-CC-pVDZ\C4H9N1O2\OHZDE\09-Apr-2025\0\\#t hf
 aug-cc-pvdz iop(5/13=1,5/36=2,99/5=2) pseudo=read geom=check guess=(re
 ad,tcheck) scf=(maxcycle=1)\\title\\0,1\C,0,-2.65775261,0.47451939,0.1
 8522674\N,0,-1.88836685,-0.40364819,0.80970202\C,0,-1.84309269,-0.8334
 1786,2.060113\C,0,1.07415989,0.41152909,-0.09314309\O,0,0.66927505,-0.
 62840279,-0.54567815\O,0,2.27890123,0.91108767,-0.29735758\C,0,3.14980
 477,0.13155402,-1.12531112\H,0,-2.49184945,0.62861022,-0.86704321\H,0,
 0.48357135,1.07687641,0.54959417\H,0,-3.45890578,0.95804836,0.72150588

 Normal termination of Gaussian 16 at Wed Apr  9 03:58:47 2025.
