 Gaussian 16, Revision C.01,

 ----------------------------------------------------------------------
 #t hf aug-cc-pvdz symm=none int=(grid=ultrafine) guess=(read,tcheck) s
 table=(opt,rrhf)
 ----------------------------------------------------------------------
 -----
 title
 -----
 Symbolic Z-matrix:
 Charge =  0 Multiplicity = 1

 SCF Done:  E(RHF) =  -322.661802434     A.U. after   15 cycles
 Normal termination of Gaussian 16 at Wed Apr  9 03:33:23 2025.
 Gaussian 16:  ES64L-G16RevC.01  3-Jul-2019

 ----------------------------------------------------------------------
 #t hf aug-cc-pvdz iop(5/13=1,5/36=2,99/5=2) pseudo=read geom=check gue
 ss=(read,tcheck) scf=(maxcycle=1)
 ----------------------------------------------------------------------
 -----
 title
 -----
 Structure from the checkpoint file:  "Grambow2020_wb97xd3_007009_forward_mol1.chk"
 Charge =  0 Multiplicity = 1

                         Standard orientation:
 ---------------------------------------------------------------------
 Center     Atomic      Atomic             Coordinates (Angstroms)
 Number     Number       Type             X           Y           Z
 ---------------------------------------------------------------------
      1          6           0        1.969903   -0.601985   -0.375591
      2          6           0        0.832936   -0.010243    0.456543
      3          6           0        0.507939    1.450282    0.200421
      4          6           0       -0.771569    1.557128   -0.175555
      5          7           0       -1.387248    0.291505   -0.207363
      6          6           0       -0.503421   -0.610069    0.136278
      7          8           0       -1.025487   -1.768530    0.079683
      8          1           0        2.914513   -0.119255   -0.124491
      9          1           0        1.784083   -0.455501   -1.440350
     10          1           0        2.065119   -1.671788   -0.186029
     11          1           0        1.035280   -0.181434    1.519905
     12          1           0        1.212311    2.260211    0.313876
     13          1           0       -1.329286    2.444911   -0.431142
     14          1           0       -1.982113   -0.880128   -0.290275
 ---------------------------------------------------------------------

 SCF Done:  E(RHF) =  -322.994306884     A.U. after    2 cycles

 The electronic state is 1-A.
 Alpha  occ. eigenvalues --  -20.54451 -15.50422 -11.35611 -11.28991 -11.27199
 Alpha  occ. eigenvalues --  -11.24808 -11.23910  -1.49412  -1.27243  -1.09387
 Alpha  occ. eigenvalues --   -1.01192  -0.92169  -0.83810  -0.76022  -0.72495
 Alpha  occ. eigenvalues --   -0.65932  -0.64463  -0.60687  -0.60296  -0.58234
 Alpha  occ. eigenvalues --   -0.54323  -0.51760  -0.51458  -0.48110  -0.46311
 Alpha  occ. eigenvalues --   -0.33815
 Alpha virt. eigenvalues --    0.03242   0.03742   0.04283   0.04452   0.05800
 Alpha virt. eigenvalues --    0.06649   0.06983   0.09772   0.10746   0.11040
 Alpha virt. eigenvalues --    0.12271   0.13217   0.13445   0.14366   0.15108

 Mulliken charges:
               1
     1  C   -0.055358
     2  C   -1.505637
     3  C    1.164603
     4  C   -0.649979
     5  N    0.661418
     6  C    0.769840
     7  O   -1.518549
     8  H    0.142994
     9  H    0.244186
    10  H    0.175640
    11  H    0.287593
    12  H   -0.139568
    13  H   -0.128444
    14  H    0.551261
 Sum of Mulliken charges =  -0.00000

 Dipole moment (field-independent basis, Debye):
    X=              1.8879    Y=              1.8049    Z=              0.2239  Tot=              2.6214

 Test job not archived.
 1\1\GINC-SE342\SP\RHF\Aug-CC-pVDZ\C5H7N1O1\OHZDE\09-Apr-2025\0\\#t hf
 aug-cc-pvdz iop(5/13=1,5/36=2,99/5=2) pseudo=read geom=check guess=(re
 ad,tcheck) scf=(maxcycle=1)\\title\\0,1\C,0,-1.75921953,0.09775169,0.2
 5837775\C,0,-0.42519066,0.25967744,-0.46925332\C,0,0.56786431,1.218617
 19,0.16211828\C,0,1.70061622,0.56171956,0.43647894\N,0,1.59770014,-0.7
 8833822,0.05095509\C,0,0.40732082,-0.98728611,-0.45450633\O,0,0.275429
 77,-2.21044168,-0.77743625\H,0,-2.31665281,1.03441413,0.24109945\H,0,-
 1.59789233,-0.18437487,1.29956769\H,0,-2.36313307,-0.67496144,-0.21878

 Normal termination of Gaussian 16 at Wed Apr  9 03:33:27 2025.
