 Gaussian 16, Revision C.01,

 ----------------------------------------------------------------------
 #t hf aug-cc-pvdz symm=none int=(grid=ultrafine) guess=(read,tcheck) s
 table=(opt,rrhf)
 ----------------------------------------------------------------------
 -----
 title
 -----
 Symbolic Z-matrix:
 Charge =  0 Multiplicity = 1

 SCF Done:  E(RHF) =  -302.173177342     A.U. after   18 cycles
 Normal termination of Gaussian 16 at Wed Apr  9 15:43:34 2025.
 Gaussian 16:  ES64L-G16RevC.01  3-Jul-2019

 ----------------------------------------------------------------------
 #t hf aug-cc-pvdz iop(5/13=1,5/36=2,99/5=2) pseudo=read geom=check gue
 ss=(read,tcheck) scf=(maxcycle=1)
 ----------------------------------------------------------------------
 -----
 title
 -----
 Structure from the checkpoint file:  "Grambow2020_b97d3_006706_reverse_mol1.chk"
 Charge =  0 Multiplicity = 1

                         Standard orientation:
 ---------------------------------------------------------------------
 Center     Atomic      Atomic             Coordinates (Angstroms)
 Number     Number       Type             X           Y           Z
 ---------------------------------------------------------------------
      1          8           0       -2.422941   -0.292350   -0.110611
      2          6           0       -1.279170   -0.290992    0.084649
      3          6           0       -0.220787    1.460439    0.148219
      4          6           0        0.977077    1.097742   -0.091300
      5          6           0        1.742216   -0.083528   -0.085636
      6          8           0        1.160423   -1.211250    0.076605
      7          1           0       -0.048221   -0.956840    0.138427
      8          1           0        2.832354   -0.116316   -0.201973
 ---------------------------------------------------------------------

 SCF Done:  E(RHF) =  -302.461452305     A.U. after    2 cycles

 The electronic state is 1-A.
 Alpha  occ. eigenvalues --  -20.66253 -20.62272 -11.42552 -11.42427 -11.27681
 Alpha  occ. eigenvalues --  -11.23310  -1.59384  -1.53931  -1.07515  -0.94909
 Alpha  occ. eigenvalues --   -0.83836  -0.79758  -0.72051  -0.69712  -0.65758
 Alpha  occ. eigenvalues --   -0.63306  -0.61056  -0.52683  -0.44630  -0.40751
 Alpha  occ. eigenvalues --   -0.38764
 Alpha virt. eigenvalues --    0.01247   0.02879   0.03515   0.05392   0.07550
 Alpha virt. eigenvalues --    0.07950   0.09444   0.09727   0.11477   0.12890
 Alpha virt. eigenvalues --    0.13340   0.13982   0.14764   0.15123   0.15825

 Mulliken charges:
               1
     1  O   -0.834648
     2  C    0.613593
     3  C   -0.512829
     4  C    0.152200
     5  C    0.933489
     6  O   -1.490075
     7  H    1.043270
     8  H    0.095000
 Sum of Mulliken charges =  -0.00000

 Dipole moment (field-independent basis, Debye):
    X=              2.0817    Y=             -2.5852    Z=             -0.1288  Tot=              3.3216

 Test job not archived.
 1\1\GINC-SE026\SP\RHF\Aug-CC-pVDZ\C4H2O2\OHZDE\09-Apr-2025\0\\#t hf au
 g-cc-pvdz iop(5/13=1,5/36=2,99/5=2) pseudo=read geom=check guess=(read
 ,tcheck) scf=(maxcycle=1)\\title\\0,1\O,0,-2.55683015,-0.71336238,0.57
 54568\C,0,-1.43719298,-0.41985125,0.49419619\C,0,-0.84726507,1.1979459
 1,-0.61325343\C,0,0.37844676,0.95897368,-0.8668644\C,0,1.41148886,0.12
 999621,-0.39095464\O,0,1.14502876,-0.78035854,0.46742499\H,0,-0.079152
 87,-0.73153542,0.63583259\H,0,2.46148969,0.21028278,-0.6976501\\Versio
 n=ES64L-G16RevC.01\State=1-A\HF=-302.4614523\RMSD=1.217e-02\Dipole=1.0

 Normal termination of Gaussian 16 at Wed Apr  9 15:43:37 2025.
