 Gaussian 16, Revision C.01,

 ----------------------------------------------------------------------
 #t hf aug-cc-pvdz symm=none int=(grid=ultrafine) guess=(read,tcheck) s
 table=(opt,rrhf)
 ----------------------------------------------------------------------
 -----
 title
 -----
 Symbolic Z-matrix:
 Charge =  0 Multiplicity = 1

 SCF Done:  E(RHF) =  -264.901851538     A.U. after   17 cycles
 Normal termination of Gaussian 16 at Wed Apr  9 15:41:55 2025.
 Gaussian 16:  ES64L-G16RevC.01  3-Jul-2019

 ----------------------------------------------------------------------
 #t hf aug-cc-pvdz iop(5/13=1,5/36=2,99/5=2) pseudo=read geom=check gue
 ss=(read,tcheck) scf=(maxcycle=1)
 ----------------------------------------------------------------------
 -----
 title
 -----
 Structure from the checkpoint file:  "Grambow2020_b97d3_006632_forward_mol1.chk"
 Charge =  0 Multiplicity = 1

                         Standard orientation:
 ---------------------------------------------------------------------
 Center     Atomic      Atomic             Coordinates (Angstroms)
 Number     Number       Type             X           Y           Z
 ---------------------------------------------------------------------
      1          6           0        2.284008    0.084303   -0.028128
      2          6           0        1.200750   -0.949542    0.166420
      3          6           0       -0.895554   -0.346362   -0.521492
      4          7           0       -1.776892   -1.144251    0.139847
      5          6           0       -0.773341    1.004196   -0.102347
      6          7           0       -0.668861    2.149026    0.157680
      7          1           0        1.920127    1.093628    0.209201
      8          1           0        2.676380    0.086055   -1.054031
      9          1           0        3.135305   -0.116416    0.647939
     10          1           0        1.445215   -1.959056   -0.193044
     11          1           0        0.797263   -0.991011    1.181693
     12          1           0        0.155795   -0.785127   -0.863367
     13          1           0       -1.946779   -1.049905    1.141095
     14          1           0       -1.958218   -2.067157   -0.238894
 ---------------------------------------------------------------------

 SCF Done:  E(RHF) =  -265.175776700     A.U. after    2 cycles

 The electronic state is 1-A.
 Alpha  occ. eigenvalues --  -15.54204 -15.50982 -11.31747 -11.28772 -11.28161
 Alpha  occ. eigenvalues --  -11.24642  -1.24807  -1.20546  -1.05146  -0.96899
 Alpha  occ. eigenvalues --   -0.85746  -0.77549  -0.73688  -0.66603  -0.64352
 Alpha  occ. eigenvalues --   -0.59782  -0.58232  -0.55206  -0.53728  -0.52004
 Alpha  occ. eigenvalues --   -0.48679  -0.48297  -0.31769
 Alpha virt. eigenvalues --    0.02287   0.03423   0.03915   0.04520   0.05724
 Alpha virt. eigenvalues --    0.06224   0.07012   0.08118   0.08583   0.10653
 Alpha virt. eigenvalues --    0.11757   0.12487   0.12593   0.14101   0.14595

 Mulliken charges:
               1
     1  C   -0.385982
     2  C   -0.533721
     3  C   -0.836597
     4  N    0.689231
     5  C   -1.397138
     6  N    0.833147
     7  H    0.228129
     8  H    0.155246
     9  H    0.171921
    10  H    0.035340
    11  H    0.156487
    12  H    0.612084
    13  H    0.089429
    14  H    0.182423
 Sum of Mulliken charges =   0.00000

 Dipole moment (field-independent basis, Debye):
    X=              1.3933    Y=             -5.8453    Z=              0.7838  Tot=              6.0600

 Test job not archived.
 1\1\GINC-SE097\SP\RHF\Aug-CC-pVDZ\C4H8N2\OHZDE\09-Apr-2025\0\\#t hf au
 g-cc-pvdz iop(5/13=1,5/36=2,99/5=2) pseudo=read geom=check guess=(read
 ,tcheck) scf=(maxcycle=1)\\title\\0,1\C,0,-1.92368392,0.2326246,0.1186
 6582\C,0,-0.73451907,-0.69393615,0.03203961\C,0,1.30276851,0.2458016,0
 .47689109\N,0,2.24351835,-0.55280319,-0.09579897\C,0,1.00290261,1.4816
 8653,-0.15342077\N,0,0.75193126,2.54570712,-0.59392117\H,0,-1.69296291
 ,1.21939929,-0.30620537\H,0,-2.26904338,0.36882858,1.15240222\H,0,-2.7
 7331726,-0.17438128,-0.45972087\H,0,-0.84151306,-1.64663378,0.56964033

 Normal termination of Gaussian 16 at Wed Apr  9 15:41:59 2025.
