 Gaussian 16, Revision C.01,

 ----------------------------------------------------------------------
 #t hf aug-cc-pvdz symm=none int=(grid=ultrafine) guess=(read,tcheck) s
 table=(opt,rrhf)
 ----------------------------------------------------------------------
 -----
 title
 -----
 Symbolic Z-matrix:
 Charge =  0 Multiplicity = 1

 SCF Done:  E(RHF) =  -342.384192596     A.U. after   17 cycles
 Normal termination of Gaussian 16 at Wed Apr  9 19:04:52 2025.
 Gaussian 16:  ES64L-G16RevC.01  3-Jul-2019

 ----------------------------------------------------------------------
 #t hf aug-cc-pvdz iop(5/13=1,5/36=2,99/5=2) pseudo=read geom=check gue
 ss=(read,tcheck) scf=(maxcycle=1)
 ----------------------------------------------------------------------
 -----
 title
 -----
 Structure from the checkpoint file:  "Grambow2020_wb97xd3_008524_reverse_mol2.chk"
 Charge =  0 Multiplicity = 1

                         Standard orientation:
 ---------------------------------------------------------------------
 Center     Atomic      Atomic             Coordinates (Angstroms)
 Number     Number       Type             X           Y           Z
 ---------------------------------------------------------------------
      1          8           0       -0.877827   -1.113574   -0.197298
      2          6           0        0.261250   -0.896382    0.545807
      3          6           0        1.385889   -0.502621   -0.393065
      4          8           0        0.818395    0.834113   -0.749082
      5          6           0       -0.325345    1.046164    0.155260
      6          6           0       -1.477094    0.190113   -0.329697
      7          6           0        0.186706    0.227075    1.321758
      8          1           0        1.448089   -1.088324   -1.308136
      9          1           0        2.358629   -0.389058    0.080041
     10          1           0       -0.495491    2.115881    0.243581
     11          1           0       -1.716143    0.335488   -1.382421
     12          1           0       -2.373364    0.302162    0.288261
     13          1           0        1.065293    0.573444    1.849329
 ---------------------------------------------------------------------

 SCF Done:  E(RHF) =  -342.729824106     A.U. after    2 cycles

 The electronic state is 1-A.
 Alpha  occ. eigenvalues --  -20.56535 -20.55532 -11.32415 -11.32324 -11.31880
 Alpha  occ. eigenvalues --  -11.29887 -11.25430  -1.51795  -1.44051  -1.09862
 Alpha  occ. eigenvalues --   -1.04878  -0.92410  -0.81754  -0.77969  -0.71013
 Alpha  occ. eigenvalues --   -0.70411  -0.65742  -0.62612  -0.59202  -0.56934
 Alpha  occ. eigenvalues --   -0.55966  -0.53816  -0.50916  -0.43768  -0.43150
 Alpha  occ. eigenvalues --   -0.32473
 Alpha virt. eigenvalues --    0.01861   0.03505   0.04227   0.04829   0.05125
 Alpha virt. eigenvalues --    0.06158   0.06461   0.08637   0.10166   0.10707
 Alpha virt. eigenvalues --    0.12467   0.13015   0.14158   0.14357   0.15349

 Mulliken charges:
               1
     1  O   -1.361509
     2  C    0.669757
     3  C    0.581112
     4  O   -1.401703
     5  C    0.691409
     6  C    0.561536
     7  C   -0.075883
     8  H    0.072322
     9  H    0.055091
    10  H    0.025649
    11  H    0.100533
    12  H    0.082883
    13  H   -0.001196
 Sum of Mulliken charges =  -0.00000

 Dipole moment (field-independent basis, Debye):
    X=              0.2837    Y=              1.1271    Z=              0.2813  Tot=              1.1958

 Test job not archived.
 1\1\GINC-SE035\SP\RHF\Aug-CC-pVDZ\C5H6O2\OHZDE\09-Apr-2025\0\\#t hf au
 g-cc-pvdz iop(5/13=1,5/36=2,99/5=2) pseudo=read geom=check guess=(read
 ,tcheck) scf=(maxcycle=1)\\title\\0,1\O,0,-0.00425934,0.43832468,1.476
 05704\C,0,0.49766584,1.02791587,0.33705472\C,0,1.53842941,0.1055256,-0
 .26903703\O,0,0.5684147,-0.94867308,-0.69728204\C,0,-0.77379707,-0.380
 55158,-0.48130241\C,0,-1.06753204,-0.41210156,1.00438227\C,0,-0.410304
 51,1.07563995,-0.68427968\H,0,2.22353241,-0.34769922,0.44475069\H,0,2.
 06382375,0.51145766,-1.13050597\H,0,-1.46936503,-0.88993167,-1.1429377

 Normal termination of Gaussian 16 at Wed Apr  9 19:04:56 2025.
