 Gaussian 16, Revision C.01,

 ----------------------------------------------------------------------
 #t hf aug-cc-pvdz symm=none int=(grid=ultrafine) guess=(read,tcheck) s
 table=(opt,rrhf)
 ----------------------------------------------------------------------
 -----
 title
 -----
 Symbolic Z-matrix:
 Charge =  0 Multiplicity = 1

 SCF Done:  E(RHF) =  -305.309814317     A.U. after   17 cycles
 Normal termination of Gaussian 16 at Wed Apr  9 18:55:45 2025.
 Gaussian 16:  ES64L-G16RevC.01  3-Jul-2019

 ----------------------------------------------------------------------
 #t hf aug-cc-pvdz iop(5/13=1,5/36=2,99/5=2) pseudo=read geom=check gue
 ss=(read,tcheck) scf=(maxcycle=1)
 ----------------------------------------------------------------------
 -----
 title
 -----
 Structure from the checkpoint file:  "Grambow2020_wb97xd3_008352_forward_mol1.chk"
 Charge =  0 Multiplicity = 1

                         Standard orientation:
 ---------------------------------------------------------------------
 Center     Atomic      Atomic             Coordinates (Angstroms)
 Number     Number       Type             X           Y           Z
 ---------------------------------------------------------------------
      1          8           0        0.182687    1.667838   -0.266867
      2          6           0        0.781529    0.837773    0.566611
      3          6           0       -0.958804   -0.537957    1.270322
      4          6           0       -1.593944   -0.520266    0.000233
      5          6           0       -2.037708   -0.405322   -1.112889
      6          6           0        1.548318   -0.210648   -0.023359
      7          6           0        2.279483   -1.035914   -0.502449
      8          1           0        0.014258    1.262165   -1.137419
      9          1           0        0.024606    0.417960    1.462143
     10          1           0       -1.591184   -0.180364    2.083113
     11          1           0       -0.454534   -1.469515    1.514120
     12          1           0       -2.507543   -0.374051   -2.067600
     13          1           0        2.939651   -1.764890   -0.910236
 ---------------------------------------------------------------------

 SCF Done:  E(RHF) =  -305.621038310     A.U. after    2 cycles

 The electronic state is 1-A.
 Alpha  occ. eigenvalues --  -20.60355 -11.34158 -11.27762 -11.26453 -11.25751
 Alpha  occ. eigenvalues --  -11.25520 -11.24176  -1.52501  -1.08366  -1.06048
 Alpha  occ. eigenvalues --   -0.97974  -0.92321  -0.79074  -0.73898  -0.72839
 Alpha  occ. eigenvalues --   -0.68690  -0.65220  -0.62263  -0.61810  -0.51948
 Alpha  occ. eigenvalues --   -0.45838  -0.43546  -0.41861  -0.40409  -0.31016
 Alpha virt. eigenvalues --    0.03093   0.03456   0.04057   0.04696   0.05338
 Alpha virt. eigenvalues --    0.06160   0.07202   0.09262   0.09972   0.10282
 Alpha virt. eigenvalues --    0.11169   0.12194   0.13048   0.13756   0.14171

 Mulliken charges:
               1
     1  O   -1.140196
     2  C    0.436232
     3  C   -0.782478
     4  C    0.425656
     5  C    0.168914
     6  C    0.455297
     7  C    0.095936
     8  H    0.403982
     9  H    0.500898
    10  H    0.055207
    11  H    0.162973
    12  H   -0.417452
    13  H   -0.364968
 Sum of Mulliken charges =   0.00000

 Dipole moment (field-independent basis, Debye):
    X=              0.0174    Y=             -1.6223    Z=             -1.1165  Tot=              1.9694

 Test job not archived.
 1\1\GINC-SE226\SP\RHF\Aug-CC-pVDZ\C6H6O1\OHZDE\09-Apr-2025\0\\#t hf au
 g-cc-pvdz iop(5/13=1,5/36=2,99/5=2) pseudo=read geom=check guess=(read
 ,tcheck) scf=(maxcycle=1)\\title\\0,1\O,0,-0.37086686,-0.0561258,1.844
 95034\C,0,0.47551471,-0.7514938,1.10846723\C,0,-0.69234387,-1.05157357
 ,-0.88217584\C,0,-1.29701474,0.23166198,-0.81493388\C,0,-1.75462894,1.
 32912342,-0.62692823\C,0,1.55254914,-0.02326457,0.52118904\C,0,2.52030
 184,0.55549901,0.10443762\H,0,-0.39221703,0.88628737,1.59554983\H,0,-0
 .09250585,-1.49350925,0.28510911\H,0,-1.40776401,-1.87262391,-0.931748

 Normal termination of Gaussian 16 at Wed Apr  9 18:55:49 2025.
