 Gaussian 16, Revision C.01,

 ----------------------------------------------------------------------
 #t hf aug-cc-pvdz symm=none int=(grid=ultrafine) guess=(read,tcheck) s
 table=(opt,rrhf)
 ----------------------------------------------------------------------
 -----
 title
 -----
 Symbolic Z-matrix:
 Charge =  0 Multiplicity = 1

 SCF Done:  E(RHF) =  -305.758426065     A.U. after   15 cycles
 Normal termination of Gaussian 16 at Wed Apr  9 03:06:53 2025.
 Gaussian 16:  ES64L-G16RevC.01  3-Jul-2019

 ----------------------------------------------------------------------
 #t hf aug-cc-pvdz iop(5/13=1,5/36=2,99/5=2) pseudo=read geom=check gue
 ss=(read,tcheck) scf=(maxcycle=1)
 ----------------------------------------------------------------------
 -----
 title
 -----
 Structure from the checkpoint file:  "Grambow2020_b97d3_006525_reverse_mol2.chk"
 Charge =  0 Multiplicity = 1

                         Standard orientation:
 ---------------------------------------------------------------------
 Center     Atomic      Atomic             Coordinates (Angstroms)
 Number     Number       Type             X           Y           Z
 ---------------------------------------------------------------------
      1          8           0       -1.555320   -0.820747    0.602049
      2          6           0       -1.517937    0.175916   -0.420146
      3          6           0       -0.483144    1.215971   -0.520641
      4          6           0        0.567172    1.089431    0.518278
      5          6           0        1.640522    0.092296   -0.040532
      6          8           0        1.152128   -1.247947   -0.197670
      7          1           0       -0.657657   -1.220372    0.601702
      8          1           0       -1.550974   -0.283108   -1.440004
      9          1           0       -2.480676    0.721730   -0.379176
     10          1           0        0.843627   -1.347198   -1.116908
     11          1           0        1.107161    2.036519    0.675411
     12          1           0        0.226956    0.682735    1.489417
     13          1           0        2.448484    0.041326    0.698425
     14          1           0        2.048934    0.476235   -0.985659
 ---------------------------------------------------------------------

 SCF Done:  E(RHF) =  -306.072418266     A.U. after    2 cycles

 The electronic state is 1-A.
 Alpha  occ. eigenvalues --  -20.58495 -20.54243 -11.32368 -11.29425 -11.27548
 Alpha  occ. eigenvalues --  -11.25149  -1.47891  -1.43720  -1.08553  -0.98606
 Alpha  occ. eigenvalues --   -0.88510  -0.75295  -0.73214  -0.68282  -0.65097
 Alpha  occ. eigenvalues --   -0.62847  -0.60394  -0.58820  -0.55282  -0.52599
 Alpha  occ. eigenvalues --   -0.50334  -0.46897  -0.44367  -0.36243
 Alpha virt. eigenvalues --    0.03075   0.03500   0.04397   0.04780   0.05982
 Alpha virt. eigenvalues --    0.06617   0.06909   0.07786   0.08067   0.09936
 Alpha virt. eigenvalues --    0.13151   0.13576   0.14138   0.14986   0.15143

 Mulliken charges:
               1
     1  O   -1.198411
     2  C    0.549130
     3  C   -0.332825
     4  C   -0.225999
     5  C    0.511766
     6  O   -1.166316
     7  H    0.498491
     8  H    0.241998
     9  H    0.152976
    10  H    0.373030
    11  H    0.167250
    12  H    0.183160
    13  H    0.053350
    14  H    0.192401
 Sum of Mulliken charges =  -0.00000

 Dipole moment (field-independent basis, Debye):
    X=              2.0065    Y=              0.0632    Z=             -0.6954  Tot=              2.1246

 Test job not archived.
 1\1\GINC-SE051\SP\RHF\Aug-CC-pVDZ\C4H8O2\OHZDE\09-Apr-2025\0\\#t hf au
 g-cc-pvdz iop(5/13=1,5/36=2,99/5=2) pseudo=read geom=check guess=(read
 ,tcheck) scf=(maxcycle=1)\\title\\0,1\O,0,-1.95086296,0.4480159,-0.365
 28396\C,0,-1.43899463,-0.8636274,-0.12611689\C,0,-0.05133319,-1.269278
 7,-0.39528776\C,0,0.7929654,-0.15329944,-0.88547215\C,0,1.34823706,0.5
 8591527,0.38096448\O,0,0.3323805,1.24046242,1.15496468\H,0,-1.31765136
 ,1.05394256,0.07900646\H,0,-1.62431568,-1.18874453,0.92833014\H,0,-2.0
 6883784,-1.56973073,-0.70159273\H,0,0.05163172,0.62699535,1.85842712\H

 Normal termination of Gaussian 16 at Wed Apr  9 03:06:57 2025.
