 Gaussian 16, Revision C.01,

 ----------------------------------------------------------------------
 #t hf aug-cc-pvdz symm=none int=(grid=ultrafine) guess=(read,tcheck) s
 table=(opt,rrhf)
 ----------------------------------------------------------------------
 -----
 title
 -----
 Symbolic Z-matrix:
 Charge =  0 Multiplicity = 1

 SCF Done:  E(RHF) =  -358.443001017     A.U. after   15 cycles
 Normal termination of Gaussian 16 at Wed Apr  9 17:43:37 2025.
 Gaussian 16:  ES64L-G16RevC.01  3-Jul-2019

 ----------------------------------------------------------------------
 #t hf aug-cc-pvdz iop(5/13=1,5/36=2,99/5=2) pseudo=read geom=check gue
 ss=(read,tcheck) scf=(maxcycle=1)
 ----------------------------------------------------------------------
 -----
 title
 -----
 Structure from the checkpoint file:  "Grambow2020_wb97xd3_006793_reverse_mol1.chk"
 Charge =  0 Multiplicity = 1

                         Standard orientation:
 ---------------------------------------------------------------------
 Center     Atomic      Atomic             Coordinates (Angstroms)
 Number     Number       Type             X           Y           Z
 ---------------------------------------------------------------------
      1          8           0        2.678402   -0.379190    0.038388
      2          6           0        1.520784   -0.623908   -0.215460
      3          6           0        0.373709    0.026755    0.390995
      4          6           0        0.156840    1.491830    0.258688
      5          7           0       -0.666767    0.529155   -0.489907
      6          6           0       -1.869425    0.056413   -0.302537
      7          8           0       -1.972488   -1.061100    0.310288
      8          1           0        1.260432   -1.460097   -0.903449
      9          1           0       -1.016712   -1.109306    0.741330
     10          1           0        0.813144    2.082263   -0.372089
     11          1           0       -0.360251    2.045677    1.037331
     12          1           0       -2.768006    0.553160   -0.653301
 ---------------------------------------------------------------------

 SCF Done:  E(RHF) =  -358.802932619     A.U. after    2 cycles

 The electronic state is 1-A.
 Alpha  occ. eigenvalues --  -20.64412 -20.50943 -15.56903 -11.43643 -11.31625
 Alpha  occ. eigenvalues --  -11.31528 -11.23649  -1.58999  -1.44312  -1.33705
 Alpha  occ. eigenvalues --   -1.08568  -0.92906  -0.90068  -0.80268  -0.76901
 Alpha  occ. eigenvalues --   -0.72757  -0.70918  -0.64920  -0.64100  -0.61217
 Alpha  occ. eigenvalues --   -0.57438  -0.53257  -0.51321  -0.47036  -0.40058
 Alpha  occ. eigenvalues --   -0.33468
 Alpha virt. eigenvalues --    0.02034   0.03400   0.04783   0.04949   0.05669
 Alpha virt. eigenvalues --    0.06072   0.08326   0.08861   0.09468   0.09749
 Alpha virt. eigenvalues --    0.13164   0.13829   0.14223   0.14616   0.15195

 Mulliken charges:
               1
     1  O   -1.165124
     2  C    1.097507
     3  C   -0.828047
     4  C    0.099371
     5  N    0.713039
     6  C    0.595941
     7  O   -1.184850
     8  H    0.116231
     9  H    0.578217
    10  H   -0.030923
    11  H   -0.075951
    12  H    0.084588
 Sum of Mulliken charges =  -0.00000

 Dipole moment (field-independent basis, Debye):
    X=             -6.1444    Y=              1.8820    Z=             -1.1007  Tot=              6.5198

 Test job not archived.
 1\1\GINC-SE229\SP\RHF\Aug-CC-pVDZ\C4H5N1O2\OHZDE\09-Apr-2025\0\\#t hf
 aug-cc-pvdz iop(5/13=1,5/36=2,99/5=2) pseudo=read geom=check guess=(re
 ad,tcheck) scf=(maxcycle=1)\\title\\0,1\O,0,2.28782702,0.76111291,-1.4
 2102477\C,0,1.47930506,-0.02765265,-0.98680548\C,0,0.51007183,0.253726
 18,0.05643312\C,0,-0.52102769,1.31182662,-0.11160867\N,0,-0.87442364,-
 0.11476637,-0.18516383\C,0,-1.41713613,-0.93940415,0.669479\O,0,-0.628
 78498,-1.6628237,1.36960462\H,0,1.49077261,-1.08863804,-1.32518822\H,0
 ,0.26483539,-1.13134264,1.22608374\H,0,-0.61599966,1.83057626,-1.05981

 Normal termination of Gaussian 16 at Wed Apr  9 17:43:41 2025.
