 Gaussian 16, Revision C.01,

 ----------------------------------------------------------------------
 #t hf aug-cc-pvdz symm=none int=(grid=ultrafine) guess=(read,tcheck) s
 table=(opt,rrhf)
 ----------------------------------------------------------------------
 -----
 title
 -----
 Symbolic Z-matrix:
 Charge =  0 Multiplicity = 1

 SCF Done:  E(RHF) =  -354.788781101     A.U. after   14 cycles
 Normal termination of Gaussian 16 at Wed Apr  9 03:40:11 2025.
 Gaussian 16:  ES64L-G16RevC.01  3-Jul-2019

 ----------------------------------------------------------------------
 #t hf aug-cc-pvdz iop(5/13=1,5/36=2,99/5=2) pseudo=read geom=check gue
 ss=(read,tcheck) scf=(maxcycle=1)
 ----------------------------------------------------------------------
 -----
 title
 -----
 Structure from the checkpoint file:  "Grambow2020_wb97xd3_007467_forward_mol2.chk"
 Charge =  0 Multiplicity = 1

                         Standard orientation:
 ---------------------------------------------------------------------
 Center     Atomic      Atomic             Coordinates (Angstroms)
 Number     Number       Type             X           Y           Z
 ---------------------------------------------------------------------
      1          7           0       -2.364834   -0.534191   -0.080724
      2          6           0       -1.068781   -0.020789   -0.000471
      3          6           0       -0.577879    1.229219    0.014723
      4          7           0        0.818665    1.117211    0.017993
      5          6           0        1.211214   -0.197835    0.005460
      6          8           0        2.335481   -0.654122   -0.016020
      7          7           0        0.012219   -0.891289    0.017354
      8          1           0       -2.652595   -1.011039    0.762933
      9          1           0       -3.039945    0.175743   -0.316832
     10          1           0       -1.085743    2.176772    0.041164
     11          1           0        1.481360    1.867101   -0.022247
     12          1           0       -0.036607   -1.881281   -0.137498
 ---------------------------------------------------------------------

 SCF Done:  E(RHF) =  -355.148419985     A.U. after    2 cycles

 The electronic state is 1-A.
 Alpha  occ. eigenvalues --  -20.49138 -15.54148 -15.53736 -15.52991 -11.37597
 Alpha  occ. eigenvalues --  -11.31644 -11.26702  -1.45372  -1.33661  -1.23475
 Alpha  occ. eigenvalues --   -1.19000  -1.01500  -0.90023  -0.86317  -0.77193
 Alpha  occ. eigenvalues --   -0.72221  -0.71252  -0.69311  -0.66370  -0.63909
 Alpha  occ. eigenvalues --   -0.61485  -0.53699  -0.49524  -0.46671  -0.43309
 Alpha  occ. eigenvalues --   -0.31349
 Alpha virt. eigenvalues --    0.02330   0.03698   0.04435   0.05631   0.06232
 Alpha virt. eigenvalues --    0.09871   0.10199   0.10897   0.11349   0.11626
 Alpha virt. eigenvalues --    0.13272   0.13660   0.13979   0.15425   0.16645

 Mulliken charges:
               1
     1  N    0.722806
     2  C   -1.748888
     3  C    0.360552
     4  N    0.434481
     5  C    0.557215
     6  O   -1.261876
     7  N    0.708249
     8  H    0.204526
     9  H    0.190542
    10  H   -0.165306
    11  H    0.014777
    12  H   -0.017079
 Sum of Mulliken charges =  -0.00000

 Dipole moment (field-independent basis, Debye):
    X=             -4.7181    Y=              1.9957    Z=              0.6950  Tot=              5.1698

 Test job not archived.
 1\1\GINC-SE339\SP\RHF\Aug-CC-pVDZ\C3H5N3O1\OHZDE\09-Apr-2025\0\\#t hf
 aug-cc-pvdz iop(5/13=1,5/36=2,99/5=2) pseudo=read geom=check guess=(re
 ad,tcheck) scf=(maxcycle=1)\\title\\0,1\N,0,2.04996204,-0.1836757,0.04
 176022\C,0,0.668868,0.01833032,0.00242711\C,0,-0.09557351,1.12253409,-
 0.00748845\N,0,-1.42867722,0.69416605,0.0397132\C,0,-1.5089059,-0.6753
 7041,0.07884105\O,0,-2.49745051,-1.37616105,0.14447837\N,0,-0.18395644
 ,-1.07643429,0.03126324\H,0,2.41198491,-0.59680309,-0.80689299\H,0,2.5
 5172297,0.66582652,0.24696817\H,0,0.18058459,2.16048994,-0.06103804\H,

 Normal termination of Gaussian 16 at Wed Apr  9 03:40:15 2025.
