 Gaussian 16, Revision C.01,

 ----------------------------------------------------------------------
 #t hf aug-cc-pvdz symm=none int=(grid=ultrafine) guess=(read,tcheck) s
 table=(opt,rrhf)
 ----------------------------------------------------------------------
 -----
 title
 -----
 Symbolic Z-matrix:
 Charge =  0 Multiplicity = 1

 SCF Done:  E(RHF) =  -338.588060456     A.U. after   16 cycles
 Normal termination of Gaussian 16 at Wed Apr  9 18:41:31 2025.
 Gaussian 16:  ES64L-G16RevC.01  3-Jul-2019

 ----------------------------------------------------------------------
 #t hf aug-cc-pvdz iop(5/13=1,5/36=2,99/5=2) pseudo=read geom=check gue
 ss=(read,tcheck) scf=(maxcycle=1)
 ----------------------------------------------------------------------
 -----
 title
 -----
 Structure from the checkpoint file:  "Grambow2020_wb97xd3_007971_reverse_mol2.chk"
 Charge =  0 Multiplicity = 1

                         Standard orientation:
 ---------------------------------------------------------------------
 Center     Atomic      Atomic             Coordinates (Angstroms)
 Number     Number       Type             X           Y           Z
 ---------------------------------------------------------------------
      1          7           0       -1.405424   -1.380434    0.021486
      2          6           0       -0.856147   -0.169607    0.035564
      3          8           0       -1.495638    0.902751    0.055897
      4          6           0        0.049565    1.715404   -0.230652
      5          6           0        0.537564    0.275412   -0.045355
      6          6           0        1.664005   -0.352675    0.690488
      7          7           0        1.613872   -0.378563   -0.763687
      8          1           0       -0.836985   -2.206449    0.038034
      9          1           0       -2.406656   -1.475145    0.029487
     10          1           0        0.115333    2.216394    0.747696
     11          1           0        1.491128   -1.267274    1.251907
     12          1           0        2.422089    0.299379    1.108394
     13          1           0        1.351124   -1.287145   -1.127554
 ---------------------------------------------------------------------

 SCF Done:  E(RHF) =  -338.932566645     A.U. after    2 cycles

 The electronic state is 1-A.
 Alpha  occ. eigenvalues --  -20.57226 -15.58025 -15.52275 -11.39989 -11.28904
 Alpha  occ. eigenvalues --  -11.28716 -11.23804  -1.52538  -1.29768  -1.27736
 Alpha  occ. eigenvalues --   -1.00813  -0.91785  -0.90942  -0.81518  -0.77680
 Alpha  occ. eigenvalues --   -0.76862  -0.69086  -0.65978  -0.61464  -0.58884
 Alpha  occ. eigenvalues --   -0.55316  -0.49963  -0.49842  -0.46584  -0.44504
 Alpha  occ. eigenvalues --   -0.31046
 Alpha virt. eigenvalues --    0.01128   0.03543   0.04455   0.04898   0.05951
 Alpha virt. eigenvalues --    0.06410   0.08833   0.09998   0.10523   0.11038
 Alpha virt. eigenvalues --    0.11457   0.12455   0.13209   0.14538   0.15505

 Mulliken charges:
               1
     1  N    0.951614
     2  C   -0.126058
     3  O   -1.291876
     4  C   -0.474914
     5  C   -0.753522
     6  C    0.731141
     7  N    0.619998
     8  H    0.099539
     9  H    0.093960
    10  H    0.100834
    11  H   -0.078288
    12  H   -0.054022
    13  H    0.181594
 Sum of Mulliken charges =  -0.00000

 Dipole moment (field-independent basis, Debye):
    X=             -1.1710    Y=             -6.8551    Z=              2.9645  Tot=              7.5599

 Test job not archived.
 1\1\GINC-SE162\SP\RHF\Aug-CC-pVDZ\C4H6N2O1\OHZDE\09-Apr-2025\0\\#t hf
 aug-cc-pvdz iop(5/13=1,5/36=2,99/5=2) pseudo=read geom=check guess=(re
 ad,tcheck) scf=(maxcycle=1)\\title\\0,1\N,0,1.78902776,-0.77781386,-0.
 33840052\C,0,1.00382978,0.24172073,-0.00370867\O,0,1.40897194,1.382417
 23,0.30285871\C,0,-0.2545045,1.73441383,0.79184835\C,0,-0.44604373,0.3
 42113,0.18286173\C,0,-1.45362812,-0.26542022,-0.72295492\N,0,-1.331015
 23,-0.70269972,0.65963682\H,0,1.40127723,-1.66294945,-0.60650971\H,0,2
 .78697771,-0.65451327,-0.35824225\H,0,-0.46715837,2.47332218,0.0036390

 Normal termination of Gaussian 16 at Wed Apr  9 18:41:35 2025.
