 Gaussian 16, Revision C.01,

 ----------------------------------------------------------------------
 #t hf aug-cc-pvdz symm=none int=(grid=ultrafine) guess=(read,tcheck) s
 table=(opt,rrhf)
 ----------------------------------------------------------------------
 -----
 title
 -----
 Symbolic Z-matrix:
 Charge =  0 Multiplicity = 1

 SCF Done:  E(RHF) =  -359.619890452     A.U. after   16 cycles
 Normal termination of Gaussian 16 at Wed Apr  9 17:26:29 2025.
 Gaussian 16:  ES64L-G16RevC.01  3-Jul-2019

 ----------------------------------------------------------------------
 #t hf aug-cc-pvdz iop(5/13=1,5/36=2,99/5=2) pseudo=read geom=check gue
 ss=(read,tcheck) scf=(maxcycle=1)
 ----------------------------------------------------------------------
 -----
 title
 -----
 Structure from the checkpoint file:  "Grambow2020_wb97xd3_006598_reverse_mol2.chk"
 Charge =  0 Multiplicity = 1

                         Standard orientation:
 ---------------------------------------------------------------------
 Center     Atomic      Atomic             Coordinates (Angstroms)
 Number     Number       Type             X           Y           Z
 ---------------------------------------------------------------------
      1          6           0        2.574783   -0.239938    0.099703
      2          7           0        1.478766    0.621461   -0.277548
      3          6           0        0.298441    0.225759   -0.181402
      4          6           0       -0.924370    1.024633   -0.537156
      5          8           0       -1.903710    0.224776   -0.273217
      6          6           0       -1.479674   -1.076105    0.238472
      7          8           0       -0.100329   -1.025475    0.274457
      8          1           0        3.196382   -0.407719   -0.781970
      9          1           0        3.192594    0.290362    0.826123
     10          1           0        2.273516   -1.204009    0.515600
     11          1           0       -1.030005    3.254348    1.094915
     12          1           0       -1.015145    3.549442    1.780972
     13          1           0       -1.841717   -1.837168   -0.454399
     14          1           0       -1.909746   -1.195984    1.233980
 ---------------------------------------------------------------------

 SCF Done:  E(RHF) =  -359.982897981     A.U. after    2 cycles

 The electronic state is 1-A.
 Alpha  occ. eigenvalues --  -20.64228 -20.61049 -15.51864 -11.38619 -11.34862
 Alpha  occ. eigenvalues --  -11.32513 -11.26720  -1.61091  -1.51164  -1.25678
 Alpha  occ. eigenvalues --   -1.03863  -0.97582  -0.88822  -0.82614  -0.74963
 Alpha  occ. eigenvalues --   -0.73530  -0.68722  -0.64542  -0.62514  -0.58757
 Alpha  occ. eigenvalues --   -0.58312  -0.57602  -0.56806  -0.54460  -0.47446
 Alpha  occ. eigenvalues --   -0.42607  -0.39509
 Alpha virt. eigenvalues --    0.02977   0.03954   0.04155   0.05323   0.05666
 Alpha virt. eigenvalues --    0.06002   0.06989   0.08215   0.08748   0.09922
 Alpha virt. eigenvalues --    0.12258   0.12679   0.13429   0.13652   0.15004

 Mulliken charges:
               1
     1  C   -0.289335
     2  N    0.745626
     3  C    0.236660
     4  C    0.267524
     5  O   -1.062074
     6  C    1.000229
     7  O   -1.465606
     8  H    0.121769
     9  H    0.107590
    10  H    0.088977
    11  H    0.006050
    12  H    0.002706
    13  H    0.113734
    14  H    0.126149
 Sum of Mulliken charges =  -0.00000

 Dipole moment (field-independent basis, Debye):
    X=             -0.6409    Y=             -4.2385    Z=              1.4655  Tot=              4.5303

 Test job not archived.
 1\1\GINC-SE135\SP\RHF\Aug-CC-pVDZ\C4H7N1O2\OHZDE\09-Apr-2025\0\\#t hf
 aug-cc-pvdz iop(5/13=1,5/36=2,99/5=2) pseudo=read geom=check guess=(re
 ad,tcheck) scf=(maxcycle=1)\\title\\0,1\C,0,2.31845947,-0.42096866,-0.
 7544088\N,0,1.24176101,0.54028435,-0.80228985\C,0,0.05728875,0.1744486
 6,-0.65336192\C,0,-1.14663738,1.07441831,-0.67875476\O,0,-2.13774794,0
 .27052434,-0.4787611\C,0,-1.73960778,-1.12541912,-0.31521085\O,0,-0.36
 405325,-1.13208531,-0.43460956\H,0,2.82881606,-0.41046698,-1.71945218\
 H,0,3.04274483,-0.08691054,-0.00982053\H,0,2.0068145,-1.44220364,-0.52

 Normal termination of Gaussian 16 at Wed Apr  9 17:26:34 2025.
