 Gaussian 16, Revision C.01,

 ----------------------------------------------------------------------
 #t hf aug-cc-pvdz symm=none int=(grid=ultrafine) guess=(read,tcheck) s
 table=(opt,rrhf)
 ----------------------------------------------------------------------
 -----
 title
 -----
 Symbolic Z-matrix:
 Charge =  0 Multiplicity = 1

 SCF Done:  E(RHF) =  -268.634185426     A.U. after   15 cycles
 Normal termination of Gaussian 16 at Wed Apr  9 17:08:20 2025.
 Gaussian 16:  ES64L-G16RevC.01  3-Jul-2019

 ----------------------------------------------------------------------
 #t hf aug-cc-pvdz iop(5/13=1,5/36=2,99/5=2) pseudo=read geom=check gue
 ss=(read,tcheck) scf=(maxcycle=1)
 ----------------------------------------------------------------------
 -----
 title
 -----
 Structure from the checkpoint file:  "Grambow2020_wb97xd3_006257_forward_mol1.chk"
 Charge =  0 Multiplicity = 1

                         Standard orientation:
 ---------------------------------------------------------------------
 Center     Atomic      Atomic             Coordinates (Angstroms)
 Number     Number       Type             X           Y           Z
 ---------------------------------------------------------------------
      1          6           0        1.733823   -1.284247   -0.036776
      2          6           0        1.100961    0.441811    0.438947
      3          6           0        0.653892    1.351624   -0.604014
      4          6           0       -0.352272    0.714178    0.308100
      5          6           0       -1.287867   -0.274429   -0.289734
      6          8           0       -2.383435   -0.525810    0.132651
      7          1           0        1.726685   -1.613820   -1.083164
      8          1           0        2.730920   -1.343230    0.386372
      9          1           0        0.997526   -1.849062    0.521158
     10          1           0        1.697743    0.568659    1.331379
     11          1           0        1.547935   -0.103201   -0.572224
     12          1           0        0.936121    2.392049   -0.513129
     13          1           0       -0.759622    1.214629    1.186535
     14          1           0       -0.901048   -0.753173   -1.217267
 ---------------------------------------------------------------------

 SCF Done:  E(RHF) =  -268.915733870     A.U. after    2 cycles

 The electronic state is 1-A.
 Alpha  occ. eigenvalues --  -20.53693 -11.33167 -11.32712 -11.31411 -11.25754
 Alpha  occ. eigenvalues --  -11.20299  -1.47164  -1.20204  -1.03616  -0.91983
 Alpha  occ. eigenvalues --   -0.80077  -0.79003  -0.71373  -0.68822  -0.63887
 Alpha  occ. eigenvalues --   -0.63794  -0.62651  -0.57193  -0.54166  -0.46939
 Alpha  occ. eigenvalues --   -0.44291  -0.40624  -0.30871
 Alpha virt. eigenvalues --    0.02006   0.03015   0.04002   0.04697   0.05938
 Alpha virt. eigenvalues --    0.06317   0.07142   0.07580   0.10427   0.11796
 Alpha virt. eigenvalues --    0.12152   0.12825   0.13246   0.14562   0.14765

 Mulliken charges:
               1
     1  C   -0.700909
     2  C   -0.151061
     3  C   -0.263053
     4  C    0.382955
     5  C    0.811616
     6  O   -1.176412
     7  H    0.138386
     8  H    0.098300
     9  H    0.330110
    10  H   -0.116952
    11  H    0.895502
    12  H   -0.217082
    13  H   -0.163605
    14  H    0.132203
 Sum of Mulliken charges =   0.00000

 Dipole moment (field-independent basis, Debye):
    X=              5.1553    Y=             -1.9419    Z=              1.5996  Tot=              5.7364

 Test job not archived.
 1\1\GINC-SE219\SP\RHF\Aug-CC-pVDZ\C5H8O1\OHZDE\09-Apr-2025\0\\#t hf au
 g-cc-pvdz iop(5/13=1,5/36=2,99/5=2) pseudo=read geom=check guess=(read
 ,tcheck) scf=(maxcycle=1)\\title\\0,1\C,0,-1.37334209,-1.01222096,-0.1
 2097737\C,0,-0.46887971,0.63311983,-0.40541737\C,0,0.05931434,1.364805
 42,0.73521621\C,0,1.00096035,0.66725513,-0.20147013\C,0,1.74982408,-0.
 50308705,0.32729187\O,0,2.81431742,-0.87915106,-0.08173125\H,0,-1.4644
 2658,-1.43326553,0.88799308\H,0,-2.34716021,-0.87931826,-0.58005577\H,
 0,-0.70403899,-1.6294613,-0.70705494\H,0,-0.99761775,0.93064767,-1.300

 Normal termination of Gaussian 16 at Wed Apr  9 17:08:24 2025.
