 Gaussian 16, Revision C.01,

 ----------------------------------------------------------------------
 #t hf aug-cc-pvdz symm=none int=(grid=ultrafine) guess=(read,tcheck) s
 table=(opt,rrhf)
 ----------------------------------------------------------------------
 -----
 title
 -----
 Symbolic Z-matrix:
 Charge =  0 Multiplicity = 1

 SCF Done:  E(RHF) =  -317.561463108     A.U. after   18 cycles
 Normal termination of Gaussian 16 at Wed Apr  9 19:14:46 2025.
 Gaussian 16:  ES64L-G16RevC.01  3-Jul-2019

 ----------------------------------------------------------------------
 #t hf aug-cc-pvdz iop(5/13=1,5/36=2,99/5=2) pseudo=read geom=check gue
 ss=(read,tcheck) scf=(maxcycle=1)
 ----------------------------------------------------------------------
 -----
 title
 -----
 Structure from the checkpoint file:  "Grambow2020_wb97xd3_008977_reverse_mol1.chk"
 Charge =  0 Multiplicity = 1

                         Standard orientation:
 ---------------------------------------------------------------------
 Center     Atomic      Atomic             Coordinates (Angstroms)
 Number     Number       Type             X           Y           Z
 ---------------------------------------------------------------------
      1          7           0       -2.060061    0.147379   -0.449901
      2          6           0       -0.770723    0.065050    0.054813
      3          6           0       -0.168912   -0.949107    0.915737
      4          7           0        0.026721    1.094248    0.435827
      5          6           0        1.345862    0.831553   -0.040450
      6          7           0        1.678022   -0.314547   -0.499514
      7          6           0        0.453549   -1.045601   -0.338201
      8          1           0       -2.776694   -0.133596    0.200022
      9          1           0       -2.252570    1.044840   -0.868054
     10          1           0        0.265915   -0.827106    1.902524
     11          1           0        2.026074    1.676464   -0.051446
     12          1           0        0.065845   -1.661523   -1.139314
 ---------------------------------------------------------------------

 SCF Done:  E(RHF) =  -317.882695879     A.U. after    2 cycles

 The electronic state is 1-A.
 Alpha  occ. eigenvalues --  -15.52280 -15.51200 -15.49073 -11.35086 -11.32091
 Alpha  occ. eigenvalues --  -11.31572 -11.29815  -1.34720  -1.23196  -1.15980
 Alpha  occ. eigenvalues --   -1.10281  -0.87470  -0.85059  -0.81264  -0.73747
 Alpha  occ. eigenvalues --   -0.73123  -0.69099  -0.62301  -0.59285  -0.57406
 Alpha  occ. eigenvalues --   -0.53217  -0.51332  -0.47633  -0.37321  -0.36620
 Alpha virt. eigenvalues --    0.00536   0.03230   0.04616   0.04956   0.05196
 Alpha virt. eigenvalues --    0.05840   0.08514   0.09088   0.09814   0.10827
 Alpha virt. eigenvalues --    0.12385   0.12652   0.14156   0.14796   0.15412

 Mulliken charges:
               1
     1  N    0.761961
     2  C   -2.238928
     3  C    0.518285
     4  N    0.817533
     5  C   -0.592159
     6  N    0.713632
     7  C   -0.308289
     8  H    0.217269
     9  H    0.206086
    10  H   -0.097462
    11  H   -0.055732
    12  H    0.057805
 Sum of Mulliken charges =   0.00000

 Dipole moment (field-independent basis, Debye):
    X=             -2.5051    Y=             -0.6323    Z=              0.8651  Tot=              2.7247

 Test job not archived.
 1\1\GINC-SE219\SP\RHF\Aug-CC-pVDZ\C4H5N3\OHZDE\09-Apr-2025\0\\#t hf au
 g-cc-pvdz iop(5/13=1,5/36=2,99/5=2) pseudo=read geom=check guess=(read
 ,tcheck) scf=(maxcycle=1)\\title\\0,1\N,0,-1.65083924,0.06766615,-0.93
 564715\C,0,-0.45447812,0.22417264,-0.25144367\C,0,-0.21704273,0.615362
 04,1.13508976\N,0,0.72119684,0.6802725,-0.75154209\C,0,1.76953182,-0.1
 3627507,-0.23171139\N,0,1.5692726,-0.95380262,0.73066015\C,0,0.1797803
 9,-0.72453926,1.00732876\H,0,-2.3470897,0.76124791,-0.71408654\H,0,-1.
 51455685,-0.03444137,-1.92980524\H,0,0.33211764,1.47237509,1.51146576\

 Normal termination of Gaussian 16 at Wed Apr  9 19:14:50 2025.
