 Gaussian 16, Revision C.01,

 ----------------------------------------------------------------------
 #t hf aug-cc-pvdz symm=none int=(grid=ultrafine) guess=(read,tcheck) s
 table=(opt,rrhf)
 ----------------------------------------------------------------------
 -----
 title
 -----
 Symbolic Z-matrix:
 Charge =  0 Multiplicity = 1

 SCF Done:  E(RHF) =  -302.675090901     A.U. after   18 cycles
 Normal termination of Gaussian 16 at Wed Apr  9 18:10:49 2025.
 Gaussian 16:  ES64L-G16RevC.01  3-Jul-2019

 ----------------------------------------------------------------------
 #t hf aug-cc-pvdz iop(5/13=1,5/36=2,99/5=2) pseudo=read geom=check gue
 ss=(read,tcheck) scf=(maxcycle=1)
 ----------------------------------------------------------------------
 -----
 title
 -----
 Structure from the checkpoint file:  "Grambow2020_wb97xd3_007161_reverse_mol1.chk"
 Charge =  0 Multiplicity = 1

                         Standard orientation:
 ---------------------------------------------------------------------
 Center     Atomic      Atomic             Coordinates (Angstroms)
 Number     Number       Type             X           Y           Z
 ---------------------------------------------------------------------
      1          6           0       -1.630026    1.251358    0.434052
      2          6           0       -1.240675   -0.200479    0.537994
      3          6           0       -1.532501   -1.167794   -0.525263
      4          7           0       -0.163301   -0.700024   -0.311182
      5          6           0        2.192950   -0.556605    0.703773
      6          6           0        1.847041    0.395687   -0.187792
      7          7           0        1.219249    1.016420   -0.965775
      8          1           0       -1.626337    1.570788   -0.608051
      9          1           0       -0.925644    1.882366    0.977651
     10          1           0       -2.627838    1.402906    0.850909
     11          1           0       -1.194391   -0.588701    1.553310
     12          1           0       -1.711862   -2.214353   -0.298798
     13          1           0       -1.986555   -0.820202   -1.449332
     14          1           0        2.108833   -0.359892    1.763692
     15          1           0        2.751424   -1.420686    0.372739
 ---------------------------------------------------------------------

 SCF Done:  E(RHF) =  -302.983483336     A.U. after    2 cycles

 The electronic state is 1-A.
 Alpha  occ. eigenvalues --  -15.56229 -15.52583 -11.28787 -11.27845 -11.27242
 Alpha  occ. eigenvalues --  -11.26782 -11.23541  -1.28045  -1.22470  -1.01454
 Alpha  occ. eigenvalues --   -0.99664  -0.87016  -0.81075  -0.71213  -0.68881
 Alpha  occ. eigenvalues --   -0.65099  -0.64569  -0.60810  -0.58964  -0.57241
 Alpha  occ. eigenvalues --   -0.53105  -0.51977  -0.49264  -0.48450  -0.41460
 Alpha  occ. eigenvalues --   -0.32096
 Alpha virt. eigenvalues --   -0.03531   0.03373   0.04176   0.04275   0.04530
 Alpha virt. eigenvalues --    0.05148   0.05919   0.07305   0.07428   0.08938
 Alpha virt. eigenvalues --    0.10749   0.12284   0.12695   0.13260   0.13709

 Mulliken charges:
               1
     1  C   -0.472808
     2  C   -0.660406
     3  C    0.184837
     4  N    0.610898
     5  C    0.420455
     6  C   -1.414997
     7  N    0.968195
     8  H    0.218433
     9  H    0.253507
    10  H    0.156310
    11  H   -0.149689
    12  H   -0.077067
    13  H   -0.042624
    14  H    0.001761
    15  H    0.003194
 Sum of Mulliken charges =  -0.00000

 Dipole moment (field-independent basis, Debye):
    X=             -0.7978    Y=             -2.1192    Z=              3.1838  Tot=              3.9070

 Test job not archived.
 1\1\GINC-SE232\SP\RHF\Aug-CC-pVDZ\C5H8N2\OHZDE\09-Apr-2025\0\\#t hf au
 g-cc-pvdz iop(5/13=1,5/36=2,99/5=2) pseudo=read geom=check guess=(read
 ,tcheck) scf=(maxcycle=1)\\title\\0,1\C,0,-1.55120604,-1.02425424,-0.0
 5709418\C,0,-0.89935003,0.3034017,-0.34456686\C,0,-0.9518271,1.4229934
 1,0.60155022\N,0,0.29225984,0.67774465,0.41128649\C,0,2.52774933,-0.03
 327521,-0.6373601\C,0,2.05054372,-0.79333175,0.37060463\N,0,1.35427058
 ,-1.18855448,1.23297949\H,0,-1.55853767,-1.21823386,1.01544717\H,0,-1.
 00572055,-1.83715263,-0.53820467\H,0,-2.57833101,-1.02591588,-0.427739

 Normal termination of Gaussian 16 at Wed Apr  9 18:10:55 2025.
