 Gaussian 16, Revision C.01,

 ----------------------------------------------------------------------
 #t hf aug-cc-pvdz symm=none int=(grid=ultrafine) guess=(read,tcheck) s
 table=(opt,rrhf)
 ----------------------------------------------------------------------
 -----
 title
 -----
 Symbolic Z-matrix:
 Charge =  0 Multiplicity = 1

 SCF Done:  E(RHF) =  -338.746456728     A.U. after   14 cycles
 Normal termination of Gaussian 16 at Wed Apr  9 19:01:44 2025.
 Gaussian 16:  ES64L-G16RevC.01  3-Jul-2019

 ----------------------------------------------------------------------
 #t hf aug-cc-pvdz iop(5/13=1,5/36=2,99/5=2) pseudo=read geom=check gue
 ss=(read,tcheck) scf=(maxcycle=1)
 ----------------------------------------------------------------------
 -----
 title
 -----
 Structure from the checkpoint file:  "Grambow2020_wb97xd3_008463_forward_mol2.chk"
 Charge =  0 Multiplicity = 1

                         Standard orientation:
 ---------------------------------------------------------------------
 Center     Atomic      Atomic             Coordinates (Angstroms)
 Number     Number       Type             X           Y           Z
 ---------------------------------------------------------------------
      1          7           0       -1.580970   -1.378618   -0.002789
      2          6           0       -0.410629   -0.597579   -0.000678
      3          6           0       -0.190179    0.755445    0.000739
      4          8           0       -1.199806    1.674750    0.004607
      5          6           0        1.208765    0.979470    0.001288
      6          6           0        1.805054   -0.258088   -0.000569
      7          7           0        0.826659   -1.196894   -0.001185
      8          1           0       -2.159170   -1.185012   -0.808342
      9          1           0       -2.137751   -1.224991    0.826334
     10          1           0       -0.818893    2.552499   -0.033515
     11          1           0        1.718459    1.931016    0.006924
     12          1           0        2.848508   -0.526219    0.001513
     13          1           0        0.949411   -2.192197   -0.006631
 ---------------------------------------------------------------------

 SCF Done:  E(RHF) =  -339.094887635     A.U. after    2 cycles

 The electronic state is 1-A.
 Alpha  occ. eigenvalues --  -20.56635 -15.53718 -15.49891 -11.27131 -11.26876
 Alpha  occ. eigenvalues --  -11.25982 -11.21644  -1.47791  -1.29903  -1.18212
 Alpha  occ. eigenvalues --   -1.04849  -0.96900  -0.82438  -0.80766  -0.75936
 Alpha  occ. eigenvalues --   -0.70368  -0.66946  -0.64977  -0.62222  -0.60226
 Alpha  occ. eigenvalues --   -0.59385  -0.54447  -0.52958  -0.45920  -0.35150
 Alpha  occ. eigenvalues --   -0.29451
 Alpha virt. eigenvalues --    0.03377   0.03783   0.04377   0.05496   0.06476
 Alpha virt. eigenvalues --    0.06638   0.11009   0.11194   0.12296   0.12712
 Alpha virt. eigenvalues --    0.13100   0.13703   0.14043   0.15318   0.15526

 Mulliken charges:
               1
     1  N    0.831015
     2  C   -2.443810
     3  C    1.694034
     4  O   -1.793265
     5  C    0.638889
     6  C   -0.426919
     7  N    0.807727
     8  H    0.391613
     9  H    0.393548
    10  H    0.355453
    11  H   -0.205055
    12  H   -0.204643
    13  H   -0.038587
 Sum of Mulliken charges =  -0.00000

 Dipole moment (field-independent basis, Debye):
    X=              0.7614    Y=              0.3751    Z=             -0.0254  Tot=              0.8492

 Test job not archived.
 1\1\GINC-SE135\SP\RHF\Aug-CC-pVDZ\C4H6N2O1\OHZDE\09-Apr-2025\0\\#t hf
 aug-cc-pvdz iop(5/13=1,5/36=2,99/5=2) pseudo=read geom=check guess=(re
 ad,tcheck) scf=(maxcycle=1)\\title\\0,1\N,0,1.92183953,0.88296371,-0.0
 4077926\C,0,0.59603136,0.41205992,-0.02640054\C,0,0.05032904,-0.839940
 33,0.09182892\O,0,0.8029552,-1.9700507,0.23635159\C,0,-1.36025889,-0.7
 1846624,0.03967555\C,0,-1.63430989,0.61915969,-0.1112134\N,0,-0.455824
 78,1.28874109,-0.14923593\H,0,2.45724689,0.47209427,-0.79260336\H,0,2.
 4003661,0.68745672,0.8274606\H,0,0.21950984,-2.72895978,0.26166113\H,0

 Normal termination of Gaussian 16 at Wed Apr  9 19:01:48 2025.
