 Gaussian 16, Revision C.01,

 ----------------------------------------------------------------------
 #t hf aug-cc-pvdz symm=none int=(grid=ultrafine) guess=(read,tcheck) s
 table=(opt,rrhf)
 ----------------------------------------------------------------------
 -----
 title
 -----
 Symbolic Z-matrix:
 Charge =  0 Multiplicity = 1

 SCF Done:  E(RHF) =  -320.213798290     A.U. after   17 cycles
 Normal termination of Gaussian 16 at Wed Apr  9 19:19:43 2025.
 Gaussian 16:  ES64L-G16RevC.01  3-Jul-2019

 ----------------------------------------------------------------------
 #t hf aug-cc-pvdz iop(5/13=1,5/36=2,99/5=2) pseudo=read geom=check gue
 ss=(read,tcheck) scf=(maxcycle=1)
 ----------------------------------------------------------------------
 -----
 title
 -----
 Structure from the checkpoint file:  "Grambow2020_wb97xd3_009379_forward_mol1.chk"
 Charge =  0 Multiplicity = 1

                         Standard orientation:
 ---------------------------------------------------------------------
 Center     Atomic      Atomic             Coordinates (Angstroms)
 Number     Number       Type             X           Y           Z
 ---------------------------------------------------------------------
      1          8           0       -1.390512   -1.489099   -0.275654
      2          6           0       -0.695878   -0.473679    0.025747
      3          6           0        0.642338   -0.856135    0.302831
      4          6           0        1.777678   -0.034004    0.050720
      5          6           0        2.732825    0.647844   -0.193848
      6          6           0       -1.277709    0.843547    0.034553
      7          7           0       -1.718136    1.902691    0.052120
      8          1           0       -0.184229   -1.947086   -0.269869
      9          1           0        0.679710   -1.479847    1.198346
     10          1           0        3.580038    1.255450   -0.408097
 ---------------------------------------------------------------------

 SCF Done:  E(RHF) =  -320.527785610     A.U. after    2 cycles

 The electronic state is 1-A.
 Alpha  occ. eigenvalues --  -20.62617 -15.57514 -11.44107 -11.32626 -11.28346
 Alpha  occ. eigenvalues --  -11.26356 -11.25278  -1.56359  -1.28703  -1.11837
 Alpha  occ. eigenvalues --   -1.03236  -0.96956  -0.82079  -0.73199  -0.71327
 Alpha  occ. eigenvalues --   -0.69143  -0.66485  -0.62518  -0.57077  -0.55873
 Alpha  occ. eigenvalues --   -0.53747  -0.48087  -0.42260  -0.35828
 Alpha virt. eigenvalues --    0.00055   0.03179   0.03546   0.05090   0.06228
 Alpha virt. eigenvalues --    0.08583   0.10087   0.10257   0.10652   0.11548
 Alpha virt. eigenvalues --    0.12366   0.12761   0.13452   0.14426   0.14850

 Mulliken charges:
               1
     1  O   -1.305279
     2  C    2.070505
     3  C   -0.349765
     4  C    0.397743
     5  C    0.137065
     6  C   -2.299243
     7  N    1.053686
     8  H    0.600095
     9  H    0.061032
    10  H   -0.365840
 Sum of Mulliken charges =  -0.00000

 Dipole moment (field-independent basis, Debye):
    X=              1.7025    Y=             -2.2720    Z=              0.4443  Tot=              2.8736

 Test job not archived.
 1\1\GINC-SE362\SP\RHF\Aug-CC-pVDZ\C5H3N1O1\OHZDE\09-Apr-2025\0\\#t hf
 aug-cc-pvdz iop(5/13=1,5/36=2,99/5=2) pseudo=read geom=check guess=(re
 ad,tcheck) scf=(maxcycle=1)\\title\\0,1\O,0,-1.9716524,-0.3363006,-1.0
 5300887\C,0,-1.06578514,0.22794666,-0.37075869\C,0,-0.17315645,-0.7393
 5318,0.15972655\C,0,1.2118083,-0.50540522,0.39551746\C,0,2.38367389,-0
 .31487106,0.56123829\C,0,-1.02769077,1.66101646,-0.2345657\N,0,-0.9771
 7521,2.80009535,-0.10799521\H,0,-1.13271663,-1.2906153,-0.82856785\H,0
 ,-0.69061122,-1.37696519,0.87948421\H,0,3.42337562,-0.1435739,0.711355

 Normal termination of Gaussian 16 at Wed Apr  9 19:19:47 2025.
