 Gaussian 16, Revision C.01,

 ----------------------------------------------------------------------
 #t hf aug-cc-pvdz symm=none int=(grid=ultrafine) guess=(read,tcheck) s
 table=(opt,rrhf)
 ----------------------------------------------------------------------
 -----
 title
 -----
 Symbolic Z-matrix:
 Charge =  0 Multiplicity = 1

 SCF Done:  E(RHF) =  -306.759702573     A.U. after   14 cycles
 Normal termination of Gaussian 16 at Wed Apr  9 19:08:58 2025.
 Gaussian 16:  ES64L-G16RevC.01  3-Jul-2019

 ----------------------------------------------------------------------
 #t hf aug-cc-pvdz iop(5/13=1,5/36=2,99/5=2) pseudo=read geom=check gue
 ss=(read,tcheck) scf=(maxcycle=1)
 ----------------------------------------------------------------------
 -----
 title
 -----
 Structure from the checkpoint file:  "Grambow2020_wb97xd3_008787_reverse_mol2.chk"
 Charge =  0 Multiplicity = 1

                         Standard orientation:
 ---------------------------------------------------------------------
 Center     Atomic      Atomic             Coordinates (Angstroms)
 Number     Number       Type             X           Y           Z
 ---------------------------------------------------------------------
      1          8           0        0.734694    1.919981    0.079694
      2          6           0        0.069180    0.915685    0.098227
      3          6           0        1.859006   -0.815808   -0.354391
      4          6           0        0.591976   -0.487073    0.421419
      5          6           0       -0.605391   -1.411803    0.161230
      6          6           0       -1.741782   -0.479363   -0.149366
      7          6           0       -1.377324    0.799516   -0.186394
      8          1           0        1.661979   -0.838683   -1.429036
      9          1           0        2.621426   -0.058606   -0.170548
     10          1           0        2.257054   -1.789045   -0.062047
     11          1           0        0.822691   -0.476654    1.491543
     12          1           0       -0.424378   -2.080637   -0.686444
     13          1           0       -0.840661   -2.054166    1.013351
     14          1           0       -2.746652   -0.842148   -0.332400
     15          1           0       -2.002993    1.653175   -0.406325
 ---------------------------------------------------------------------

 SCF Done:  E(RHF) =  -307.078960186     A.U. after    2 cycles

 The electronic state is 1-A.
 Alpha  occ. eigenvalues --  -20.52473 -11.32901 -11.27486 -11.25378 -11.24803
 Alpha  occ. eigenvalues --  -11.24510 -11.23251  -1.46273  -1.16230  -1.03970
 Alpha  occ. eigenvalues --   -0.95573  -0.89953  -0.79083  -0.73652  -0.69557
 Alpha  occ. eigenvalues --   -0.65409  -0.61609  -0.60399  -0.57697  -0.55416
 Alpha  occ. eigenvalues --   -0.54884  -0.52901  -0.50323  -0.49001  -0.39641
 Alpha  occ. eigenvalues --   -0.38821
 Alpha virt. eigenvalues --    0.02897   0.03451   0.03969   0.04440   0.05697
 Alpha virt. eigenvalues --    0.06269   0.06639   0.08006   0.08899   0.10690
 Alpha virt. eigenvalues --    0.11751   0.12573   0.13439   0.14436   0.14899

 Mulliken charges:
               1
     1  O   -1.474453
     2  C    1.101867
     3  C   -0.266764
     4  C   -0.749015
     5  C   -0.336836
     6  C    0.317167
     7  C    0.414506
     8  H    0.208256
     9  H    0.155751
    10  H    0.157356
    11  H    0.264054
    12  H    0.210535
    13  H    0.203851
    14  H   -0.103104
    15  H   -0.103170
 Sum of Mulliken charges =  -0.00000

 Dipole moment (field-independent basis, Debye):
    X=             -1.9545    Y=             -3.5037    Z=              0.0588  Tot=              4.0124

 Test job not archived.
 1\1\GINC-SE014\SP\RHF\Aug-CC-pVDZ\C6H8O1\OHZDE\09-Apr-2025\0\\#t hf au
 g-cc-pvdz iop(5/13=1,5/36=2,99/5=2) pseudo=read geom=check guess=(read
 ,tcheck) scf=(maxcycle=1)\\title\\0,1\O,0,0.44892635,-2.06411972,1.207
 36386\C,0,0.55824318,-0.95996529,0.73751891\C,0,-1.63651175,-0.7854779
 2,-0.51108633\C,0,-0.6058026,-0.05055281,0.33320961\C,0,0.06543886,1.1
 5562447,-0.33841901\C,0,1.53748227,0.92205157,-0.14913245\C,0,1.814174
 44,-0.23816839,0.43998841\H,0,-1.20178184,-1.11057583,-1.45951973\H,0,
 -1.99245376,-1.67175766,0.01451085\H,0,-2.49184406,-0.14472546,-0.7323

 Normal termination of Gaussian 16 at Wed Apr  9 19:09:03 2025.
