 Gaussian 16, Revision C.01,

 ----------------------------------------------------------------------
 #t hf aug-cc-pvdz symm=none int=(grid=ultrafine) guess=(read,tcheck) s
 table=(opt,rrhf)
 ----------------------------------------------------------------------
 -----
 title
 -----
 Symbolic Z-matrix:
 Charge =  0 Multiplicity = 1

 SCF Done:  E(RHF) =  -284.730195572     A.U. after   15 cycles
 Normal termination of Gaussian 16 at Wed Apr  9 03:06:48 2025.
 Gaussian 16:  ES64L-G16RevC.01  3-Jul-2019

 ----------------------------------------------------------------------
 #t hf aug-cc-pvdz iop(5/13=1,5/36=2,99/5=2) pseudo=read geom=check gue
 ss=(read,tcheck) scf=(maxcycle=1)
 ----------------------------------------------------------------------
 -----
 title
 -----
 Structure from the checkpoint file:  "Grambow2020_b97d3_006541_forward_mol1.chk"
 Charge =  0 Multiplicity = 1

                         Standard orientation:
 ---------------------------------------------------------------------
 Center     Atomic      Atomic             Coordinates (Angstroms)
 Number     Number       Type             X           Y           Z
 ---------------------------------------------------------------------
      1          6           0        1.311795    0.204751    0.340455
      2          6           0        1.369703   -0.878178   -0.600384
      3          8           0       -0.811967   -1.175509    0.594348
      4          6           0       -1.410703   -0.302640   -0.152868
      5          7           0       -1.013554    0.928210   -0.405782
      6          6           0        0.269574    1.323643    0.119771
      7          1           0        0.790410   -0.407406    1.157533
      8          1           0        2.292550    0.532282    0.714591
      9          1           0        0.617210   -1.029995   -1.368406
     10          1           0        2.181806   -1.605012   -0.547757
     11          1           0       -2.362500   -0.592510   -0.634992
     12          1           0        0.120741    1.849653    1.081587
     13          1           0        0.708179    2.074140   -0.558706
 ---------------------------------------------------------------------

 SCF Done:  E(RHF) =  -285.020575149     A.U. after    2 cycles

 The electronic state is 1-A.
 Alpha  occ. eigenvalues --  -20.46855 -15.43502 -11.41773 -11.29258 -11.28226
 Alpha  occ. eigenvalues --  -11.26395  -1.38283  -1.17114  -1.11540  -0.96132
 Alpha  occ. eigenvalues --   -0.86376  -0.75165  -0.73517  -0.67185  -0.63296
 Alpha  occ. eigenvalues --   -0.61129  -0.59190  -0.56852  -0.52798  -0.48328
 Alpha  occ. eigenvalues --   -0.41517  -0.37436  -0.33910
 Alpha virt. eigenvalues --   -0.02084   0.01689   0.03105   0.04258   0.05271
 Alpha virt. eigenvalues --    0.06367   0.06829   0.07177   0.10291   0.10947
 Alpha virt. eigenvalues --    0.12354   0.12817   0.13157   0.14430   0.14495

 Mulliken charges:
               1
     1  C   -0.368562
     2  C    0.112798
     3  O   -1.202650
     4  C    0.289468
     5  N    0.499298
     6  C   -0.622667
     7  H    0.778834
     8  H    0.068567
     9  H    0.113267
    10  H    0.018697
    11  H    0.056349
    12  H    0.136647
    13  H    0.119953
 Sum of Mulliken charges =  -0.00000

 Dipole moment (field-independent basis, Debye):
    X=              6.9660    Y=             -1.7155    Z=             -1.3195  Tot=              7.2944

 Test job not archived.
 1\1\GINC-SE340\SP\RHF\Aug-CC-pVDZ\C4H7N1O1\OHZDE\09-Apr-2025\0\\#t hf
 aug-cc-pvdz iop(5/13=1,5/36=2,99/5=2) pseudo=read geom=check guess=(re
 ad,tcheck) scf=(maxcycle=1)\\title\\0,1\C,0,0.56120422,-0.8434812,0.33
 355538\C,0,-0.63279042,-1.3726527,-0.26278195\O,0,-1.36591585,0.717708
 15,0.90700208\C,0,-0.98047786,1.47423499,-0.07168235\N,0,0.20388897,1.
 47887181,-0.64955695\C,0,1.14570801,0.47454879,-0.22141958\H,0,0.03363
 381,-0.45722714,1.27518858\H,0,1.29685151,-1.60617691,0.62724522\H,0,-
 1.22978197,-0.81408889,-0.97745821\H,0,-0.98793365,-2.3664378,0.014405

 Normal termination of Gaussian 16 at Wed Apr  9 03:06:52 2025.
