 Gaussian 16, Revision C.01,

 ----------------------------------------------------------------------
 #t hf aug-cc-pvdz symm=none int=(grid=ultrafine) guess=(read,tcheck) s
 table=(opt,rrhf)
 ----------------------------------------------------------------------
 -----
 title
 -----
 Symbolic Z-matrix:
 Charge =  0 Multiplicity = 1

 SCF Done:  E(RHF) =  -323.780191519     A.U. after   15 cycles
 Normal termination of Gaussian 16 at Wed Apr  9 03:33:35 2025.
 Gaussian 16:  ES64L-G16RevC.01  3-Jul-2019

 ----------------------------------------------------------------------
 #t hf aug-cc-pvdz iop(5/13=1,5/36=2,99/5=2) pseudo=read geom=check gue
 ss=(read,tcheck) scf=(maxcycle=1)
 ----------------------------------------------------------------------
 -----
 title
 -----
 Structure from the checkpoint file:  "Grambow2020_wb97xd3_006978_reverse_mol1.chk"
 Charge =  0 Multiplicity = 1

                         Standard orientation:
 ---------------------------------------------------------------------
 Center     Atomic      Atomic             Coordinates (Angstroms)
 Number     Number       Type             X           Y           Z
 ---------------------------------------------------------------------
      1          6           0       -2.668008   -0.524497    0.085553
      2          6           0       -1.642066    0.558934   -0.209690
      3          6           0       -0.281232    0.199990    0.356588
      4          8           0        0.254072   -0.953405   -0.242965
      5          6           0        0.827985    1.230902    0.001319
      6          6           0        1.817315    0.154695   -0.114313
      7          7           0        2.691811   -0.626135    0.079129
      8          1           0       -2.811679   -0.647236    1.161877
      9          1           0       -3.635627   -0.284805   -0.357693
     10          1           0       -2.328446   -1.478241   -0.319484
     11          1           0       -1.964384    1.520659    0.204852
     12          1           0       -1.534143    0.686569   -1.291505
     13          1           0       -0.351959    0.101729    1.452362
     14          1           0        1.670018   -1.278737    0.061712
     15          1           0        1.118796    1.986077    0.732966
     16          1           0        0.638196    1.684034   -0.972015
 ---------------------------------------------------------------------

 SCF Done:  E(RHF) =  -324.122709120     A.U. after    2 cycles

 The electronic state is 1-A.
 Alpha  occ. eigenvalues --  -20.48197 -15.55047 -11.39520 -11.29576 -11.29463
 Alpha  occ. eigenvalues --  -11.23021 -11.21631  -1.40502  -1.30160  -1.09067
 Alpha  occ. eigenvalues --   -1.03862  -0.89355  -0.79490  -0.74322  -0.73035
 Alpha  occ. eigenvalues --   -0.68604  -0.65213  -0.62272  -0.60367  -0.57001
 Alpha  occ. eigenvalues --   -0.55014  -0.53283  -0.50152  -0.49680  -0.48288
 Alpha  occ. eigenvalues --   -0.39404  -0.39203
 Alpha virt. eigenvalues --    0.02857   0.03663   0.03928   0.04763   0.05867
 Alpha virt. eigenvalues --    0.06501   0.07194   0.07500   0.09222   0.09768
 Alpha virt. eigenvalues --    0.10959   0.11121   0.12099   0.13485   0.13804

 Mulliken charges:
               1
     1  C   -0.323844
     2  C   -0.437937
     3  C    1.101906
     4  O   -1.772433
     5  C   -0.250603
     6  C   -1.231809
     7  N    0.784850
     8  H    0.154086
     9  H    0.123197
    10  H    0.191701
    11  H    0.129598
    12  H    0.152395
    13  H    0.055909
    14  H    0.904691
    15  H    0.208585
    16  H    0.209709
 Sum of Mulliken charges =  -0.00000

 Dipole moment (field-independent basis, Debye):
    X=             -0.8804    Y=              3.6775    Z=              0.5046  Tot=              3.8149

 Test job not archived.
 1\1\GINC-SE102\SP\RHF\Aug-CC-pVDZ\C5H9N1O1\OHZDE\09-Apr-2025\0\\#t hf
 aug-cc-pvdz iop(5/13=1,5/36=2,99/5=2) pseudo=read geom=check guess=(re
 ad,tcheck) scf=(maxcycle=1)\\title\\0,1\C,0,2.24185275,-0.17253408,0.2
 5565358\C,0,0.86602981,-0.26153865,0.89810094\C,0,-0.19673352,0.367200
 54,0.01685051\O,0,-0.34249241,-0.31377092,-1.20436414\C,0,-1.63743559,
 0.21945859,0.58422018\C,0,-2.1751711,0.06258335,-0.77099034\N,0,-2.678
 20213,0.23591998,-1.83342786\H,0,2.54347757,0.868304,0.11473576\H,0,2.
 99847825,-0.66155287,0.87094505\H,0,2.22711745,-0.65395823,-0.72260912

 Normal termination of Gaussian 16 at Wed Apr  9 03:33:41 2025.
