 Gaussian 16, Revision C.01,

 ----------------------------------------------------------------------
 #t hf aug-cc-pvdz symm=none int=(grid=ultrafine) guess=(read,tcheck) s
 table=(opt,rrhf)
 ----------------------------------------------------------------------
 -----
 title
 -----
 Symbolic Z-matrix:
 Charge =  0 Multiplicity = 1

 SCF Done:  E(RHF) =  -333.551037553     A.U. after   17 cycles
 Normal termination of Gaussian 16 at Wed Apr  9 03:33:07 2025.
 Gaussian 16:  ES64L-G16RevC.01  3-Jul-2019

 ----------------------------------------------------------------------
 #t hf aug-cc-pvdz iop(5/13=1,5/36=2,99/5=2) pseudo=read geom=check gue
 ss=(read,tcheck) scf=(maxcycle=1)
 ----------------------------------------------------------------------
 -----
 title
 -----
 Structure from the checkpoint file:  "Grambow2020_wb97xd3_006984_reverse_mol1.chk"
 Charge =  0 Multiplicity = 1

                         Standard orientation:
 ---------------------------------------------------------------------
 Center     Atomic      Atomic             Coordinates (Angstroms)
 Number     Number       Type             X           Y           Z
 ---------------------------------------------------------------------
      1          7           0        2.158867   -0.071985   -0.002829
      2          6           0        0.815921   -0.116935   -0.000625
      3          6           0        0.169785    1.252785   -0.002320
      4          7           0       -1.037385    1.560902    0.001631
      5          6           0       -1.940101   -0.367660    0.001026
      6          7           0       -1.131133   -1.239262   -0.001053
      7          7           0        0.261219   -1.283205    0.000148
      8          1           0        2.637711    0.808708    0.019071
      9          1           0        2.685727   -0.926100    0.010942
     10          1           0        0.938626    2.048408   -0.007729
     11          1           0       -2.296676    0.694696    0.003958
 ---------------------------------------------------------------------

 SCF Done:  E(RHF) =  -333.879924067     A.U. after    2 cycles

 The electronic state is 1-A.
 Alpha  occ. eigenvalues --  -15.58360 -15.55088 -15.54178 -15.49359 -11.35594
 Alpha  occ. eigenvalues --  -11.34661 -11.29305  -1.36581  -1.28103  -1.19860
 Alpha  occ. eigenvalues --   -1.16936  -0.94716  -0.90834  -0.81737  -0.77693
 Alpha  occ. eigenvalues --   -0.72828  -0.69115  -0.65395  -0.60253  -0.57015
 Alpha  occ. eigenvalues --   -0.56777  -0.51233  -0.47240  -0.42026  -0.36546
 Alpha virt. eigenvalues --    0.02485   0.04710   0.04989   0.05818   0.06221
 Alpha virt. eigenvalues --    0.07299   0.08025   0.08737   0.10553   0.11091
 Alpha virt. eigenvalues --    0.12061   0.12656   0.12769   0.14447   0.14714

 Mulliken charges:
               1
     1  N    0.838715
     2  C   -1.812206
     3  C   -0.738846
     4  N    0.847621
     5  C   -0.317594
     6  N    0.523209
     7  N    0.367237
     8  H    0.124639
     9  H   -0.026694
    10  H   -0.098653
    11  H    0.292571
 Sum of Mulliken charges =  -0.00000

 Dipole moment (field-independent basis, Debye):
    X=              2.7852    Y=              0.7837    Z=              0.0537  Tot=              2.8938

 Test job not archived.
 1\1\GINC-SE222\SP\RHF\Aug-CC-pVDZ\C3H4N4\OHZDE\09-Apr-2025\0\\#t hf au
 g-cc-pvdz iop(5/13=1,5/36=2,99/5=2) pseudo=read geom=check guess=(read
 ,tcheck) scf=(maxcycle=1)\\title\\0,1\N,0,1.79250511,-0.18648904,-0.55
 089132\C,0,0.4696683,-0.23653902,-0.32039863\C,0,0.00122061,0.77208419
 ,0.70764017\N,0,-1.14538698,0.98399303,1.14649798\C,0,-2.2647008,-0.45
 474038,0.04584789\N,0,-1.57674756,-1.0899208,-0.68722071\N,0,-0.215682
 41,-1.10745702,-0.98348002\H,0,2.37225668,0.45675646,-0.04540698\H,0,2
 .20814493,-0.82256383,-1.20658559\H,0,0.85112508,1.37393614,1.08127088

 Normal termination of Gaussian 16 at Wed Apr  9 03:33:11 2025.
