 Gaussian 16, Revision C.01,

 ----------------------------------------------------------------------
 #t hf aug-cc-pvdz symm=none int=(grid=ultrafine) guess=(read,tcheck) s
 table=(opt,rrhf)
 ----------------------------------------------------------------------
 -----
 title
 -----
 Symbolic Z-matrix:
 Charge =  0 Multiplicity = 1

 SCF Done:  E(RHF) =  -269.475815824     A.U. after   16 cycles
 Normal termination of Gaussian 16 at Wed Apr  9 17:23:36 2025.
 Gaussian 16:  ES64L-G16RevC.01  3-Jul-2019

 ----------------------------------------------------------------------
 #t hf aug-cc-pvdz iop(5/13=1,5/36=2,99/5=2) pseudo=read geom=check gue
 ss=(read,tcheck) scf=(maxcycle=1)
 ----------------------------------------------------------------------
 -----
 title
 -----
 Structure from the checkpoint file:  "Grambow2020_wb97xd3_006589_reverse_mol1.chk"
 Charge =  0 Multiplicity = 1

                         Standard orientation:
 ---------------------------------------------------------------------
 Center     Atomic      Atomic             Coordinates (Angstroms)
 Number     Number       Type             X           Y           Z
 ---------------------------------------------------------------------
      1          6           0        2.148388   -0.620781   -0.218885
      2          6           0        0.874699   -0.085958    0.422549
      3          6           0        0.432380    1.354155   -0.052310
      4          6           0       -1.087524    1.441662   -0.249952
      5          6           0       -1.488187    0.099484   -0.009327
      6          6           0       -0.370016   -0.859671    0.192169
      7          6           0       -1.533417   -1.332850   -0.142844
      8          1           0        2.032213   -0.695645   -1.301625
      9          1           0        2.984466    0.050247   -0.015337
     10          1           0        2.405512   -1.608292    0.165559
     11          1           0        1.004891   -0.060304    1.511374
     12          1           0        0.848145    2.140907    0.579518
     13          1           0        0.810667    1.558124   -1.065350
     14          1           0       -1.806815    0.815082    0.921051
     15          1           0       -2.137015   -2.176367   -0.443587
 ---------------------------------------------------------------------

 SCF Done:  E(RHF) =  -269.758827679     A.U. after    2 cycles

 The electronic state is 1-A.
 Alpha  occ. eigenvalues --  -11.30182 -11.27955 -11.27182 -11.27106 -11.24746
 Alpha  occ. eigenvalues --  -11.24475 -11.24045  -1.23905  -1.09187  -1.02294
 Alpha  occ. eigenvalues --   -0.91579  -0.87096  -0.76481  -0.71634  -0.65888
 Alpha  occ. eigenvalues --   -0.61154  -0.60575  -0.59382  -0.55274  -0.53588
 Alpha  occ. eigenvalues --   -0.51813  -0.50878  -0.42384  -0.36543  -0.32149
 Alpha virt. eigenvalues --    0.02931   0.03148   0.03714   0.04515   0.05591
 Alpha virt. eigenvalues --    0.06622   0.06836   0.07481   0.08797   0.10264
 Alpha virt. eigenvalues --    0.11085   0.11661   0.12347   0.12612   0.14026

 Mulliken charges:
               1
     1  C   -0.097571
     2  C   -1.149282
     3  C    0.009472
     4  C   -0.587078
     5  C   -0.218876
     6  C    0.578238
     7  C    0.288381
     8  H    0.205820
     9  H    0.175230
    10  H    0.157869
    11  H    0.255694
    12  H    0.115651
    13  H    0.218366
    14  H    0.363382
    15  H   -0.315298
 Sum of Mulliken charges =  -0.00000

 Dipole moment (field-independent basis, Debye):
    X=              2.2986    Y=             -2.9295    Z=              0.9182  Tot=              3.8352

 Test job not archived.
 1\1\GINC-SE229\SP\RHF\Aug-CC-pVDZ\C7H8\OHZDE\09-Apr-2025\0\\#t hf aug-
 cc-pvdz iop(5/13=1,5/36=2,99/5=2) pseudo=read geom=check guess=(read,t
 check) scf=(maxcycle=1)\\title\\0,1\C,0,-0.60909882,-1.78972719,-0.591
 31907\C,0,0.20660155,-0.68215335,0.06264517\C,0,0.9064831,0.32136217,-
 0.93644599\C,0,0.81454353,1.77054847,-0.43821401\C,0,0.01254355,1.6257
 1753,0.72612836\C,0,-0.52393615,0.25697238,0.94886189\C,0,-1.11027319,
 1.25200203,1.54531853\H,0,-1.416941,-1.36915488,-1.19293174\H,0,0.0242
 9261,-2.38769624,-1.24857487\H,0,-1.04865617,-2.45505867,0.15246266\H,

 Normal termination of Gaussian 16 at Wed Apr  9 17:23:41 2025.
