 Gaussian 16, Revision C.01,

 ----------------------------------------------------------------------
 #t hf aug-cc-pvdz symm=none int=(grid=ultrafine) guess=(read,tcheck) s
 table=(opt,rrhf)
 ----------------------------------------------------------------------
 -----
 title
 -----
 Symbolic Z-matrix:
 Charge =  0 Multiplicity = 1

 SCF Done:  E(RHF) =  -264.902757432     A.U. after   16 cycles
 Normal termination of Gaussian 16 at Wed Apr  9 15:41:53 2025.
 Gaussian 16:  ES64L-G16RevC.01  3-Jul-2019

 ----------------------------------------------------------------------
 #t hf aug-cc-pvdz iop(5/13=1,5/36=2,99/5=2) pseudo=read geom=check gue
 ss=(read,tcheck) scf=(maxcycle=1)
 ----------------------------------------------------------------------
 -----
 title
 -----
 Structure from the checkpoint file:  "Grambow2020_b97d3_006629_forward_mol1.chk"
 Charge =  0 Multiplicity = 1

                         Standard orientation:
 ---------------------------------------------------------------------
 Center     Atomic      Atomic             Coordinates (Angstroms)
 Number     Number       Type             X           Y           Z
 ---------------------------------------------------------------------
      1          6           0       -1.985752   -0.489451   -0.215942
      2          6           0       -0.928427   -1.294662    0.200830
      3          6           0        1.114468    0.014771    0.480435
      4          7           0        2.023035   -0.613743   -0.403224
      5          6           0        0.390424    1.145910    0.192921
      6          7           0       -0.608153    1.768643   -0.124355
      7          1           0       -2.799637   -0.282742    0.483459
      8          1           0       -2.279039   -0.527261   -1.269427
      9          1           0       -1.424578    0.886371   -0.263274
     10          1           0       -0.841308   -1.609687    1.240090
     11          1           0       -0.312915   -1.843143   -0.510129
     12          1           0        1.291618   -0.198557    1.535152
     13          1           0        1.921510   -0.271586   -1.358169
     14          1           0        2.995894   -0.497106   -0.114119
 ---------------------------------------------------------------------

 SCF Done:  E(RHF) =  -265.180656481     A.U. after    2 cycles

 The electronic state is 1-A.
 Alpha  occ. eigenvalues --  -15.52159 -15.51099 -11.29926 -11.28899 -11.27301
 Alpha  occ. eigenvalues --  -11.23133  -1.23517  -1.20449  -1.03602  -0.96867
 Alpha  occ. eigenvalues --   -0.81697  -0.76479  -0.72046  -0.68748  -0.64815
 Alpha  occ. eigenvalues --   -0.62249  -0.59275  -0.58790  -0.52305  -0.50359
 Alpha  occ. eigenvalues --   -0.48386  -0.37349  -0.33598
 Alpha virt. eigenvalues --    0.02973   0.04100   0.04596   0.05014   0.05510
 Alpha virt. eigenvalues --    0.06111   0.07639   0.08199   0.09246   0.10691
 Alpha virt. eigenvalues --    0.11175   0.13209   0.13624   0.14189   0.14896

 Mulliken charges:
               1
     1  C   -0.596484
     2  C    0.220027
     3  C   -0.591456
     4  N    0.474519
     5  C   -1.510743
     6  N    1.063730
     7  H    0.066007
     8  H    0.081106
     9  H    0.509075
    10  H    0.010712
    11  H    0.026558
    12  H   -0.037967
    13  H    0.098933
    14  H    0.185984
 Sum of Mulliken charges =  -0.00000

 Dipole moment (field-independent basis, Debye):
    X=              1.8447    Y=             -2.6637    Z=              0.3735  Tot=              3.2615

 Test job not archived.
 1\1\GINC-SE026\SP\RHF\Aug-CC-pVDZ\C4H8N2\OHZDE\09-Apr-2025\0\\#t hf au
 g-cc-pvdz iop(5/13=1,5/36=2,99/5=2) pseudo=read geom=check guess=(read
 ,tcheck) scf=(maxcycle=1)\\title\\0,1\C,0,-1.83816973,0.15575958,0.000
 69694\C,0,-0.89910632,-0.75142571,0.4856447\C,0,1.36062918,0.16501829,
 0.34442714\N,0,2.03946219,-0.77586343,-0.4650817\C,0,0.81936949,1.3450
 1564,-0.1039291\N,0,-0.08319783,2.08262776,-0.46018447\H,0,-2.51931081
 ,0.63842764,0.70594742\H,0,-2.24980396,-0.01252304,-0.99906051\H,0,-1.
 05250913,1.36529267,-0.35959736\H,0,-0.75279486,-0.88597144,1.55680373

 Normal termination of Gaussian 16 at Wed Apr  9 15:41:57 2025.
