 Gaussian 16, Revision C.01,

 ----------------------------------------------------------------------
 #t hf aug-cc-pvdz symm=none int=(grid=ultrafine) guess=(read,tcheck) s
 table=(opt,rrhf)
 ----------------------------------------------------------------------
 -----
 title
 -----
 Symbolic Z-matrix:
 Charge =  0 Multiplicity = 1

 SCF Done:  E(RHF) =  -342.323176718     A.U. after   16 cycles
 Normal termination of Gaussian 16 at Wed Apr  9 19:16:57 2025.
 Gaussian 16:  ES64L-G16RevC.01  3-Jul-2019

 ----------------------------------------------------------------------
 #t hf aug-cc-pvdz iop(5/13=1,5/36=2,99/5=2) pseudo=read geom=check gue
 ss=(read,tcheck) scf=(maxcycle=1)
 ----------------------------------------------------------------------
 -----
 title
 -----
 Structure from the checkpoint file:  "Grambow2020_wb97xd3_009062_reverse_mol2.chk"
 Charge =  0 Multiplicity = 1

                         Standard orientation:
 ---------------------------------------------------------------------
 Center     Atomic      Atomic             Coordinates (Angstroms)
 Number     Number       Type             X           Y           Z
 ---------------------------------------------------------------------
      1          8           0       -2.458752    0.305737    0.061471
      2          6           0        1.588992    1.191784   -0.051920
      3          6           0        2.014876   -0.217845    0.117351
      4          6           0        0.847296   -1.200907   -0.098271
      5          6           0       -0.322926   -0.278921   -0.043376
      6          8           0       -1.500924   -0.669429    0.029522
      7          6           0        0.104161    1.142403   -0.070265
      8          1           0        2.309373   -0.174863    1.183032
      9          1           0        2.942982   -0.457005   -0.402524
     10          1           0        0.776893   -2.001372    0.638576
     11          1           0        0.898618   -1.672510   -1.083982
     12          1           0       -0.339821    1.718207    0.754448
     13          1           0       -0.305033    1.677993   -0.938603
 ---------------------------------------------------------------------

 SCF Done:  E(RHF) =  -342.666103784     A.U. after    2 cycles

 The electronic state is 1-A.
 Alpha  occ. eigenvalues --  -20.67441 -20.50096 -11.38938 -11.30243 -11.29282
 Alpha  occ. eigenvalues --  -11.28256 -11.27980  -1.64794  -1.25066  -1.17869
 Alpha  occ. eigenvalues --   -1.03967  -0.98288  -0.82265  -0.78750  -0.73093
 Alpha  occ. eigenvalues --   -0.71110  -0.66870  -0.64262  -0.60417  -0.59957
 Alpha  occ. eigenvalues --   -0.56516  -0.54291  -0.53240  -0.39943  -0.38915
 Alpha  occ. eigenvalues --   -0.37185
 Alpha virt. eigenvalues --    0.02149   0.03081   0.03913   0.04182   0.04680
 Alpha virt. eigenvalues --    0.06058   0.06448   0.07268   0.08308   0.09136
 Alpha virt. eigenvalues --    0.11300   0.13648   0.13867   0.14486   0.14918

 Mulliken charges:
               1
     1  O   -0.638435
     2  C   -0.312590
     3  C   -0.166463
     4  C   -0.342613
     5  C    1.496077
     6  O   -1.115755
     7  C   -0.642943
     8  H    0.353778
     9  H    0.146467
    10  H    0.192493
    11  H    0.265610
    12  H    0.384515
    13  H    0.379859
 Sum of Mulliken charges =  -0.00000

 Dipole moment (field-independent basis, Debye):
    X=              5.1963    Y=             -2.3642    Z=             -0.0645  Tot=              5.7092

 Test job not archived.
 1\1\GINC-SE115\SP\RHF\Aug-CC-pVDZ\C5H6O2\OHZDE\09-Apr-2025\0\\#t hf au
 g-cc-pvdz iop(5/13=1,5/36=2,99/5=2) pseudo=read geom=check guess=(read
 ,tcheck) scf=(maxcycle=1)\\title\\0,1\O,0,2.37765625,0.66828191,1.6006
 5657\C,0,0.04863189,-0.82079718,-1.4881061\C,0,-1.23439426,-0.43358079
 ,-0.85486608\C,0,-1.0240587,0.54070323,0.32100583\C,0,0.44296854,0.407
 31885,0.55020329\O,0,1.02624596,0.86866057,1.5464172\C,0,1.09662351,-0
 .35194852,-0.5450293\H,0,-1.54930871,-1.43152711,-0.49544444\H,0,-2.00
 719448,-0.15657929,-1.57243072\H,0,-1.60382339,0.31445411,1.21617494\H

 Normal termination of Gaussian 16 at Wed Apr  9 19:17:01 2025.
