 Gaussian 16, Revision C.01,

 ----------------------------------------------------------------------
 #t hf aug-cc-pvdz symm=none int=(grid=ultrafine) guess=(read,tcheck) s
 table=(opt,rrhf)
 ----------------------------------------------------------------------
 -----
 title
 -----
 Symbolic Z-matrix:
 Charge =  0 Multiplicity = 1

 SCF Done:  E(RHF) =  -302.047141499     A.U. after   14 cycles
 Normal termination of Gaussian 16 at Wed Apr  9 03:15:02 2025.
 Gaussian 16:  ES64L-G16RevC.01  3-Jul-2019

 ----------------------------------------------------------------------
 #t hf aug-cc-pvdz iop(5/13=1,5/36=2,99/5=2) pseudo=read geom=check gue
 ss=(read,tcheck) scf=(maxcycle=1)
 ----------------------------------------------------------------------
 -----
 title
 -----
 Structure from the checkpoint file:  "Grambow2020_b97d3_006947_reverse_mol2.chk"
 Charge =  0 Multiplicity = 1

                         Standard orientation:
 ---------------------------------------------------------------------
 Center     Atomic      Atomic             Coordinates (Angstroms)
 Number     Number       Type             X           Y           Z
 ---------------------------------------------------------------------
      1          6           0       -1.553949    1.283900    0.259991
      2          7           0        1.880796    1.083798   -0.122527
      3          6           0        1.796881   -0.133866    0.033216
      4          8           0        1.647713   -1.298623    0.162902
      5          7           0       -1.084988    0.066516   -0.392828
      6          6           0       -1.812056   -1.126328    0.027177
      7          1           0       -2.636716    1.491583    0.123777
      8          1           0       -0.976481    2.137865   -0.116662
      9          1           0       -1.364566    1.205177    1.340828
     10          1           0        2.775849    1.551618   -0.020590
     11          1           0       -1.168666    0.176054   -1.404843
     12          1           0       -2.912315   -1.071113   -0.116459
     13          1           0       -1.429528   -1.997411   -0.521345
     14          1           0       -1.625189   -1.299225    1.097249
 ---------------------------------------------------------------------

 SCF Done:  E(RHF) =  -302.359041968     A.U. after    2 cycles

 The electronic state is 1-A.
 Alpha  occ. eigenvalues --  -20.60003 -15.52441 -15.47990 -11.42004 -11.24755
 Alpha  occ. eigenvalues --  -11.24727  -1.53433  -1.25462  -1.19148  -0.94561
 Alpha  occ. eigenvalues --   -0.85797  -0.82600  -0.72508  -0.67923  -0.64693
 Alpha  occ. eigenvalues --   -0.64542  -0.61317  -0.61247  -0.54027  -0.52053
 Alpha  occ. eigenvalues --   -0.51548  -0.49909  -0.46230  -0.40166
 Alpha virt. eigenvalues --    0.03154   0.04429   0.05229   0.05413   0.06147
 Alpha virt. eigenvalues --    0.06809   0.07233   0.07795   0.10237   0.10800
 Alpha virt. eigenvalues --    0.12739   0.13478   0.14953   0.15247   0.15517

 Mulliken charges:
               1
     1  C   -0.524947
     2  N    0.616525
     3  C    0.011181
     4  O   -0.704031
     5  N    0.032790
     6  C   -0.480079
     7  H    0.104638
     8  H    0.087767
     9  H    0.165387
    10  H    0.127387
    11  H    0.240574
    12  H    0.130066
    13  H    0.055245
    14  H    0.137497
 Sum of Mulliken charges =  -0.00000

 Dipole moment (field-independent basis, Debye):
    X=              0.3387    Y=              0.9085    Z=             -0.2156  Tot=              0.9932

 Test job not archived.
 1\1\GINC-SE456\SP\RHF\Aug-CC-pVDZ\C3H8N2O1\OHZDE\09-Apr-2025\0\\#t hf
 aug-cc-pvdz iop(5/13=1,5/36=2,99/5=2) pseudo=read geom=check guess=(re
 ad,tcheck) scf=(maxcycle=1)\\title\\0,1\C,0,-0.60235019,1.23443281,0.6
 8939233\N,0,-1.81927543,-1.87479806,-0.22472504\C,0,-0.81255217,-2.032
 56734,-0.91437672\O,0,0.18693941,-2.13527459,-1.53582299\N,0,0.4232800
 3,0.21968961,0.47374861\C,0,1.60605889,0.73498898,-0.20699235\H,0,-0.2
 5669617,2.12533924,1.25585532\H,0,-1.44951131,0.78081266,1.21961815\H,
 0,-0.96973618,1.58394876,-0.28689526\H,0,-2.63740976,-2.4568179,-0.373

 Normal termination of Gaussian 16 at Wed Apr  9 03:15:06 2025.
