 Gaussian 16, Revision C.01,

 ----------------------------------------------------------------------
 #t hf aug-cc-pvdz symm=none int=(grid=ultrafine) guess=(read,tcheck) s
 table=(opt,rrhf)
 ----------------------------------------------------------------------
 -----
 title
 -----
 Symbolic Z-matrix:
 Charge =  0 Multiplicity = 1

 SCF Done:  E(RHF) =  -376.743981288     A.U. after   17 cycles
 Normal termination of Gaussian 16 at Wed Apr  9 03:59:52 2025.
 Gaussian 16:  ES64L-G16RevC.01  3-Jul-2019

 ----------------------------------------------------------------------
 #t hf aug-cc-pvdz iop(5/13=1,5/36=2,99/5=2) pseudo=read geom=check gue
 ss=(read,tcheck) scf=(maxcycle=1)
 ----------------------------------------------------------------------
 -----
 title
 -----
 Structure from the checkpoint file:  "Grambow2020_wb97xd3_008739_forward_mol1.chk"
 Charge =  0 Multiplicity = 1

                         Standard orientation:
 ---------------------------------------------------------------------
 Center     Atomic      Atomic             Coordinates (Angstroms)
 Number     Number       Type             X           Y           Z
 ---------------------------------------------------------------------
      1          7           0       -2.369603   -0.061342    0.450980
      2          6           0       -1.143673    0.014960   -0.267056
      3          8           0       -0.631095   -1.154010   -0.548232
      4          7           0       -0.310198    1.123984    0.066550
      5          6           0        0.918567    1.210930   -0.455371
      6          6           0        1.791292    0.055827    0.623820
      7          8           0        1.695393   -1.111331    0.040361
      8          1           0       -2.349561   -0.832154    1.100740
      9          1           0       -2.625765    0.809346    0.891271
     10          1           0       -1.411751    0.710297   -1.186887
     11          1           0        1.365040    2.200373   -0.377523
     12          1           0        1.147575    0.667441   -1.371979
     13          1           0        1.319721    0.187000    1.601522
     14          1           0        2.784468    0.515476    0.589736
     15          1           0        0.617379   -1.263846   -0.214979
 ---------------------------------------------------------------------

 SCF Done:  E(RHF) =  -377.126555216     A.U. after    2 cycles

 The electronic state is 1-A.
 Alpha  occ. eigenvalues --  -20.52443 -20.48822 -15.63029 -15.49855 -11.37393
 Alpha  occ. eigenvalues --  -11.36123 -11.30263  -1.47359  -1.42589  -1.29175
 Alpha  occ. eigenvalues --   -1.18924  -1.00589  -0.91879  -0.81983  -0.76644
 Alpha  occ. eigenvalues --   -0.73126  -0.71717  -0.69653  -0.65632  -0.63717
 Alpha  occ. eigenvalues --   -0.61916  -0.58025  -0.54258  -0.50686  -0.46782
 Alpha  occ. eigenvalues --   -0.42779  -0.42643  -0.37453
 Alpha virt. eigenvalues --   -0.03091   0.03013   0.03844   0.04138   0.05236
 Alpha virt. eigenvalues --    0.05748   0.06332   0.07086   0.08449   0.10022
 Alpha virt. eigenvalues --    0.11690   0.12848   0.13382   0.14296   0.14641

 Mulliken charges:
               1
     1  N    0.515094
     2  C   -0.596469
     3  O   -1.514645
     4  N    0.769934
     5  C   -0.676877
     6  C    0.734087
     7  O   -1.329172
     8  H    0.169319
     9  H    0.217958
    10  H    0.369168
    11  H   -0.036486
    12  H    0.168558
    13  H    0.156135
    14  H    0.121511
    15  H    0.931886
 Sum of Mulliken charges =  -0.00000

 Dipole moment (field-independent basis, Debye):
    X=              1.4564    Y=              4.3571    Z=              1.5872  Tot=              4.8605

 Test job not archived.
 1\1\GINC-SE102\SP\RHF\Aug-CC-pVDZ\C3H8N2O2\OHZDE\09-Apr-2025\0\\#t hf
 aug-cc-pvdz iop(5/13=1,5/36=2,99/5=2) pseudo=read geom=check guess=(re
 ad,tcheck) scf=(maxcycle=1)\\title\\0,1\N,0,2.26091322,0.95532619,-0.1
 540584\C,0,0.88431532,0.71722804,-0.42348402\O,0,0.09305486,1.64335218
 ,0.05031848\N,0,0.49278177,-0.65484642,-0.42789775\C,0,-0.80143744,-0.
 97496941,-0.53899437\C,0,-1.3344112,-0.6872393,1.16209774\O,0,-1.71348
 09,0.56430357,1.20482848\H,0,2.3742201,1.37293992,0.75671079\H,0,2.836
 45684,0.13628325,-0.27852139\H,0,0.86274981,0.55161684,-1.59547255\H,0

 Normal termination of Gaussian 16 at Wed Apr  9 03:59:57 2025.
