 Gaussian 16, Revision C.01,

 ----------------------------------------------------------------------
 #t hf aug-cc-pvdz symm=none int=(grid=ultrafine) guess=(read,tcheck) s
 table=(opt,rrhf)
 ----------------------------------------------------------------------
 -----
 title
 -----
 Symbolic Z-matrix:
 Charge =  0 Multiplicity = 1

 SCF Done:  E(RHF) =  -234.170429989     A.U. after   12 cycles
 Normal termination of Gaussian 16 at Wed Apr  9 15:50:03 2025.
 Gaussian 16:  ES64L-G16RevC.01  3-Jul-2019

 ----------------------------------------------------------------------
 #t hf aug-cc-pvdz iop(5/13=1,5/36=2,99/5=2) pseudo=read geom=check gue
 ss=(read,tcheck) scf=(maxcycle=1)
 ----------------------------------------------------------------------
 -----
 title
 -----
 Structure from the checkpoint file:  "Grambow2020_b97d3_006796_reverse_mol2.chk"
 Charge =  0 Multiplicity = 1

                         Standard orientation:
 ---------------------------------------------------------------------
 Center     Atomic      Atomic             Coordinates (Angstroms)
 Number     Number       Type             X           Y           Z
 ---------------------------------------------------------------------
      1          6           0       -1.477158   -1.147396    0.765179
      2          6           0       -1.803974   -0.320452   -0.445420
      3          6           0       -2.307234    0.923124   -0.422235
      4          6           0        1.663153    0.215519   -0.453377
      5          6           0        1.478280    1.194413    0.670753
      6          6           0        2.431660   -0.883388   -0.404589
      7          1           0       -1.719281   -0.614118    1.694734
      8          1           0       -0.406301   -1.402490    0.776785
      9          1           0       -2.034546   -2.097487    0.757370
     10          1           0       -1.594708   -0.787933   -1.412768
     11          1           0       -2.530432    1.428842    0.519847
     12          1           0       -2.516345    1.475492   -1.339029
     13          1           0        1.105030    0.433451   -1.368586
     14          1           0        1.806194    2.203005    0.372539
     15          1           0        0.413734    1.274335    0.938642
     16          1           0        2.046348    0.897001    1.562824
     17          1           0        2.520809   -1.559992   -1.255394
     18          1           0        3.001136   -1.141023    0.491177
 ---------------------------------------------------------------------

 SCF Done:  E(RHF) =  -234.430285793     A.U. after    2 cycles

 The electronic state is 1-A.
 Alpha  occ. eigenvalues --  -11.24606 -11.24406 -11.23131 -11.23113 -11.23107
 Alpha  occ. eigenvalues --  -11.22940  -1.06538  -1.05935  -0.93135  -0.93015
 Alpha  occ. eigenvalues --   -0.76126  -0.75700  -0.64517  -0.64370  -0.59180
 Alpha  occ. eigenvalues --   -0.59050  -0.57952  -0.55752  -0.52852  -0.52750
 Alpha  occ. eigenvalues --   -0.49879  -0.49507  -0.36640  -0.36197
 Alpha virt. eigenvalues --    0.03544   0.03623   0.03908   0.04432   0.05864
 Alpha virt. eigenvalues --    0.05942   0.06423   0.06639   0.07478   0.08438
 Alpha virt. eigenvalues --    0.08978   0.09867   0.12583   0.12956   0.13505

 Mulliken charges:
               1
     1  C   -0.629248
     2  C    0.596304
     3  C   -0.077204
     4  C    0.490129
     5  C   -0.623375
     6  C   -0.071545
     7  H    0.113015
     8  H    0.243694
     9  H    0.150323
    10  H   -0.174926
    11  H   -0.095165
    12  H   -0.107856
    13  H   -0.134810
    14  H    0.199913
    15  H    0.173708
    16  H    0.126802
    17  H   -0.100631
    18  H   -0.079126
 Sum of Mulliken charges =  -0.00000

 Dipole moment (field-independent basis, Debye):
    X=             -0.0596    Y=             -0.0195    Z=              0.2176  Tot=              0.2265

 Test job not archived.
 1\1\GINC-SE226\SP\RHF\Aug-CC-pVDZ\C6H12\OHZDE\09-Apr-2025\0\\#t hf aug
 -cc-pvdz iop(5/13=1,5/36=2,99/5=2) pseudo=read geom=check guess=(read,
 tcheck) scf=(maxcycle=1)\\title\\0,1\C,0,-1.73678521,0.67985822,0.7135
 8946\C,0,-1.0668662,1.55717064,-0.30510014\C,0,-0.18572054,2.53101946,
 -0.03034347\C,0,0.96671301,-1.26926889,-0.73415612\C,0,1.68251251,-0.9
 0251037,0.5343861\C,0,0.32877891,-2.42881066,-0.95570248\H,0,-1.431085
 45,0.94317805,1.73549586\H,0,-1.48453689,-0.37659,0.53406622\H,0,-2.83
 315127,0.76474352,0.64884928\H,0,-1.32617826,1.35840418,-1.34977257\H,

 Normal termination of Gaussian 16 at Wed Apr  9 15:50:09 2025.
