 Gaussian 16, Revision C.01,

 ----------------------------------------------------------------------
 #t hf aug-cc-pvdz symm=none int=(grid=ultrafine) guess=(read,tcheck) s
 table=(opt,rrhf)
 ----------------------------------------------------------------------
 -----
 title
 -----
 Symbolic Z-matrix:
 Charge =  0 Multiplicity = 1

 SCF Done:  E(RHF) =  -358.337735456     A.U. after   18 cycles
 Normal termination of Gaussian 16 at Wed Apr  9 17:39:32 2025.
 Gaussian 16:  ES64L-G16RevC.01  3-Jul-2019

 ----------------------------------------------------------------------
 #t hf aug-cc-pvdz iop(5/13=1,5/36=2,99/5=2) pseudo=read geom=check gue
 ss=(read,tcheck) scf=(maxcycle=1)
 ----------------------------------------------------------------------
 -----
 title
 -----
 Structure from the checkpoint file:  "Grambow2020_wb97xd3_006759_reverse_mol2.chk"
 Charge =  0 Multiplicity = 1

                         Standard orientation:
 ---------------------------------------------------------------------
 Center     Atomic      Atomic             Coordinates (Angstroms)
 Number     Number       Type             X           Y           Z
 ---------------------------------------------------------------------
      1          8           0        2.446118   -0.822559   -0.220421
      2          6           0        1.486971   -0.185772   -0.132403
      3          6           0        0.398526    0.639613   -0.006000
      4          8           0        0.429348    1.875791    0.187768
      5          7           0       -0.767771   -0.108774   -0.144452
      6          6           0       -2.214439    0.122819   -0.065843
      7          6           0       -1.501909   -1.145114   -0.278734
      8          1           0        0.271308   -1.272159    2.304908
      9          1           0       -2.649850    0.660059   -0.902863
     10          1           0       -2.596299    0.378461    0.918357
     11          1           0       -0.241694   -1.815186    2.283879
     12          1           0       -1.427694   -2.204888   -0.434018
 ---------------------------------------------------------------------

 SCF Done:  E(RHF) =  -358.694733213     A.U. after    2 cycles

 The electronic state is 1-A.
 Alpha  occ. eigenvalues --  -20.63084 -20.45283 -15.65336 -11.39186 -11.36894
 Alpha  occ. eigenvalues --  -11.35430 -11.35294  -1.56936  -1.43377  -1.38439
 Alpha  occ. eigenvalues --   -1.11656  -0.94274  -0.92947  -0.82449  -0.74884
 Alpha  occ. eigenvalues --   -0.74561  -0.68708  -0.65702  -0.61830  -0.61052
 Alpha  occ. eigenvalues --   -0.57423  -0.56893  -0.56569  -0.47678  -0.40402
 Alpha  occ. eigenvalues --   -0.25741
 Alpha virt. eigenvalues --    0.01088   0.02010   0.03256   0.04535   0.06435
 Alpha virt. eigenvalues --    0.06670   0.07923   0.08334   0.09692   0.10618
 Alpha virt. eigenvalues --    0.11368   0.12175   0.13165   0.14021   0.14243

 Mulliken charges:
               1
     1  O   -0.822409
     2  C    0.507633
     3  C    1.129426
     4  O   -1.352541
     5  N    1.027911
     6  C    0.279616
     7  C   -0.614673
     8  H    0.036984
     9  H   -0.012347
    10  H   -0.011418
    11  H   -0.001072
    12  H   -0.167110
 Sum of Mulliken charges =  -0.00000

 Dipole moment (field-independent basis, Debye):
    X=             -5.0886    Y=             -5.4909    Z=             -0.8072  Tot=              7.5296

 Test job not archived.
 1\1\GINC-SE340\SP\RHF\Aug-CC-pVDZ\C4H5N1O2\OHZDE\09-Apr-2025\0\\#t hf
 aug-cc-pvdz iop(5/13=1,5/36=2,99/5=2) pseudo=read geom=check guess=(re
 ad,tcheck) scf=(maxcycle=1)\\title\\0,1\O,0,2.42021328,0.89752618,1.49
 057507\C,0,1.71579771,0.1655427,0.9417513\C,0,0.94970512,-0.7536696,0.
 27085449\O,0,1.34423466,-1.8514152,-0.1829439\N,0,-0.35947256,-0.28725
 132,0.18137945\C,0,-1.62116486,-0.72298419,-0.42766458\C,0,-1.33947411
 ,0.52309569,0.29939243\H,0,0.98379484,1.71375085,-1.43853803\H,0,-2.11
 938288,-1.55139674,0.06662695\H,0,-1.6400115,-0.73170031,-1.51366041\H

 Normal termination of Gaussian 16 at Wed Apr  9 17:39:36 2025.
