 Gaussian 16, Revision C.01,

 ----------------------------------------------------------------------
 #t hf aug-cc-pvdz symm=none int=(grid=ultrafine) guess=(read,tcheck) s
 table=(opt,rrhf)
 ----------------------------------------------------------------------
 -----
 title
 -----
 Symbolic Z-matrix:
 Charge =  0 Multiplicity = 1

 SCF Done:  E(RHF) =  -359.485154673     A.U. after   20 cycles
 Normal termination of Gaussian 16 at Wed Apr  9 03:46:36 2025.
 Gaussian 16:  ES64L-G16RevC.01  3-Jul-2019

 ----------------------------------------------------------------------
 #t hf aug-cc-pvdz iop(5/13=1,5/36=2,99/5=2) pseudo=read geom=check gue
 ss=(read,tcheck) scf=(maxcycle=1)
 ----------------------------------------------------------------------
 -----
 title
 -----
 Structure from the checkpoint file:  "Grambow2020_wb97xd3_007890_forward_mol1.chk"
 Charge =  0 Multiplicity = 1

                         Standard orientation:
 ---------------------------------------------------------------------
 Center     Atomic      Atomic             Coordinates (Angstroms)
 Number     Number       Type             X           Y           Z
 ---------------------------------------------------------------------
      1          6           0       -1.808199   -0.889391    0.361126
      2          6           0       -0.680193   -0.433810   -0.529383
      3          7           0       -0.496710    0.865159   -0.851209
      4          8           0       -0.635096    1.567866    0.251073
      5          6           0        0.567936   -1.038037   -0.399870
      6          6           0        1.790064   -0.200936   -0.298456
      7          8           0        1.283297    0.121184    0.970184
      8          1           0       -2.688809   -0.267705    0.206454
      9          1           0       -2.058882   -1.919040    0.097417
     10          1           0       -1.546365   -0.866675    1.420815
     11          1           0        0.143289    0.998767    0.830423
     12          1           0        0.626629   -2.011762    0.072428
     13          1           0        2.722701   -0.762030   -0.242795
     14          1           0        1.875156    0.632976   -0.996836
 ---------------------------------------------------------------------

 SCF Done:  E(RHF) =  -359.847392841     A.U. after    2 cycles

 The electronic state is 1-A.
 Alpha  occ. eigenvalues --  -20.60270 -20.52738 -15.64827 -11.34325 -11.30645
 Alpha  occ. eigenvalues --  -11.28785 -11.25484  -1.56401  -1.41120  -1.19674
 Alpha  occ. eigenvalues --   -1.02368  -0.99850  -0.90235  -0.80981  -0.73414
 Alpha  occ. eigenvalues --   -0.70978  -0.68392  -0.65672  -0.60645  -0.59472
 Alpha  occ. eigenvalues --   -0.57206  -0.56866  -0.55383  -0.47588  -0.45298
 Alpha  occ. eigenvalues --   -0.42831  -0.34325
 Alpha virt. eigenvalues --   -0.01873   0.03300   0.03940   0.04514   0.05421
 Alpha virt. eigenvalues --    0.06194   0.06854   0.07813   0.08767   0.09404
 Alpha virt. eigenvalues --    0.12329   0.13046   0.13872   0.14154   0.14930

 Mulliken charges:
               1
     1  C   -0.297220
     2  C   -1.180493
     3  N    1.520436
     4  O   -1.349521
     5  C    0.556548
     6  C    0.469921
     7  O   -1.293677
     8  H    0.176264
     9  H    0.225659
    10  H    0.219525
    11  H    0.911051
    12  H   -0.121952
    13  H    0.030337
    14  H    0.133123
 Sum of Mulliken charges =  -0.00000

 Dipole moment (field-independent basis, Debye):
    X=             -0.0803    Y=             -3.4211    Z=             -0.5700  Tot=              3.4692

 Test job not archived.
 1\1\GINC-SE333\SP\RHF\Aug-CC-pVDZ\C4H7N1O2\OHZDE\09-Apr-2025\0\\#t hf
 aug-cc-pvdz iop(5/13=1,5/36=2,99/5=2) pseudo=read geom=check guess=(re
 ad,tcheck) scf=(maxcycle=1)\\title\\0,1\C,0,-1.43706029,-1.08108344,-0
 .47428996\C,0,-0.58738481,0.15840862,-0.59540155\N,0,-0.83794306,1.275
 80121,0.12098661\O,0,-1.08224995,0.90456809,1.35810918\C,0,0.79174946,
 0.02040284,-0.7318955\C,0,1.70521196,0.82437607,0.1188889\O,0,1.242568
 31,-0.01231316,1.14647516\H,0,-2.47531605,-0.81263264,-0.284947\H,0,-1
 .38562957,-1.62581143,-1.41937686\H,0,-1.09890724,-1.75001786,0.319557

 Normal termination of Gaussian 16 at Wed Apr  9 03:46:40 2025.
