 Gaussian 16, Revision C.01,

 ----------------------------------------------------------------------
 #t hf aug-cc-pvdz symm=none int=(grid=ultrafine) guess=(read,tcheck) s
 table=(opt,rrhf)
 ----------------------------------------------------------------------
 -----
 title
 -----
 Symbolic Z-matrix:
 Charge =  0 Multiplicity = 1

 SCF Done:  E(RHF) =  -333.570005040     A.U. after   20 cycles
 Normal termination of Gaussian 16 at Wed Apr  9 03:33:07 2025.
 Gaussian 16:  ES64L-G16RevC.01  3-Jul-2019

 ----------------------------------------------------------------------
 #t hf aug-cc-pvdz iop(5/13=1,5/36=2,99/5=2) pseudo=read geom=check gue
 ss=(read,tcheck) scf=(maxcycle=1)
 ----------------------------------------------------------------------
 -----
 title
 -----
 Structure from the checkpoint file:  "Grambow2020_wb97xd3_006987_forward_mol1.chk"
 Charge =  0 Multiplicity = 1

                         Standard orientation:
 ---------------------------------------------------------------------
 Center     Atomic      Atomic             Coordinates (Angstroms)
 Number     Number       Type             X           Y           Z
 ---------------------------------------------------------------------
      1          7           0       -2.251363   -0.309492    0.266170
      2          6           0       -0.899694   -0.135842   -0.058134
      3          6           0        0.045789   -1.175594   -0.341518
      4          7           0        1.268812   -0.944186    0.006792
      5          6           0        2.155214   -0.120401    0.233313
      6          7           0        0.579881    1.764232   -0.175285
      7          7           0       -0.303669    1.044130   -0.118730
      8          1           0       -2.488953   -0.107558    1.225677
      9          1           0       -2.899366    0.129372   -0.367953
     10          1           0       -0.211482   -2.086772   -0.866116
     11          1           0        2.736322   -0.226804    1.153793
 ---------------------------------------------------------------------

 SCF Done:  E(RHF) =  -333.899240697     A.U. after    2 cycles

 The electronic state is 1-A.
 Alpha  occ. eigenvalues --  -15.65114 -15.61220 -15.55968 -15.51895 -11.31251
 Alpha  occ. eigenvalues --  -11.30401 -11.28115  -1.47328  -1.30057  -1.23450
 Alpha  occ. eigenvalues --   -1.11379  -1.02927  -0.85142  -0.76420  -0.74691
 Alpha  occ. eigenvalues --   -0.73027  -0.71449  -0.69672  -0.67537  -0.62916
 Alpha  occ. eigenvalues --   -0.57708  -0.52229  -0.48433  -0.38288  -0.30527
 Alpha virt. eigenvalues --    0.02630   0.04592   0.04988   0.05515   0.06179
 Alpha virt. eigenvalues --    0.06311   0.08313   0.09423   0.10056   0.11078
 Alpha virt. eigenvalues --    0.11234   0.12805   0.13118   0.14350   0.15156

 Mulliken charges:
               1
     1  N    0.700428
     2  C   -1.805664
     3  C   -0.216244
     4  N    0.815221
     5  C   -0.423577
     6  N    0.971369
     7  N   -0.653995
     8  H    0.263397
     9  H    0.267262
    10  H   -0.006958
    11  H    0.088760
 Sum of Mulliken charges =   0.00000

 Dipole moment (field-independent basis, Debye):
    X=             -2.6390    Y=             -1.0742    Z=              1.1483  Tot=              3.0720

 Test job not archived.
 1\1\GINC-SE174\SP\RHF\Aug-CC-pVDZ\C3H4N4\OHZDE\09-Apr-2025\0\\#t hf au
 g-cc-pvdz iop(5/13=1,5/36=2,99/5=2) pseudo=read geom=check guess=(read
 ,tcheck) scf=(maxcycle=1)\\title\\0,1\N,0,2.01319806,-0.27710826,-0.31
 225535\C,0,0.63315259,-0.03686056,-0.32172431\C,0,-0.04457031,1.046185
 18,0.32868659\N,0,-1.23640563,0.79501183,0.76123354\C,0,-2.26952279,0.
 13319452,0.65970363\N,0,-1.28278201,-1.22060962,-1.18258481\N,0,-0.245
 29207,-0.81878726,-0.92849962\H,0,2.3033108,-1.07512144,0.23261986\H,0
 ,2.4493629,-0.28001209,-1.22020564\H,0,0.37148476,2.04164873,0.4157934

 Normal termination of Gaussian 16 at Wed Apr  9 03:33:12 2025.
