 Gaussian 16, Revision C.01,

 ----------------------------------------------------------------------
 #t hf aug-cc-pvdz symm=none int=(grid=ultrafine) guess=(read,tcheck) s
 table=(opt,rrhf)
 ----------------------------------------------------------------------
 -----
 title
 -----
 Symbolic Z-matrix:
 Charge =  0 Multiplicity = 1

 SCF Done:  E(RHF) =  -231.750890790     A.U. after   12 cycles
 Normal termination of Gaussian 16 at Wed Apr  9 03:21:04 2025.
 Gaussian 16:  ES64L-G16RevC.01  3-Jul-2019

 ----------------------------------------------------------------------
 #t hf aug-cc-pvdz iop(5/13=1,5/36=2,99/5=2) pseudo=read geom=check gue
 ss=(read,tcheck) scf=(maxcycle=1)
 ----------------------------------------------------------------------
 -----
 title
 -----
 Structure from the checkpoint file:  "Grambow2020_wb97xd3_006054_forward_mol2.chk"
 Charge =  0 Multiplicity = 1

                         Standard orientation:
 ---------------------------------------------------------------------
 Center     Atomic      Atomic             Coordinates (Angstroms)
 Number     Number       Type             X           Y           Z
 ---------------------------------------------------------------------
      1          6           0       -1.388955   -0.018574    0.734824
      2          6           0       -0.773319   -0.744235   -0.419882
      3          6           0       -0.773684    0.764487   -0.381630
      4          6           0        0.773176    0.765056   -0.381129
      5          6           0        1.389156   -0.019062    0.734405
      6          6           0        0.773496   -0.744029   -0.420070
      7          1           0       -0.969867   -0.044380    1.731843
      8          1           0       -2.472411   -0.019182    0.724150
      9          1           0       -1.352992   -1.390076   -1.063460
     10          1           0       -1.353786    1.441921   -0.991463
     11          1           0        1.352786    1.443252   -0.990591
     12          1           0        2.472602   -0.017360    0.721794
     13          1           0        0.971837   -0.045601    1.732285
     14          1           0        1.352618   -1.390434   -1.063665
 ---------------------------------------------------------------------

 SCF Done:  E(RHF) =  -232.001458563     A.U. after    2 cycles

 The electronic state is 1-A.
 Alpha  occ. eigenvalues --  -11.23474 -11.23447 -11.23392 -11.23383 -11.23318
 Alpha  occ. eigenvalues --  -11.23282  -1.22330  -1.07528  -0.87575  -0.86480
 Alpha  occ. eigenvalues --   -0.76281  -0.72123  -0.72036  -0.65653  -0.61646
 Alpha  occ. eigenvalues --   -0.54055  -0.53855  -0.50033  -0.46119  -0.45082
 Alpha  occ. eigenvalues --   -0.40725  -0.32929
 Alpha virt. eigenvalues --    0.03644   0.03673   0.04161   0.04296   0.05773
 Alpha virt. eigenvalues --    0.06103   0.06181   0.09388   0.09675   0.12033
 Alpha virt. eigenvalues --    0.12734   0.14067   0.14378   0.14655   0.14686

 Mulliken charges:
               1
     1  C    0.301302
     2  C    0.207033
     3  C    0.207817
     4  C    0.206968
     5  C    0.301656
     6  C    0.207648
     7  H   -0.139645
     8  H   -0.144890
     9  H   -0.216041
    10  H   -0.215825
    11  H   -0.216191
    12  H   -0.143585
    13  H   -0.140184
    14  H   -0.216063
 Sum of Mulliken charges =   0.00000

 Dipole moment (field-independent basis, Debye):
    X=              0.0005    Y=              0.0081    Z=             -0.3365  Tot=              0.3366

 Test job not archived.
 1\1\GINC-SE115\SP\RHF\Aug-CC-pVDZ\C6H8\OHZDE\09-Apr-2025\0\\#t hf aug-
 cc-pvdz iop(5/13=1,5/36=2,99/5=2) pseudo=read geom=check guess=(read,t
 check) scf=(maxcycle=1)\\title\\0,1\C,0,1.25027978,-0.81628266,-0.4150
 7386\C,0,0.96701484,0.22917572,0.6172617\C,0,0.65557142,0.4903146,-0.8
 3618735\C,0,-0.84290411,0.64921383,-0.48676093\C,0,-1.44043843,-0.5299
 187,0.21415771\C,0,-0.53124418,0.38867004,0.96714339\H,0,0.70650657,-1
 .75014415,-0.46568626\H,0,2.30136993,-0.91755676,-0.65785632\H,0,1.751
 96936,0.66909361,1.21529571\H,0,1.16743962,1.15907226,-1.51300789\H,0,

 Normal termination of Gaussian 16 at Wed Apr  9 03:21:09 2025.
