 Gaussian 16, Revision C.01,

 ----------------------------------------------------------------------
 #t hf aug-cc-pvdz symm=none int=(grid=ultrafine) guess=(read,tcheck) s
 table=(opt,rrhf)
 ----------------------------------------------------------------------
 -----
 title
 -----
 Symbolic Z-matrix:
 Charge =  0 Multiplicity = 1

 SCF Done:  E(RHF) =  -359.682096435     A.U. after   14 cycles
 Normal termination of Gaussian 16 at Wed Apr  9 19:17:58 2025.
 Gaussian 16:  ES64L-G16RevC.01  3-Jul-2019

 ----------------------------------------------------------------------
 #t hf aug-cc-pvdz iop(5/13=1,5/36=2,99/5=2) pseudo=read geom=check gue
 ss=(read,tcheck) scf=(maxcycle=1)
 ----------------------------------------------------------------------
 -----
 title
 -----
 Structure from the checkpoint file:  "Grambow2020_wb97xd3_009259_reverse_mol2.chk"
 Charge =  0 Multiplicity = 1

                         Standard orientation:
 ---------------------------------------------------------------------
 Center     Atomic      Atomic             Coordinates (Angstroms)
 Number     Number       Type             X           Y           Z
 ---------------------------------------------------------------------
      1          6           0       -0.926422    1.699193   -0.813190
      2          6           0       -0.904109    1.158163    0.584098
      3          6           0       -0.876579   -0.075277    1.078515
      4          8           0       -0.845369   -1.313398    0.513732
      5          6           0        2.176564   -0.405490   -0.377065
      6          8           0        2.875475    0.255504    0.201671
      7          7           0       -0.979322   -1.335032   -0.897714
      8          1           0       -0.952383    0.916405   -1.563068
      9          1           0       -1.803236    2.336869   -0.954107
     10          1           0       -0.050167    2.331348   -0.986184
     11          1           0       -0.907915    1.909785    1.368147
     12          1           0       -0.850415   -0.219963    2.152944
     13          1           0       -1.583382   -2.133688   -1.056549
     14          1           0       -0.054821   -1.591911   -1.234556
 ---------------------------------------------------------------------

 SCF Done:  E(RHF) =  -360.042704675     A.U. after    2 cycles

 The electronic state is 1-A.
 Alpha  occ. eigenvalues --  -20.65312 -20.59246 -15.55478 -11.37060 -11.28869
 Alpha  occ. eigenvalues --  -11.22406 -11.21982  -1.60749  -1.51766  -1.13668
 Alpha  occ. eigenvalues --   -1.04610  -0.92524  -0.80818  -0.77604  -0.74230
 Alpha  occ. eigenvalues --   -0.70276  -0.64032  -0.63725  -0.63670  -0.60127
 Alpha  occ. eigenvalues --   -0.56957  -0.55678  -0.54809  -0.52753  -0.51113
 Alpha  occ. eigenvalues --   -0.45279  -0.33574
 Alpha virt. eigenvalues --    0.03724   0.04445   0.04664   0.05617   0.06102
 Alpha virt. eigenvalues --    0.06588   0.07399   0.09149   0.09699   0.11694
 Alpha virt. eigenvalues --    0.12539   0.12940   0.14671   0.14885   0.15508

 Mulliken charges:
               1
     1  C   -0.590407
     2  C    0.231903
     3  C    0.962468
     4  O   -1.369075
     5  C    0.499165
     6  O   -0.542385
     7  N    0.334524
     8  H    0.102835
     9  H    0.198641
    10  H    0.216728
    11  H   -0.209454
    12  H   -0.093053
    13  H    0.145141
    14  H    0.112970
 Sum of Mulliken charges =  -0.00000

 Dipole moment (field-independent basis, Debye):
    X=              0.3354    Y=             -0.8392    Z=             -0.7311  Tot=              1.1625

 Test job not archived.
 1\1\GINC-SE117\SP\RHF\Aug-CC-pVDZ\C4H7N1O2\OHZDE\09-Apr-2025\0\\#t hf
 aug-cc-pvdz iop(5/13=1,5/36=2,99/5=2) pseudo=read geom=check guess=(re
 ad,tcheck) scf=(maxcycle=1)\\title\\0,1\C,0,-1.12198465,-1.27170069,-0
 .0327043\C,0,-1.30764855,0.21161083,-0.13730802\C,0,-0.59596524,1.2472
 751,0.29568961\O,0,0.57263782,1.36214081,0.98421827\C,0,1.87269283,0.2
 041106,-1.7940399\O,0,1.50681708,0.39933701,-2.83727813\N,0,1.11984522
 ,0.13976594,1.45000324\H,0,-0.23971852,-1.542385,0.53657998\H,0,-1.992
 27666,-1.72517233,0.44921626\H,0,-1.05293682,-1.71383242,-1.03126434\H

 Normal termination of Gaussian 16 at Wed Apr  9 19:18:02 2025.
