 Gaussian 16, Revision C.01,

 ----------------------------------------------------------------------
 #t hf aug-cc-pvdz symm=none int=(grid=ultrafine) guess=(read,tcheck) s
 table=(opt,rrhf)
 ----------------------------------------------------------------------
 -----
 title
 -----
 Symbolic Z-matrix:
 Charge =  0 Multiplicity = 1

 SCF Done:  E(RHF) =  -324.920489823     A.U. after   16 cycles
 Normal termination of Gaussian 16 at Wed Apr  9 18:51:09 2025.
 Gaussian 16:  ES64L-G16RevC.01  3-Jul-2019

 ----------------------------------------------------------------------
 #t hf aug-cc-pvdz iop(5/13=1,5/36=2,99/5=2) pseudo=read geom=check gue
 ss=(read,tcheck) scf=(maxcycle=1)
 ----------------------------------------------------------------------
 -----
 title
 -----
 Structure from the checkpoint file:  "Grambow2020_wb97xd3_008124_reverse_mol1.chk"
 Charge =  0 Multiplicity = 1

                         Standard orientation:
 ---------------------------------------------------------------------
 Center     Atomic      Atomic             Coordinates (Angstroms)
 Number     Number       Type             X           Y           Z
 ---------------------------------------------------------------------
      1          6           0        2.228805    0.364266    0.548398
      2          7           0        1.334966    0.570425   -0.403667
      3          6           0        0.294459   -0.437585   -0.464555
      4          8           0        0.636506   -1.605752   -0.536424
      5          6           0       -0.900026    0.115168    0.050032
      6          6           0       -1.418666    1.494983   -0.268827
      7          6           0       -1.959541   -0.858440    0.484868
      8          1           0        0.973719    0.254250    1.791960
      9          1           0        2.845130    1.190722    0.876857
     10          1           0        2.562579   -0.650840    0.706185
     11          1           0        1.033477    1.524682   -0.522733
     12          1           0        0.160417    0.209551    1.477881
     13          1           0       -2.274933    1.417207   -0.947585
     14          1           0       -0.705365    2.161946   -0.756304
     15          1           0       -1.778028    2.002349    0.630687
     16          1           0       -2.605884   -0.416058    1.247169
     17          1           0       -2.597899   -1.136648   -0.361908
     18          1           0       -1.520209   -1.774462    0.875351
 ---------------------------------------------------------------------

 SCF Done:  E(RHF) =  -325.267629133     A.U. after    2 cycles

 The electronic state is 1-A.
 Alpha  occ. eigenvalues --  -20.48609 -15.57514 -11.35377 -11.33735 -11.24306
 Alpha  occ. eigenvalues --  -11.23604 -11.21519  -1.44170  -1.29840  -1.08129
 Alpha  occ. eigenvalues --   -0.97509  -0.94188  -0.88471  -0.81600  -0.74030
 Alpha  occ. eigenvalues --   -0.67937  -0.66539  -0.63437  -0.60737  -0.58211
 Alpha  occ. eigenvalues --   -0.56750  -0.54355  -0.53126  -0.50474  -0.50008
 Alpha  occ. eigenvalues --   -0.47627  -0.41486  -0.27808
 Alpha virt. eigenvalues --    0.02245   0.03587   0.04075   0.04818   0.05017
 Alpha virt. eigenvalues --    0.05575   0.06064   0.07354   0.07695   0.08234
 Alpha virt. eigenvalues --    0.09496   0.10170   0.11267   0.12334   0.12892

 Mulliken charges:
               1
     1  C   -0.363255
     2  N    0.610284
     3  C    0.815554
     4  O   -1.532719
     5  C   -0.526725
     6  C   -0.381226
     7  C   -0.316692
     8  H   -0.107501
     9  H    0.034475
    10  H    0.080938
    11  H    0.286485
    12  H    0.524888
    13  H    0.229811
    14  H   -0.035722
    15  H    0.205924
    16  H    0.213223
    17  H    0.184990
    18  H    0.077267
 Sum of Mulliken charges =  -0.00000

 Dipole moment (field-independent basis, Debye):
    X=              1.4946    Y=              4.5309    Z=              1.1210  Tot=              4.9010

 Test job not archived.
 1\1\GINC-SE131\SP\RHF\Aug-CC-pVDZ\C5H11N1O1\OHZDE\09-Apr-2025\0\\#t hf
  aug-cc-pvdz iop(5/13=1,5/36=2,99/5=2) pseudo=read geom=check guess=(r
 ead,tcheck) scf=(maxcycle=1)\\title\\0,1\C,0,2.38600355,0.15999283,-0.
 54258226\N,0,1.54023896,-0.66370996,0.05245902\C,0,0.56073525,0.000204
 ,0.89045444\O,0,0.96861395,0.77493595,1.73910091\C,0,-0.6900142,-0.030
 02752,0.23330793\C,0,-1.26217992,-1.2316793,-0.47606374\C,0,-1.7196172
 7,0.96079737,0.69994627\H,0,1.06731192,1.1137166,-1.23918353\H,0,2.936
 60355,-0.18793278,-1.40661911\H,0,2.76384761,0.98942041,0.0370951\H,0,

 Normal termination of Gaussian 16 at Wed Apr  9 18:51:16 2025.
