 Gaussian 16, Revision C.01,

 ----------------------------------------------------------------------
 #t hf aug-cc-pvdz symm=none int=(grid=ultrafine) guess=(read,tcheck) s
 table=(opt,rrhf)
 ----------------------------------------------------------------------
 -----
 title
 -----
 Symbolic Z-matrix:
 Charge =  0 Multiplicity = 1

 SCF Done:  E(RHF) =  -227.672751589     A.U. after   15 cycles
 Normal termination of Gaussian 16 at Wed Apr  9 16:12:35 2025.
 Gaussian 16:  ES64L-G16RevC.01  3-Jul-2019

 ----------------------------------------------------------------------
 #t hf aug-cc-pvdz iop(5/13=1,5/36=2,99/5=2) pseudo=read geom=check gue
 ss=(read,tcheck) scf=(maxcycle=1)
 ----------------------------------------------------------------------
 -----
 title
 -----
 Structure from the checkpoint file:  "Grambow2020_b97d3_007158_forward_mol1.chk"
 Charge =  0 Multiplicity = 1

                         Standard orientation:
 ---------------------------------------------------------------------
 Center     Atomic      Atomic             Coordinates (Angstroms)
 Number     Number       Type             X           Y           Z
 ---------------------------------------------------------------------
      1          6           0       -1.484382   -0.474918    0.072460
      2          8           0       -0.730183    0.696192   -0.196982
      3          6           0        1.108624    0.484118    0.121804
      4          8           0        1.607882   -0.553408   -0.074510
      5          1           0       -0.842256   -1.326320    0.369763
      6          1           0       -2.029582   -0.774736   -0.837289
      7          1           0       -2.221219   -0.294924    0.873697
      8          1           0        0.326010    1.198504    0.600180
 ---------------------------------------------------------------------

 SCF Done:  E(RHF) =  -227.899061763     A.U. after    2 cycles

 The electronic state is 1-A.
 Alpha  occ. eigenvalues --  -20.66177 -20.52351 -11.44536 -11.27285  -1.59131
 Alpha  occ. eigenvalues --   -1.39117  -0.93486  -0.84502  -0.75379  -0.66794
 Alpha  occ. eigenvalues --   -0.63562  -0.59733  -0.57904  -0.53367  -0.41976
 Alpha  occ. eigenvalues --   -0.39095
 Alpha virt. eigenvalues --    0.03892   0.04732   0.05090   0.06253   0.06812
 Alpha virt. eigenvalues --    0.09322   0.10260   0.12065   0.14443   0.14772
 Alpha virt. eigenvalues --    0.15928   0.16434   0.18293   0.19441   0.20988

 Mulliken charges:
               1
     1  C    0.334913
     2  O   -1.272232
     3  C    0.640082
     4  O   -0.637995
     5  H    0.086489
     6  H    0.063237
     7  H    0.098507
     8  H    0.686999
 Sum of Mulliken charges =  -0.00000

 Dipole moment (field-independent basis, Debye):
    X=              0.9218    Y=              0.1212    Z=              1.2897  Tot=              1.5899

 Test job not archived.
 1\1\GINC-SE097\SP\RHF\Aug-CC-pVDZ\C2H4O2\OHZDE\09-Apr-2025\0\\#t hf au
 g-cc-pvdz iop(5/13=1,5/36=2,99/5=2) pseudo=read geom=check guess=(read
 ,tcheck) scf=(maxcycle=1)\\title\\0,1\C,0,-0.98494242,-0.22695248,0.06
 040523\O,0,0.2738572,-0.67825078,0.53439532\C,0,1.70786843,0.39441338,
 -0.03201016\O,0,1.54580634,1.54345415,-0.16504653\H,0,-0.90153494,0.71
 517917,-0.51494734\H,0,-1.64892569,-0.03201692,0.91825403\H,0,-1.46206
 024,-0.98799653,-0.5802799\H,0,1.46993232,-0.72783099,-0.22077064\\Ver
 sion=ES64L-G16RevC.01\State=1-A\HF=-227.8990618\RMSD=6.696e-03\Dipole=

 Normal termination of Gaussian 16 at Wed Apr  9 16:12:37 2025.
