 Gaussian 16, Revision C.01,

 ----------------------------------------------------------------------
 #t hf aug-cc-pvdz symm=none int=(grid=ultrafine) guess=(read,tcheck) s
 table=(opt,rrhf)
 ----------------------------------------------------------------------
 -----
 title
 -----
 Symbolic Z-matrix:
 Charge =  0 Multiplicity = 1

 SCF Done:  E(RHF) =  -343.520808169     A.U. after   15 cycles
 Normal termination of Gaussian 16 at Wed Apr  9 17:32:36 2025.
 Gaussian 16:  ES64L-G16RevC.01  3-Jul-2019

 ----------------------------------------------------------------------
 #t hf aug-cc-pvdz iop(5/13=1,5/36=2,99/5=2) pseudo=read geom=check gue
 ss=(read,tcheck) scf=(maxcycle=1)
 ----------------------------------------------------------------------
 -----
 title
 -----
 Structure from the checkpoint file:  "Grambow2020_wb97xd3_006722_reverse_mol1.chk"
 Charge =  0 Multiplicity = 1

                         Standard orientation:
 ---------------------------------------------------------------------
 Center     Atomic      Atomic             Coordinates (Angstroms)
 Number     Number       Type             X           Y           Z
 ---------------------------------------------------------------------
      1          8           0       -2.671134    0.040062   -0.432293
      2          6           0       -1.327902   -0.594567    0.674776
      3          6           0       -0.292392   -0.006624   -0.077579
      4          8           0        0.428668    1.133509    0.429669
      5          6           0        1.599547    0.661894   -0.227165
      6          6           0        2.046330   -0.650480    0.313744
      7          6           0        0.934961   -0.593248   -0.713801
      8          1           0       -3.137089    0.799322   -0.058448
      9          1           0       -1.641704   -0.160308    1.617720
     10          1           0       -1.564950   -1.640264    0.530133
     11          1           0       -1.528164    0.317721   -0.768403
     12          1           0        2.228785    1.386746   -0.725152
     13          1           0        1.829632   -0.906637    1.344726
     14          1           0        2.997710   -1.005187   -0.064398
     15          1           0        0.992242   -1.081818   -1.675039
 ---------------------------------------------------------------------

 SCF Done:  E(RHF) =  -343.876699130     A.U. after    2 cycles

 The electronic state is 1-A.
 Alpha  occ. eigenvalues --  -20.54258 -20.53942 -11.33142 -11.29005 -11.26159
 Alpha  occ. eigenvalues --  -11.24422 -11.23727  -1.47324  -1.41020  -1.13223
 Alpha  occ. eigenvalues --   -1.04837  -0.87972  -0.82115  -0.75625  -0.72653
 Alpha  occ. eigenvalues --   -0.69167  -0.66645  -0.63049  -0.61568  -0.56295
 Alpha  occ. eigenvalues --   -0.53992  -0.50858  -0.49525  -0.48353  -0.45593
 Alpha  occ. eigenvalues --   -0.39089  -0.30447
 Alpha virt. eigenvalues --    0.03448   0.03629   0.04205   0.04401   0.05527
 Alpha virt. eigenvalues --    0.06125   0.06586   0.09334   0.09690   0.10589
 Alpha virt. eigenvalues --    0.12124   0.13266   0.13302   0.14159   0.14912

 Mulliken charges:
               1
     1  O   -1.087186
     2  C   -0.020505
     3  C    0.419966
     4  O   -1.528755
     5  C    1.263683
     6  C    0.083501
     7  C    0.181788
     8  H    0.378297
     9  H    0.011293
    10  H   -0.003460
    11  H    0.904389
    12  H   -0.134219
    13  H   -0.135630
    14  H   -0.096832
    15  H   -0.236331
 Sum of Mulliken charges =  -0.00000

 Dipole moment (field-independent basis, Debye):
    X=              0.3549    Y=             -1.1385    Z=              0.8730  Tot=              1.4779

 Test job not archived.
 1\1\GINC-SE112\SP\RHF\Aug-CC-pVDZ\C5H8O2\OHZDE\09-Apr-2025\0\\#t hf au
 g-cc-pvdz iop(5/13=1,5/36=2,99/5=2) pseudo=read geom=check guess=(read
 ,tcheck) scf=(maxcycle=1)\\title\\0,1\O,0,2.50726369,-0.26598032,1.160
 0912\C,0,1.54213534,0.29542341,-0.31841512\C,0,0.2919375,0.0096855,0.2
 6412636\O,0,-0.58012492,1.07432404,0.69212387\C,0,-1.70162008,0.270412
 58,0.34458787\C,0,-1.7419847,-0.02136307,-1.11409694\C,0,-0.85404009,-
 0.84185364,-0.20162048\H,0,2.84048288,0.46916189,1.69101474\H,0,1.8956
 6996,1.31780337,-0.39554702\H,0,1.98640022,-0.41467652,-1.00323774\H,0

 Normal termination of Gaussian 16 at Wed Apr  9 17:32:41 2025.
