 Gaussian 16, Revision C.01,

 ----------------------------------------------------------------------
 #t hf aug-cc-pvdz symm=none int=(grid=ultrafine) guess=(read,tcheck) s
 table=(opt,rrhf)
 ----------------------------------------------------------------------
 -----
 title
 -----
 Symbolic Z-matrix:
 Charge =  0 Multiplicity = 1

 SCF Done:  E(RHF) =  -343.647747979     A.U. after   14 cycles
 Normal termination of Gaussian 16 at Wed Apr  9 18:14:11 2025.
 Gaussian 16:  ES64L-G16RevC.01  3-Jul-2019

 ----------------------------------------------------------------------
 #t hf aug-cc-pvdz iop(5/13=1,5/36=2,99/5=2) pseudo=read geom=check gue
 ss=(read,tcheck) scf=(maxcycle=1)
 ----------------------------------------------------------------------
 -----
 title
 -----
 Structure from the checkpoint file:  "Grambow2020_wb97xd3_007221_reverse_mol2.chk"
 Charge =  0 Multiplicity = 1

                         Standard orientation:
 ---------------------------------------------------------------------
 Center     Atomic      Atomic             Coordinates (Angstroms)
 Number     Number       Type             X           Y           Z
 ---------------------------------------------------------------------
      1          8           0        2.538464   -0.025903    0.009370
      2          6           0        1.852446   -1.113117   -0.063990
      3          6           0       -1.318311    0.041496   -1.082949
      4          6           0       -1.816554   -0.958837   -0.009094
      5          6           0       -1.234496   -0.056449    1.108101
      6          6           0       -0.517197    0.713794    0.015605
      7          8           0        0.370861    1.528960    0.017037
      8          1           0        1.912482    0.735606    0.034027
      9          1           0       -0.741435   -0.342262   -1.922338
     10          1           0        2.623311   -1.915668   -0.085944
     11          1           0       -2.100971    0.708316   -1.453511
     12          1           0       -2.889986   -1.131744    0.025757
     13          1           0       -1.287972   -1.907164   -0.072314
     14          1           0       -0.599842   -0.508556    1.867693
     15          1           0       -1.985516    0.575686    1.589344
 ---------------------------------------------------------------------

 SCF Done:  E(RHF) =  -343.997180032     A.U. after    2 cycles

 The electronic state is 1-A.
 Alpha  occ. eigenvalues --  -20.60405 -20.54884 -11.35367 -11.30199 -11.24837
 Alpha  occ. eigenvalues --  -11.24834 -11.24579  -1.53022  -1.48788  -1.15265
 Alpha  occ. eigenvalues --   -0.93978  -0.88737  -0.87161  -0.74087  -0.69994
 Alpha  occ. eigenvalues --   -0.68456  -0.66068  -0.63265  -0.62774  -0.57383
 Alpha  occ. eigenvalues --   -0.56560  -0.54829  -0.51572  -0.49539  -0.48779
 Alpha  occ. eigenvalues --   -0.41055  -0.36423
 Alpha virt. eigenvalues --    0.03255   0.03924   0.04092   0.04560   0.06122
 Alpha virt. eigenvalues --    0.06249   0.06870   0.07543   0.10080   0.10988
 Alpha virt. eigenvalues --    0.11718   0.11794   0.13529   0.13923   0.14012

 Mulliken charges:
               1
     1  O   -1.062511
     2  C    0.237221
     3  C   -0.241208
     4  C   -0.029245
     5  C   -0.239598
     6  C    1.466815
     7  O   -1.542189
     8  H    0.678566
     9  H    0.069678
    10  H    0.093804
    11  H    0.185030
    12  H    0.020292
    13  H    0.112882
    14  H    0.064899
    15  H    0.185564
 Sum of Mulliken charges =  -0.00000

 Dipole moment (field-independent basis, Debye):
    X=             -2.2956    Y=             -1.0734    Z=              0.0644  Tot=              2.5350

 Test job not archived.
 1\1\GINC-SE454\SP\RHF\Aug-CC-pVDZ\C5H8O2\OHZDE\09-Apr-2025\0\\#t hf au
 g-cc-pvdz iop(5/13=1,5/36=2,99/5=2) pseudo=read geom=check guess=(read
 ,tcheck) scf=(maxcycle=1)\\title\\0,1\O,0,2.53811434,-1.18635273,-0.68
 231353\C,0,2.21620471,0.05318812,-0.81628833\C,0,-0.6479675,0.3318101,
 1.2193925\C,0,-1.1871199,1.15172867,0.01975611\C,0,-1.24546503,-0.1361
 074,-0.84006583\C,0,-0.44126832,-0.81723384,0.2511141\O,0,0.15798952,-
 1.86120853,0.31555363\H,0,1.76303102,-1.67055325,-0.31197185\H,0,0.244
 92794,0.68601589,1.73115938\H,0,3.13313637,0.52458851,-1.23560058\H,0,

 Normal termination of Gaussian 16 at Wed Apr  9 18:14:16 2025.
