 Gaussian 16, Revision C.01,

 ----------------------------------------------------------------------
 #t hf aug-cc-pvdz symm=none int=(grid=ultrafine) guess=(read,tcheck) s
 table=(opt,rrhf)
 ----------------------------------------------------------------------
 -----
 title
 -----
 Symbolic Z-matrix:
 Charge =  0 Multiplicity = 1

 SCF Done:  E(RHF) =  -315.578051650     A.U. after   16 cycles
 Normal termination of Gaussian 16 at Wed Apr  9 15:42:36 2025.
 Gaussian 16:  ES64L-G16RevC.01  3-Jul-2019

 ----------------------------------------------------------------------
 #t hf aug-cc-pvdz iop(5/13=1,5/36=2,99/5=2) pseudo=read geom=check gue
 ss=(read,tcheck) scf=(maxcycle=1)
 ----------------------------------------------------------------------
 -----
 title
 -----
 Structure from the checkpoint file:  "Grambow2020_b97d3_006679_forward_mol1.chk"
 Charge =  0 Multiplicity = 1

                         Standard orientation:
 ---------------------------------------------------------------------
 Center     Atomic      Atomic             Coordinates (Angstroms)
 Number     Number       Type             X           Y           Z
 ---------------------------------------------------------------------
      1          8           0       -2.022001    0.126578    0.026421
      2          6           0       -0.676385    0.031602   -0.013871
      3          7           0       -0.013493   -1.134582   -0.083250
      4          7           0        1.469738   -0.660444   -0.067037
      5          7           0        1.469790    0.651096    0.030864
      6          6           0        0.216858    1.119368   -0.009696
      7          1           0       -2.385120   -0.780276   -0.025038
      8          1           0        0.852820   -1.309062    0.806743
      9          1           0       -0.016780    2.178404   -0.015714
 ---------------------------------------------------------------------

 SCF Done:  E(RHF) =  -315.889473369     A.U. after    2 cycles

 The electronic state is 1-A.
 Alpha  occ. eigenvalues --  -20.62572 -15.60597 -15.58214 -15.57724 -11.37627
 Alpha  occ. eigenvalues --  -11.29482  -1.54073  -1.41171  -1.21534  -1.10944
 Alpha  occ. eigenvalues --   -0.90272  -0.88894  -0.77422  -0.71970  -0.70115
 Alpha  occ. eigenvalues --   -0.64705  -0.60750  -0.58231  -0.57183  -0.50133
 Alpha  occ. eigenvalues --   -0.48725  -0.40441
 Alpha virt. eigenvalues --    0.03014   0.04158   0.05643   0.05825   0.09146
 Alpha virt. eigenvalues --    0.10253   0.10748   0.11041   0.11294   0.13737
 Alpha virt. eigenvalues --    0.14516   0.14944   0.16046   0.17567   0.18861

 Mulliken charges:
               1
     1  O   -1.326915
     2  C    0.572876
     3  N    0.398622
     4  N   -0.560519
     5  N    0.252746
     6  C    0.063870
     7  H    0.327006
     8  H    0.310206
     9  H   -0.037892
 Sum of Mulliken charges =  -0.00000

 Dipole moment (field-independent basis, Debye):
    X=             -3.4625    Y=              0.4191    Z=              1.1624  Tot=              3.6764

 Test job not archived.
 1\1\GINC-SE138\SP\RHF\Aug-CC-pVDZ\C2H3N3O1\OHZDE\09-Apr-2025\0\\#t hf
 aug-cc-pvdz iop(5/13=1,5/36=2,99/5=2) pseudo=read geom=check guess=(re
 ad,tcheck) scf=(maxcycle=1)\\title\\0,1\O,0,-1.8897548,-0.24368061,-0.
 14132765\C,0,-0.54772301,-0.10574331,-0.10597461\N,0,0.30241769,-1.131
 28323,0.06651527\N,0,1.68138548,-0.40778785,0.05969372\N,0,1.45704486,
 0.88026481,-0.08282973\C,0,0.1502934,1.10656691,-0.26157847\H,0,-2.092
 90304,-1.19543206,-0.04238801\H,0,1.11780661,-0.99488648,1.00968268\H,
 0,-0.25440821,2.09087081,-0.4702452\\Version=ES64L-G16RevC.01\State=1-

 Normal termination of Gaussian 16 at Wed Apr  9 15:42:39 2025.
