 Gaussian 16, Revision C.01,

 ----------------------------------------------------------------------
 #t hf aug-cc-pvdz symm=none int=(grid=ultrafine) guess=(read,tcheck) s
 table=(opt,rrhf)
 ----------------------------------------------------------------------
 -----
 title
 -----
 Symbolic Z-matrix:
 Charge =  0 Multiplicity = 1

 SCF Done:  E(RHF) =  -283.468239382     A.U. after   15 cycles
 Normal termination of Gaussian 16 at Wed Apr  9 17:04:14 2025.
 Gaussian 16:  ES64L-G16RevC.01  3-Jul-2019

 ----------------------------------------------------------------------
 #t hf aug-cc-pvdz iop(5/13=1,5/36=2,99/5=2) pseudo=read geom=check gue
 ss=(read,tcheck) scf=(maxcycle=1)
 ----------------------------------------------------------------------
 -----
 title
 -----
 Structure from the checkpoint file:  "Grambow2020_wb97xd3_006232_forward_mol1.chk"
 Charge =  0 Multiplicity = 1

                         Standard orientation:
 ---------------------------------------------------------------------
 Center     Atomic      Atomic             Coordinates (Angstroms)
 Number     Number       Type             X           Y           Z
 ---------------------------------------------------------------------
      1          8           0       -1.115305   -1.090408    0.293278
      2          6           0       -0.399764   -0.308541   -0.463588
      3          6           0       -0.757164    1.078482   -0.455099
      4          6           0        0.073607    0.765620    0.862333
      5          6           0        1.258325    0.159793    0.523721
      6          7           0        1.032830   -0.552560   -0.672562
      7          1           0       -1.796984    1.301853   -0.263807
      8          1           0       -0.236242    1.773526   -1.104021
      9          1           0       -0.812312   -0.290217    1.266212
     10          1           0        2.053294   -0.115374    1.208952
     11          1           0        1.434851   -0.250722   -1.549828
 ---------------------------------------------------------------------

 SCF Done:  E(RHF) =  -283.756717594     A.U. after    2 cycles

 The electronic state is 1-A.
 Alpha  occ. eigenvalues --  -20.54000 -15.54242 -11.38687 -11.30907 -11.28533
 Alpha  occ. eigenvalues --  -11.26116  -1.48315  -1.29519  -1.10058  -0.98117
 Alpha  occ. eigenvalues --   -0.83834  -0.77701  -0.72003  -0.71128  -0.67510
 Alpha  occ. eigenvalues --   -0.62134  -0.59147  -0.54744  -0.50200  -0.46380
 Alpha  occ. eigenvalues --   -0.39033  -0.33991
 Alpha virt. eigenvalues --    0.02784   0.04194   0.04731   0.05161   0.06670
 Alpha virt. eigenvalues --    0.07324   0.07336   0.09570   0.10569   0.11435
 Alpha virt. eigenvalues --    0.12178   0.13834   0.14254   0.15312   0.15691

 Mulliken charges:
               1
     1  O   -1.470051
     2  C    0.557439
     3  C    0.295201
     4  C   -0.757972
     5  C    0.098882
     6  N    0.402556
     7  H   -0.000332
     8  H   -0.048792
     9  H    0.717969
    10  H   -0.078086
    11  H    0.283186
 Sum of Mulliken charges =   0.00000

 Dipole moment (field-independent basis, Debye):
    X=              1.4519    Y=              2.2655    Z=             -2.0375  Tot=              3.3752

 Test job not archived.
 1\1\GINC-SE226\SP\RHF\Aug-CC-pVDZ\C4H5N1O1\OHZDE\09-Apr-2025\0\\#t hf
 aug-cc-pvdz iop(5/13=1,5/36=2,99/5=2) pseudo=read geom=check guess=(re
 ad,tcheck) scf=(maxcycle=1)\\title\\0,1\O,0,-0.38551738,0.72003705,-1.
 59179193\C,0,-0.41326645,0.69312093,-0.28999858\C,0,-1.19707739,-0.348
 57129,0.30342948\C,0,0.18352869,-0.97033468,-0.17722327\C,0,1.22170409
 ,-0.23854441,0.34423142\N,0,0.75740591,1.08351465,0.50540164\H,0,-2.04
 561836,-0.69271681,-0.27037758\H,0,-1.30570328,-0.39428173,1.38123126\
 H,0,0.01168937,-0.51153956,-1.52731274\H,0,2.27792007,-0.46171149,0.23

 Normal termination of Gaussian 16 at Wed Apr  9 17:04:21 2025.
