 Gaussian 16, Revision C.01,

 ----------------------------------------------------------------------
 #t hf aug-cc-pvdz symm=none int=(grid=ultrafine) guess=(read,tcheck) s
 table=(opt,rrhf)
 ----------------------------------------------------------------------
 -----
 title
 -----
 Symbolic Z-matrix:
 Charge =  0 Multiplicity = 1

 SCF Done:  E(RHF) =  -269.768794057     A.U. after   14 cycles
 Normal termination of Gaussian 16 at Wed Apr  9 18:52:45 2025.
 Gaussian 16:  ES64L-G16RevC.01  3-Jul-2019

 ----------------------------------------------------------------------
 #t hf aug-cc-pvdz iop(5/13=1,5/36=2,99/5=2) pseudo=read geom=check gue
 ss=(read,tcheck) scf=(maxcycle=1)
 ----------------------------------------------------------------------
 -----
 title
 -----
 Structure from the checkpoint file:  "Grambow2020_wb97xd3_008150_reverse_mol2.chk"
 Charge =  0 Multiplicity = 1

                         Standard orientation:
 ---------------------------------------------------------------------
 Center     Atomic      Atomic             Coordinates (Angstroms)
 Number     Number       Type             X           Y           Z
 ---------------------------------------------------------------------
      1          6           0       -2.411675    0.000728    0.008241
      2          6           0       -0.907512    0.001999   -0.010571
      3          6           0        1.892739   -0.001321    0.007350
      4          6           0        1.191578   -1.198145    0.001661
      5          6           0        1.195045    1.196217    0.002125
      6          6           0       -0.192028    1.194904   -0.007463
      7          6           0       -0.194350   -1.193430   -0.008042
      8          1           0       -2.786797   -0.122996    1.027461
      9          1           0       -2.812953    0.937111   -0.380420
     10          1           0       -2.815437   -0.816648   -0.591029
     11          1           0        2.976138   -0.002524    0.011361
     12          1           0        1.727018   -2.140422    0.002697
     13          1           0        1.731703    2.137712    0.000821
     14          1           0       -0.729325    2.137320   -0.016043
     15          1           0       -0.733125   -2.135262   -0.014660
 ---------------------------------------------------------------------

 SCF Done:  E(RHF) =  -270.054656596     A.U. after    2 cycles

 The electronic state is 1-A.
 Alpha  occ. eigenvalues --  -11.24397 -11.23843 -11.23816 -11.23424 -11.23338
 Alpha  occ. eigenvalues --  -11.23333 -11.23290  -1.15769  -1.04716  -1.01427
 Alpha  occ. eigenvalues --   -0.93683  -0.83358  -0.80739  -0.70637  -0.65120
 Alpha  occ. eigenvalues --   -0.63704  -0.59553  -0.58351  -0.57998  -0.54774
 Alpha  occ. eigenvalues --   -0.49911  -0.49850  -0.49553  -0.34404  -0.33384
 Alpha virt. eigenvalues --    0.03599   0.03714   0.03762   0.05061   0.05269
 Alpha virt. eigenvalues --    0.05318   0.07767   0.08763   0.10431   0.10644
 Alpha virt. eigenvalues --    0.11341   0.12870   0.13424   0.14034   0.14399

 Mulliken charges:
               1
     1  C   -0.823439
     2  C    0.619285
     3  C   -0.017105
     4  C    0.074268
     5  C    0.076260
     6  C    0.405326
     7  C    0.396467
     8  H    0.267481
     9  H    0.089178
    10  H    0.140147
    11  H   -0.215411
    12  H   -0.234587
    13  H   -0.234382
    14  H   -0.269848
    15  H   -0.273638
 Sum of Mulliken charges =  -0.00000

 Dipole moment (field-independent basis, Debye):
    X=             -0.3886    Y=             -0.0119    Z=              0.0275  Tot=              0.3897

 Test job not archived.
 1\1\GINC-SE035\SP\RHF\Aug-CC-pVDZ\C7H8\OHZDE\09-Apr-2025\0\\#t hf aug-
 cc-pvdz iop(5/13=1,5/36=2,99/5=2) pseudo=read geom=check guess=(read,t
 check) scf=(maxcycle=1)\\title\\0,1\C,0,2.04006568,0.8550346,0.1948917
 5\C,0,0.66214882,0.26608303,0.06319036\C,0,-1.92354898,-0.78124744,-0.
 17970783\C,0,-1.24923669,-0.31547452,-1.29881789\C,0,-1.30540167,-0.72
 545083,1.05951812\C,0,-0.02426277,-0.20680857,1.17681573\C,0,0.0307593
 6,0.20159836,-1.1756983\H,0,1.99163462,1.94526003,0.25730038\H,0,2.540
 20596,0.49423606,1.09410189\H,0,2.66311555,0.60335647,-0.66459543\H,0,

 Normal termination of Gaussian 16 at Wed Apr  9 18:52:50 2025.
