 Gaussian 16, Revision C.01,

 ----------------------------------------------------------------------
 #t hf aug-cc-pvdz symm=none int=(grid=ultrafine) guess=(read,tcheck) s
 table=(opt,rrhf)
 ----------------------------------------------------------------------
 -----
 title
 -----
 Symbolic Z-matrix:
 Charge =  0 Multiplicity = 1

 SCF Done:  E(RHF) =  -224.824385798     A.U. after   15 cycles
 Normal termination of Gaussian 16 at Wed Apr  9 15:55:35 2025.
 Gaussian 16:  ES64L-G16RevC.01  3-Jul-2019

 ----------------------------------------------------------------------
 #t hf aug-cc-pvdz iop(5/13=1,5/36=2,99/5=2) pseudo=read geom=check gue
 ss=(read,tcheck) scf=(maxcycle=1)
 ----------------------------------------------------------------------
 -----
 title
 -----
 Structure from the checkpoint file:  "Grambow2020_b97d3_006882_forward_mol2.chk"
 Charge =  0 Multiplicity = 1

                         Standard orientation:
 ---------------------------------------------------------------------
 Center     Atomic      Atomic             Coordinates (Angstroms)
 Number     Number       Type             X           Y           Z
 ---------------------------------------------------------------------
      1          7           0        1.011652   -0.400927    0.000015
      2          6           0        0.697047    0.927778    0.000014
      3          6           0       -0.690403    0.989131   -0.000007
      4          6           0       -1.107900   -0.365624   -0.000031
      5          7           0       -0.065285   -1.213209   -0.000036
      6          1           0        1.934898   -0.818909    0.000175
      7          1           0        1.462811    1.695025   -0.000173
      8          1           0       -1.299990    1.883604    0.000106
      9          1           0       -2.114748   -0.768481    0.000174
 ---------------------------------------------------------------------

 SCF Done:  E(RHF) =  -225.054434278     A.U. after    2 cycles

 The electronic state is 1-A.
 Alpha  occ. eigenvalues --  -15.58213 -15.53006 -11.28923 -11.26310 -11.23488
 Alpha  occ. eigenvalues --   -1.36569  -1.10953  -1.06138  -0.84724  -0.83335
 Alpha  occ. eigenvalues --   -0.76675  -0.64043  -0.64035  -0.61364  -0.57948
 Alpha  occ. eigenvalues --   -0.50604  -0.39294  -0.36932
 Alpha virt. eigenvalues --    0.03096   0.04311   0.04546   0.05841   0.09636
 Alpha virt. eigenvalues --    0.09972   0.11578   0.11593   0.12482   0.13554
 Alpha virt. eigenvalues --    0.14248   0.15338   0.15425   0.16320   0.17237

 Mulliken charges:
               1
     1  N    0.304634
     2  C   -0.268648
     3  C    0.593418
     4  C   -0.281567
     5  N   -0.021202
     6  H    0.047608
     7  H   -0.169953
     8  H   -0.093061
     9  H   -0.111228
 Sum of Mulliken charges =  -0.00000

 Dipole moment (field-independent basis, Debye):
    X=              1.1337    Y=              2.4535    Z=              0.0004  Tot=              2.7028

 Test job not archived.
 1\1\GINC-SE087\SP\RHF\Aug-CC-pVDZ\C3H4N2\OHZDE\09-Apr-2025\0\\#t hf au
 g-cc-pvdz iop(5/13=1,5/36=2,99/5=2) pseudo=read geom=check guess=(read
 ,tcheck) scf=(maxcycle=1)\\title\\0,1\N,0,-1.03268224,-0.61192682,0.00
 543191\C,0,-0.71389904,0.71568442,-0.0106985\C,0,0.6737341,0.77270715,
 -0.00824527\C,0,1.08696516,-0.58323346,0.00993487\N,0,0.04169136,-1.42
 749519,0.01828197\H,0,-1.95723534,-1.0269968,0.00843947\H,0,-1.4772434
 3,1.48525528,-0.02201885\H,0,1.28613119,1.66520219,-0.01829738\H,0,2.0
 9253824,-0.98919676,0.01717178\\Version=ES64L-G16RevC.01\State=1-A\HF=

 Normal termination of Gaussian 16 at Wed Apr  9 15:55:38 2025.
