 Gaussian 16, Revision C.01,

 ----------------------------------------------------------------------
 #t hf aug-cc-pvdz symm=none int=(grid=ultrafine) guess=(read,tcheck) s
 table=(opt,rrhf)
 ----------------------------------------------------------------------
 -----
 title
 -----
 Symbolic Z-matrix:
 Charge =  0 Multiplicity = 1

 SCF Done:  E(RHF) =  -331.637176038     A.U. after   17 cycles
 Normal termination of Gaussian 16 at Wed Apr  9 03:15:46 2025.
 Gaussian 16:  ES64L-G16RevC.01  3-Jul-2019

 ----------------------------------------------------------------------
 #t hf aug-cc-pvdz iop(5/13=1,5/36=2,99/5=2) pseudo=read geom=check gue
 ss=(read,tcheck) scf=(maxcycle=1)
 ----------------------------------------------------------------------
 -----
 title
 -----
 Structure from the checkpoint file:  "Grambow2020_b97d3_006978_reverse_mol2.chk"
 Charge =  0 Multiplicity = 1

                         Standard orientation:
 ---------------------------------------------------------------------
 Center     Atomic      Atomic             Coordinates (Angstroms)
 Number     Number       Type             X           Y           Z
 ---------------------------------------------------------------------
      1          7           0        2.135929   -0.782594   -0.121491
      2          6           0        1.613970    0.455712   -0.001366
      3          7           0        1.157687    1.539051    0.037606
      4          8           0       -2.327435    0.664196   -0.036895
      5          7           0       -1.642723   -0.304715    0.010722
      6          7           0       -0.992921   -1.246231    0.057143
      7          1           0        1.423731   -1.512925   -0.101850
      8          1           0        2.906125   -0.973492    0.517343
 ---------------------------------------------------------------------

 SCF Done:  E(RHF) =  -331.951019692     A.U. after    2 cycles

 The electronic state is 1-A.
 Alpha  occ. eigenvalues --  -20.65372 -15.79750 -15.64698 -15.57816 -15.51498
 Alpha  occ. eigenvalues --  -11.32445  -1.67572  -1.47351  -1.28298  -1.20372
 Alpha  occ. eigenvalues --   -0.87192  -0.83403  -0.80347  -0.80158  -0.78101
 Alpha  occ. eigenvalues --   -0.74978  -0.61781  -0.60566  -0.51629  -0.51547
 Alpha  occ. eigenvalues --   -0.50006  -0.46335
 Alpha virt. eigenvalues --    0.02070   0.05155   0.07782   0.08068   0.08556
 Alpha virt. eigenvalues --    0.10481   0.10834   0.11985   0.12390   0.14071
 Alpha virt. eigenvalues --    0.15126   0.15801   0.16880   0.17518   0.18141

 Mulliken charges:
               1
     1  N    0.351735
     2  C   -1.256779
     3  N    0.505622
     4  O   -0.785857
     5  N   -0.024844
     6  N    0.798793
     7  H    0.215735
     8  H    0.195596
 Sum of Mulliken charges =  -0.00000

 Dipole moment (field-independent basis, Debye):
    X=              1.1381    Y=             -4.3357    Z=              0.9247  Tot=              4.5770

 Test job not archived.
 1\1\GINC-SE423\SP\RHF\Aug-CC-pVDZ\C1H2N4O1\OHZDE\09-Apr-2025\0\\#t hf
 aug-cc-pvdz iop(5/13=1,5/36=2,99/5=2) pseudo=read geom=check guess=(re
 ad,tcheck) scf=(maxcycle=1)\\title\\0,1\N,0,1.65633807,0.17856426,-0.2
 9777349\C,0,0.61127654,0.96768493,-0.62243791\N,0,-0.30269609,1.624673
 07,-0.96354825\O,0,-2.96099956,-0.49678837,0.19826929\N,0,-1.89975254,
 -0.92993317,0.50814919\N,0,-0.88221576,-1.35708629,0.81312293\H,0,1.37
 369257,-0.65630275,0.21613568\H,0,2.42542176,0.67103833,0.15359455\\Ve
 rsion=ES64L-G16RevC.01\State=1-A\HF=-331.9510197\RMSD=4.094e-02\Dipole

 Normal termination of Gaussian 16 at Wed Apr  9 03:15:49 2025.
