 Gaussian 16, Revision C.01,

 ----------------------------------------------------------------------
 #t hf aug-cc-pvdz symm=none int=(grid=ultrafine) guess=(read,tcheck) s
 table=(opt,rrhf)
 ----------------------------------------------------------------------
 -----
 title
 -----
 Symbolic Z-matrix:
 Charge =  0 Multiplicity = 1

 SCF Done:  E(RHF) =  -272.077128880     A.U. after   13 cycles
 Normal termination of Gaussian 16 at Wed Apr  9 03:40:51 2025.
 Gaussian 16:  ES64L-G16RevC.01  3-Jul-2019

 ----------------------------------------------------------------------
 #t hf aug-cc-pvdz iop(5/13=1,5/36=2,99/5=2) pseudo=read geom=check gue
 ss=(read,tcheck) scf=(maxcycle=1)
 ----------------------------------------------------------------------
 -----
 title
 -----
 Structure from the checkpoint file:  "Grambow2020_wb97xd3_007446_reverse_mol2.chk"
 Charge =  0 Multiplicity = 1

                         Standard orientation:
 ---------------------------------------------------------------------
 Center     Atomic      Atomic             Coordinates (Angstroms)
 Number     Number       Type             X           Y           Z
 ---------------------------------------------------------------------
      1          6           0       -2.689324   -0.355877    0.027099
      2          6           0       -1.554928    0.606330   -0.300373
      3          6           0       -0.242717    0.254015    0.396359
      4          6           0        0.362526   -1.099717   -0.034007
      5          6           0        1.889324   -0.900531   -0.037604
      6          6           0        2.031234    0.595434   -0.129148
      7          6           0        0.884399    1.214777    0.109777
      8          1           0       -3.616362   -0.057863   -0.465773
      9          1           0       -2.878959   -0.386199    1.103331
     10          1           0       -2.456479   -1.373386   -0.295135
     11          1           0       -1.383112    0.626977   -1.382400
     12          1           0       -1.847052    1.622747   -0.016885
     13          1           0       -0.430753    0.250211    1.480013
     14          1           0        0.027852   -1.324747   -1.051380
     15          1           0        0.045956   -1.927975    0.600733
     16          1           0        2.350864   -1.270123    0.885055
     17          1           0        2.975895    1.088582   -0.325055
     18          1           0        2.377862   -1.425478   -0.861709
     19          1           0        0.751204    2.290669    0.136590
 ---------------------------------------------------------------------

 SCF Done:  E(RHF) =  -272.377113625     A.U. after    2 cycles

 The electronic state is 1-A.
 Alpha  occ. eigenvalues --  -11.22812 -11.22666 -11.22519 -11.22322 -11.22237
 Alpha  occ. eigenvalues --  -11.22212 -11.21982  -1.14148  -1.04310  -0.96408
 Alpha  occ. eigenvalues --   -0.94057  -0.83985  -0.77078  -0.72783  -0.68225
 Alpha  occ. eigenvalues --   -0.64062  -0.60774  -0.58466  -0.55233  -0.52653
 Alpha  occ. eigenvalues --   -0.52306  -0.50059  -0.48961  -0.47712  -0.47099
 Alpha  occ. eigenvalues --   -0.45774  -0.34801
 Alpha virt. eigenvalues --    0.03580   0.03720   0.03787   0.04060   0.05429
 Alpha virt. eigenvalues --    0.05766   0.06123   0.06510   0.07403   0.08599
 Alpha virt. eigenvalues --    0.09121   0.09653   0.12452   0.13334   0.14124

 Mulliken charges:
               1
     1  C   -0.362302
     2  C   -0.314510
     3  C   -0.566216
     4  C   -0.197028
     5  C   -0.516367
     6  C    0.187737
     7  C    0.629876
     8  H    0.115042
     9  H    0.174793
    10  H    0.173093
    11  H    0.196854
    12  H    0.076583
    13  H    0.139048
    14  H    0.077816
    15  H    0.120527
    16  H    0.198055
    17  H   -0.110208
    18  H    0.165426
    19  H   -0.188219
 Sum of Mulliken charges =  -0.00000

 Dipole moment (field-independent basis, Debye):
    X=             -0.0773    Y=             -0.1504    Z=              0.1166  Tot=              0.2054

 Test job not archived.
 1\1\GINC-SE120\SP\RHF\Aug-CC-pVDZ\C7H12\OHZDE\09-Apr-2025\0\\#t hf aug
 -cc-pvdz iop(5/13=1,5/36=2,99/5=2) pseudo=read geom=check guess=(read,
 tcheck) scf=(maxcycle=1)\\title\\0,1\C,0,2.44945058,0.4136937,-0.44431
 864\C,0,1.28437822,-0.53286157,-0.70234\C,0,0.15638045,-0.39592325,0.3
 176243\C,0,-0.54902151,0.97753288,0.30539401\C,0,-2.03493989,0.6945508
 8,0.5930866\C,0,-2.17239761,-0.7624521,0.23998731\C,0,-0.9924716,-1.34
 840711,0.0974023\H,0,3.24690203,0.26893833,-1.17524419\H,0,2.87456459,
 0.24996703,0.54947616\H,0,2.13595047,1.4586561,-0.50040796\H,0,0.87519

 Normal termination of Gaussian 16 at Wed Apr  9 03:40:59 2025.
