 Gaussian 16, Revision C.01,

 ----------------------------------------------------------------------
 #t hf aug-cc-pvdz symm=none int=(grid=ultrafine) guess=(read,tcheck) s
 table=(opt,rrhf)
 ----------------------------------------------------------------------
 -----
 title
 -----
 Symbolic Z-matrix:
 Charge =  0 Multiplicity = 1

 SCF Done:  E(RHF) =  -271.890971703     A.U. after   15 cycles
 Normal termination of Gaussian 16 at Wed Apr  9 03:40:24 2025.
 Gaussian 16:  ES64L-G16RevC.01  3-Jul-2019

 ----------------------------------------------------------------------
 #t hf aug-cc-pvdz iop(5/13=1,5/36=2,99/5=2) pseudo=read geom=check gue
 ss=(read,tcheck) scf=(maxcycle=1)
 ----------------------------------------------------------------------
 -----
 title
 -----
 Structure from the checkpoint file:  "Grambow2020_wb97xd3_007431_reverse_mol1.chk"
 Charge =  0 Multiplicity = 1

                         Standard orientation:
 ---------------------------------------------------------------------
 Center     Atomic      Atomic             Coordinates (Angstroms)
 Number     Number       Type             X           Y           Z
 ---------------------------------------------------------------------
      1          6           0        2.720903    0.005430   -0.188349
      2          6           0        1.386296   -0.708561   -0.026761
      3          6           0        0.317536    0.216324    0.540150
      4          6           0       -0.055814    1.389826   -0.371854
      5          6           0       -1.969357    0.502395   -0.162429
      6          6           0       -1.762912   -0.939023   -0.486398
      7          6           0       -1.072860   -0.360106    0.701799
      8          1           0        3.472426   -0.642538   -0.642227
      9          1           0        3.109472    0.342657    0.776455
     10          1           0        2.605069    0.883822   -0.828755
     11          1           0        1.054913   -1.080552   -1.000307
     12          1           0        1.496985   -1.581067    0.626146
     13          1           0        0.654110    0.581984    1.516628
     14          1           0       -1.338577    1.119794   -0.933653
     15          1           0       -0.324617    2.243912    0.266397
     16          1           0       -2.898650    0.953422    0.151970
     17          1           0       -2.596111   -1.595168   -0.271341
     18          1           0       -1.199409   -1.190299   -1.376506
     19          1           0       -1.418368   -0.673672    1.678239
 ---------------------------------------------------------------------

 SCF Done:  E(RHF) =  -272.187388959     A.U. after    2 cycles

 The electronic state is 1-A.
 Alpha  occ. eigenvalues --  -11.25730 -11.25444 -11.25245 -11.24586 -11.23566
 Alpha  occ. eigenvalues --  -11.21901 -11.21453  -1.19255  -1.06210  -0.97249
 Alpha  occ. eigenvalues --   -0.89253  -0.83258  -0.80824  -0.72396  -0.70027
 Alpha  occ. eigenvalues --   -0.65280  -0.62571  -0.58800  -0.55945  -0.54230
 Alpha  occ. eigenvalues --   -0.53137  -0.50806  -0.48474  -0.47174  -0.43347
 Alpha  occ. eigenvalues --   -0.41848  -0.32698
 Alpha virt. eigenvalues --    0.02961   0.03454   0.03664   0.04381   0.05431
 Alpha virt. eigenvalues --    0.05872   0.06216   0.06693   0.07052   0.08850
 Alpha virt. eigenvalues --    0.09126   0.10063   0.11233   0.12769   0.13316

 Mulliken charges:
               1
     1  C   -0.350940
     2  C   -0.379884
     3  C   -0.461397
     4  C   -0.578547
     5  C   -0.135815
     6  C    0.352350
     7  C    0.798097
     8  H    0.103034
     9  H    0.172771
    10  H    0.199136
    11  H    0.175445
    12  H    0.147678
    13  H    0.043585
    14  H    0.433189
    15  H    0.160995
    16  H   -0.240618
    17  H   -0.157786
    18  H   -0.091060
    19  H   -0.190232
 Sum of Mulliken charges =  -0.00000

 Dipole moment (field-independent basis, Debye):
    X=             -1.3848    Y=             -0.9654    Z=              1.7145  Tot=              2.4061

 Test job not archived.
 1\1\GINC-SE095\SP\RHF\Aug-CC-pVDZ\C7H12\OHZDE\09-Apr-2025\0\\#t hf aug
 -cc-pvdz iop(5/13=1,5/36=2,99/5=2) pseudo=read geom=check guess=(read,
 tcheck) scf=(maxcycle=1)\\title\\0,1\C,0,2.48073052,0.29418368,-0.7263
 0311\C,0,1.14530172,-0.43613771,-0.74448575\C,0,0.32962045,-0.15014618
 ,0.5092765\C,0,-0.1067293,1.31067309,0.66372789\C,0,-2.011855,0.382426
 77,0.70725137\C,0,-2.03472758,-0.50616707,-0.49072261\C,0,-1.0453526,-
 0.77812656,0.59108368\H,0,3.04252943,0.13012987,-1.64723836\H,0,3.1033
 7677,-0.03884191,0.1085379\H,0,2.32206848,1.37037017,-0.61786332\H,0,0

 Normal termination of Gaussian 16 at Wed Apr  9 03:40:32 2025.
