 Gaussian 16, Revision C.01,

 ----------------------------------------------------------------------
 #t hf aug-cc-pvdz symm=none int=(grid=ultrafine) guess=(read,tcheck) s
 table=(opt,rrhf)
 ----------------------------------------------------------------------
 -----
 title
 -----
 Symbolic Z-matrix:
 Charge =  0 Multiplicity = 1

 SCF Done:  E(RHF) =  -268.693847294     A.U. after   15 cycles
 Normal termination of Gaussian 16 at Wed Apr  9 15:56:53 2025.
 Gaussian 16:  ES64L-G16RevC.01  3-Jul-2019

 ----------------------------------------------------------------------
 #t hf aug-cc-pvdz iop(5/13=1,5/36=2,99/5=2) pseudo=read geom=check gue
 ss=(read,tcheck) scf=(maxcycle=1)
 ----------------------------------------------------------------------
 -----
 title
 -----
 Structure from the checkpoint file:  "Grambow2020_b97d3_007039_reverse_mol1.chk"
 Charge =  0 Multiplicity = 1

                         Standard orientation:
 ---------------------------------------------------------------------
 Center     Atomic      Atomic             Coordinates (Angstroms)
 Number     Number       Type             X           Y           Z
 ---------------------------------------------------------------------
      1          6           0        3.130694    0.376836    0.114022
      2          6           0        1.750239   -0.076002   -0.053649
      3          6           0        0.592767   -0.450646   -0.191978
      4          6           0       -0.781657   -0.811953   -0.369172
      5          6           0       -1.753433   -0.461127    0.644177
      6          8           0       -2.436950    0.953335   -0.242250
      7          1           0        3.817504   -0.460140    0.316991
      8          1           0        3.501216    0.900197   -0.782167
      9          1           0        3.212800    1.078702    0.959262
     10          1           0       -1.546288    0.352631   -0.878025
     11          1           0       -1.007159   -1.692785   -0.973466
     12          1           0       -2.675714   -1.035027    0.724777
     13          1           0       -1.430603    0.011942    1.574448
     14          1           0       -2.007806    1.755146    0.135779
 ---------------------------------------------------------------------

 SCF Done:  E(RHF) =  -268.977262133     A.U. after    2 cycles

 The electronic state is 1-A.
 Alpha  occ. eigenvalues --  -20.56732 -11.34281 -11.25273 -11.22830 -11.22722
 Alpha  occ. eigenvalues --  -11.21976  -1.42607  -1.07829  -1.02747  -0.94436
 Alpha  occ. eigenvalues --   -0.85084  -0.72403  -0.67722  -0.65058  -0.61608
 Alpha  occ. eigenvalues --   -0.58209  -0.58107  -0.56117  -0.55464  -0.51155
 Alpha  occ. eigenvalues --   -0.42628  -0.36717  -0.29935
 Alpha virt. eigenvalues --    0.03249   0.03608   0.04161   0.04867   0.05823
 Alpha virt. eigenvalues --    0.06374   0.06602   0.08245   0.09922   0.10730
 Alpha virt. eigenvalues --    0.12820   0.13552   0.14357   0.14723   0.15070

 Mulliken charges:
               1
     1  C   -0.875341
     2  C   -0.275526
     3  C    0.578125
     4  C   -0.647226
     5  C    0.256254
     6  O   -1.065378
     7  H    0.259448
     8  H    0.258902
     9  H    0.252192
    10  H    0.940860
    11  H   -0.064015
    12  H   -0.020335
    13  H   -0.007024
    14  H    0.409064
 Sum of Mulliken charges =  -0.00000

 Dipole moment (field-independent basis, Debye):
    X=             -0.1629    Y=              0.5658    Z=              1.7724  Tot=              1.8677

 Test job not archived.
 1\1\GINC-SE141\SP\RHF\Aug-CC-pVDZ\C5H8O1\OHZDE\09-Apr-2025\0\\#t hf au
 g-cc-pvdz iop(5/13=1,5/36=2,99/5=2) pseudo=read geom=check guess=(read
 ,tcheck) scf=(maxcycle=1)\\title\\0,1\C,0,2.97644906,-0.00130082,-0.08
 08815\C,0,1.55600549,0.28638523,0.11510012\C,0,0.36554483,0.5226586,0.
 27700481\C,0,-1.03841559,0.7198396,0.47948179\C,0,-1.97788511,0.292512
 73,-0.53495961\O,0,-2.48478377,-1.21724939,0.31199072\H,0,3.56127032,0
 .91416265,-0.26348831\H,0,3.41596496,-0.50673907,0.79416468\H,0,3.1260
 1105,-0.66273484,-0.94916919\H,0,-1.65931035,-0.53928143,0.95796989\H,

 Normal termination of Gaussian 16 at Wed Apr  9 15:56:57 2025.
