 Gaussian 16, Revision C.01,

 ----------------------------------------------------------------------
 #t hf aug-cc-pvdz symm=none int=(grid=ultrafine) guess=(read,tcheck) s
 table=(opt,rrhf)
 ----------------------------------------------------------------------
 -----
 title
 -----
 Symbolic Z-matrix:
 Charge =  0 Multiplicity = 1

 SCF Done:  E(RHF) =  -355.850473806     A.U. after   15 cycles
 Normal termination of Gaussian 16 at Wed Apr  9 03:58:40 2025.
 Gaussian 16:  ES64L-G16RevC.01  3-Jul-2019

 ----------------------------------------------------------------------
 #t hf aug-cc-pvdz iop(5/13=1,5/36=2,99/5=2) pseudo=read geom=check gue
 ss=(read,tcheck) scf=(maxcycle=1)
 ----------------------------------------------------------------------
 -----
 title
 -----
 Structure from the checkpoint file:  "Grambow2020_wb97xd3_008711_reverse_mol1.chk"
 Charge =  0 Multiplicity = 1

                         Standard orientation:
 ---------------------------------------------------------------------
 Center     Atomic      Atomic             Coordinates (Angstroms)
 Number     Number       Type             X           Y           Z
 ---------------------------------------------------------------------
      1          6           0       -1.997476   -0.977933    0.440639
      2          7           0       -1.434148    0.186542   -0.198014
      3          6           0       -0.188644    0.614472   -0.108464
      4          7           0       -0.230962    1.917116   -0.254223
      5          6           0        1.074900   -0.197348    0.071211
      6          8           0        1.976867    0.172663    0.784580
      7          7           0        1.091098   -1.341852   -0.651167
      8          1           0       -2.498901   -0.704358    1.373794
      9          1           0       -1.237375   -1.727401    0.679031
     10          1           0       -2.741140   -1.437472   -0.212988
     11          1           0       -1.500778    1.538909   -0.354542
     12          1           0        0.579993    2.449886   -0.532489
     13          1           0        0.349443   -1.558133   -1.291797
     14          1           0        1.919223   -1.910520   -0.634146
 ---------------------------------------------------------------------

 SCF Done:  E(RHF) =  -356.210985751     A.U. after    2 cycles

 The electronic state is 1-A.
 Alpha  occ. eigenvalues --  -20.53607 -15.55012 -15.49247 -15.49124 -11.38770
 Alpha  occ. eigenvalues --  -11.34214 -11.26797  -1.48838  -1.30355  -1.24783
 Alpha  occ. eigenvalues --   -1.14690  -0.96950  -0.93639  -0.82197  -0.78038
 Alpha  occ. eigenvalues --   -0.75349  -0.68909  -0.65537  -0.63706  -0.61151
 Alpha  occ. eigenvalues --   -0.60488  -0.55855  -0.53369  -0.47559  -0.45536
 Alpha  occ. eigenvalues --   -0.44044  -0.39048
 Alpha virt. eigenvalues --    0.02683   0.04153   0.04900   0.05098   0.06003
 Alpha virt. eigenvalues --    0.06586   0.07349   0.08266   0.09946   0.11380
 Alpha virt. eigenvalues --    0.12311   0.12660   0.13850   0.13960   0.14602

 Mulliken charges:
               1
     1  C   -0.271950
     2  N    0.362028
     3  C   -2.028803
     4  N    0.640572
     5  C    0.883788
     6  O   -1.283650
     7  N    0.524526
     8  H    0.120604
     9  H    0.082047
    10  H    0.093127
    11  H    0.617190
    12  H    0.046779
    13  H    0.087540
    14  H    0.126203
 Sum of Mulliken charges =   0.00000

 Dipole moment (field-independent basis, Debye):
    X=             -0.6106    Y=             -2.8641    Z=             -2.0499  Tot=              3.5746

 Test job not archived.
 1\1\GINC-SE460\SP\RHF\Aug-CC-pVDZ\C3H7N3O1\OHZDE\09-Apr-2025\0\\#t hf
 aug-cc-pvdz iop(5/13=1,5/36=2,99/5=2) pseudo=read geom=check guess=(re
 ad,tcheck) scf=(maxcycle=1)\\title\\0,1\C,0,1.52467425,0.97899834,-0.5
 5216651\N,0,0.96679872,-0.35141153,-0.55078471\C,0,0.0064611,-0.806849
 98,0.23199978\N,0,0.22607914,-2.09100955,0.38240283\C,0,-1.16568653,-0
 .05292544,0.81983081\O,0,-1.554331,-0.2521162,1.9461641\N,0,-1.7276592
 8,0.82995726,-0.03847327\H,0,2.43792763,1.01748751,0.04911001\H,0,0.82
 894035,1.71974053,-0.14776357\H,0,1.78574933,1.27180485,-1.57076555\H,

 Normal termination of Gaussian 16 at Wed Apr  9 03:58:44 2025.
