 Gaussian 16, Revision C.01,

 ----------------------------------------------------------------------
 #t hf aug-cc-pvdz symm=none int=(grid=ultrafine) guess=(read,tcheck) s
 table=(opt,rrhf)
 ----------------------------------------------------------------------
 -----
 title
 -----
 Symbolic Z-matrix:
 Charge =  0 Multiplicity = 1

 SCF Done:  E(RHF) =  -301.603764971     A.U. after   17 cycles
 Normal termination of Gaussian 16 at Wed Apr  9 18:39:32 2025.
 Gaussian 16:  ES64L-G16RevC.01  3-Jul-2019

 ----------------------------------------------------------------------
 #t hf aug-cc-pvdz iop(5/13=1,5/36=2,99/5=2) pseudo=read geom=check gue
 ss=(read,tcheck) scf=(maxcycle=1)
 ----------------------------------------------------------------------
 -----
 title
 -----
 Structure from the checkpoint file:  "Grambow2020_wb97xd3_007934_forward_mol1.chk"
 Charge =  0 Multiplicity = 1

                         Standard orientation:
 ---------------------------------------------------------------------
 Center     Atomic      Atomic             Coordinates (Angstroms)
 Number     Number       Type             X           Y           Z
 ---------------------------------------------------------------------
      1          6           0        1.077161    0.843600    0.437913
      2          6           0        1.746583   -0.477643   -0.033396
      3          6           0        0.439630   -0.919476   -0.504434
      4          7           0       -0.582140   -1.295989    0.059478
      5          6           0       -1.614611   -0.471220    0.266083
      6          6           0       -1.300610    0.844044   -0.103944
      7          7           0       -0.074247    1.211615   -0.406385
      8          1           0        1.789889    1.666181    0.389248
      9          1           0        0.760659    0.700577    1.475359
     10          1           0        2.459221   -0.313126   -0.836531
     11          1           0        2.183617   -1.071366    0.772258
     12          1           0       -2.579477   -0.855161    0.558120
     13          1           0       -2.108115    1.547677   -0.303439
 ---------------------------------------------------------------------

 SCF Done:  E(RHF) =  -301.911509440     A.U. after    2 cycles

 The electronic state is 1-A.
 Alpha  occ. eigenvalues --  -15.55896 -15.48804 -11.33096 -11.28921 -11.27991
 Alpha  occ. eigenvalues --  -11.27953 -11.26839  -1.33080  -1.20121  -1.10633
 Alpha  occ. eigenvalues --   -0.98362  -0.92782  -0.81454  -0.75255  -0.71820
 Alpha  occ. eigenvalues --   -0.69173  -0.65345  -0.61017  -0.58670  -0.56972
 Alpha  occ. eigenvalues --   -0.55417  -0.52444  -0.45266  -0.39733  -0.32596
 Alpha virt. eigenvalues --    0.03437   0.04260   0.04359   0.04543   0.05273
 Alpha virt. eigenvalues --    0.05988   0.06336   0.08221   0.09573   0.10216
 Alpha virt. eigenvalues --    0.11254   0.12376   0.13007   0.14280   0.14429

 Mulliken charges:
               1
     1  C   -0.348234
     2  C    0.114324
     3  C   -1.196462
     4  N    1.123272
     5  C   -0.138025
     6  C   -0.461694
     7  N    0.651411
     8  H    0.063390
     9  H    0.133342
    10  H    0.128858
    11  H    0.159731
    12  H   -0.153036
    13  H   -0.076877
 Sum of Mulliken charges =  -0.00000

 Dipole moment (field-independent basis, Debye):
    X=              1.2709    Y=             -0.7458    Z=              1.6480  Tot=              2.2107

 Test job not archived.
 1\1\GINC-SE014\SP\RHF\Aug-CC-pVDZ\C5H6N2\OHZDE\09-Apr-2025\0\\#t hf au
 g-cc-pvdz iop(5/13=1,5/36=2,99/5=2) pseudo=read geom=check guess=(read
 ,tcheck) scf=(maxcycle=1)\\title\\0,1\C,0,-1.11167635,-0.4609018,0.077
 67724\C,0,-1.30302237,1.07804698,-0.02702905\C,0,0.11618991,1.18818564
 ,-0.3415513\N,0,1.14279828,1.06680311,0.31808013\C,0,1.85393668,-0.065
 94032,0.30801814\C,0,1.19745104,-1.07567811,-0.40954155\N,0,-0.0464346
 4,-0.94763053,-0.81807279\H,0,-2.03016302,-0.97546222,-0.20267886\H,0,
 -0.87114306,-0.69271987,1.1194678\H,0,-1.94899459,1.35611186,-0.854885

 Normal termination of Gaussian 16 at Wed Apr  9 18:39:37 2025.
