 Gaussian 16, Revision C.01,

 ----------------------------------------------------------------------
 #t hf aug-cc-pvdz symm=none int=(grid=ultrafine) guess=(read,tcheck) s
 table=(opt,rrhf)
 ----------------------------------------------------------------------
 -----
 title
 -----
 Symbolic Z-matrix:
 Charge =  0 Multiplicity = 1

 SCF Done:  E(RHF) =  -358.267995727     A.U. after   18 cycles
 Normal termination of Gaussian 16 at Wed Apr  9 03:40:16 2025.
 Gaussian 16:  ES64L-G16RevC.01  3-Jul-2019

 ----------------------------------------------------------------------
 #t hf aug-cc-pvdz iop(5/13=1,5/36=2,99/5=2) pseudo=read geom=check gue
 ss=(read,tcheck) scf=(maxcycle=1)
 ----------------------------------------------------------------------
 -----
 title
 -----
 Structure from the checkpoint file:  "Grambow2020_wb97xd3_007455_reverse_mol1.chk"
 Charge =  0 Multiplicity = 1

                         Standard orientation:
 ---------------------------------------------------------------------
 Center     Atomic      Atomic             Coordinates (Angstroms)
 Number     Number       Type             X           Y           Z
 ---------------------------------------------------------------------
      1          8           0       -2.067636   -0.914449   -0.119118
      2          6           0       -1.977430    0.463108    0.152387
      3          6           0       -0.693358    1.176805    0.034396
      4          7           0        0.762009   -1.015649   -0.039355
      5          8           0        2.140931   -0.549384    0.130285
      6          6           0        1.862372    0.681036    0.006405
      7          6           0        0.428548    0.365795   -0.150754
      8          1           0       -1.322105   -1.379314    0.278544
      9          1           0       -2.742239    0.958452   -0.449966
     10          1           0       -2.248091    0.703728    1.200420
     11          1           0        2.577902    1.489965    0.084813
     12          1           0        0.093325    0.926920   -1.182265
 ---------------------------------------------------------------------

 SCF Done:  E(RHF) =  -358.622172987     A.U. after    2 cycles

 The electronic state is 1-A.
 Alpha  occ. eigenvalues --  -20.69104 -20.54407 -15.51945 -11.41865 -11.33350
 Alpha  occ. eigenvalues --  -11.30027 -11.28178  -1.63814  -1.45149  -1.17878
 Alpha  occ. eigenvalues --   -1.07096  -1.00356  -0.90678  -0.79830  -0.75774
 Alpha  occ. eigenvalues --   -0.71458  -0.69778  -0.64587  -0.62124  -0.59413
 Alpha  occ. eigenvalues --   -0.55968  -0.52406  -0.50226  -0.45355  -0.39278
 Alpha  occ. eigenvalues --   -0.38242
 Alpha virt. eigenvalues --    0.01423   0.02208   0.04208   0.04680   0.05831
 Alpha virt. eigenvalues --    0.06691   0.07875   0.08100   0.10346   0.12241
 Alpha virt. eigenvalues --    0.12547   0.13723   0.14214   0.14637   0.15089

 Mulliken charges:
               1
     1  O   -1.209592
     2  C    0.729130
     3  C   -0.970246
     4  N    0.957702
     5  O   -1.204690
     6  C    1.217234
     7  C   -0.827254
     8  H    0.437773
     9  H    0.117066
    10  H    0.250576
    11  H    0.020452
    12  H    0.481848
 Sum of Mulliken charges =  -0.00000

 Dipole moment (field-independent basis, Debye):
    X=              3.1119    Y=              3.7264    Z=              0.2343  Tot=              4.8605

 Test job not archived.
 1\1\GINC-SE125\SP\RHF\Aug-CC-pVDZ\C4H5N1O2\OHZDE\09-Apr-2025\0\\#t hf
 aug-cc-pvdz iop(5/13=1,5/36=2,99/5=2) pseudo=read geom=check guess=(re
 ad,tcheck) scf=(maxcycle=1)\\title\\0,1\O,0,-2.04773902,0.6631521,-0.0
 2702214\C,0,-1.6020852,-0.65784746,0.162368\C,0,-0.16950694,-0.9573452
 4,0.33599515\N,0,0.64419703,1.39727145,-0.5149169\O,0,2.08906557,1.242
 27972,-0.70449403\C,0,2.15738357,0.1069507,-0.14482105\C,0,0.69977816,
 0.10787844,0.09036741\H,0,-1.47262142,1.11966604,-0.6522308\H,0,-2.178
 7196,-1.07403908,0.99146636\H,0,-1.84299772,-1.31072973,-0.70090187\H,

 Normal termination of Gaussian 16 at Wed Apr  9 03:40:21 2025.
