 Gaussian 16, Revision C.01,

 ----------------------------------------------------------------------
 #t hf aug-cc-pvdz symm=none int=(grid=ultrafine) guess=(read,tcheck) s
 table=(opt,rrhf)
 ----------------------------------------------------------------------
 -----
 title
 -----
 Symbolic Z-matrix:
 Charge =  0 Multiplicity = 1

 SCF Done:  E(RHF) =  -268.871537440     A.U. after   15 cycles
 Normal termination of Gaussian 16 at Wed Apr  9 03:05:31 2025.
 Gaussian 16:  ES64L-G16RevC.01  3-Jul-2019

 ----------------------------------------------------------------------
 #t hf aug-cc-pvdz iop(5/13=1,5/36=2,99/5=2) pseudo=read geom=check gue
 ss=(read,tcheck) scf=(maxcycle=1)
 ----------------------------------------------------------------------
 -----
 title
 -----
 Structure from the checkpoint file:  "Grambow2020_b97d3_006486_reverse_mol2.chk"
 Charge =  0 Multiplicity = 1

                         Standard orientation:
 ---------------------------------------------------------------------
 Center     Atomic      Atomic             Coordinates (Angstroms)
 Number     Number       Type             X           Y           Z
 ---------------------------------------------------------------------
      1          8           0        0.159747    1.893817   -0.137712
      2          6           0       -0.064505    0.710510    0.113843
      3          6           0       -1.414356    0.145240   -0.171371
      4          6           0       -1.811047   -1.119257    0.065448
      5          6           0        1.715031   -0.985002   -0.480095
      6          6           0        1.030656   -0.201395    0.659818
      7          1           0       -2.104876    0.863281   -0.618753
      8          1           0        2.138384   -0.291854   -1.218978
      9          1           0       -2.820437   -1.450861   -0.180800
     10          1           0       -1.151855   -1.865308    0.509768
     11          1           0        2.530256   -1.604929   -0.083243
     12          1           0        1.003095   -1.641644   -0.997561
     13          1           0        0.627198   -0.901584    1.405251
     14          1           0        1.765575    0.441791    1.160151
 ---------------------------------------------------------------------

 SCF Done:  E(RHF) =  -269.151812648     A.U. after    2 cycles

 The electronic state is 1-A.
 Alpha  occ. eigenvalues --  -20.53591 -11.34267 -11.27608 -11.26206 -11.25076
 Alpha  occ. eigenvalues --  -11.24434  -1.45711  -1.09232  -1.04212  -0.90499
 Alpha  occ. eigenvalues --   -0.85588  -0.73726  -0.68332  -0.66470  -0.61646
 Alpha  occ. eigenvalues --   -0.60249  -0.57401  -0.55720  -0.53556  -0.50918
 Alpha  occ. eigenvalues --   -0.49807  -0.41286  -0.39734
 Alpha virt. eigenvalues --    0.03079   0.03474   0.04244   0.04486   0.06081
 Alpha virt. eigenvalues --    0.06473   0.06676   0.07899   0.08168   0.10722
 Alpha virt. eigenvalues --    0.12372   0.12979   0.14038   0.14532   0.14810

 Mulliken charges:
               1
     1  O   -1.433171
     2  C    1.249772
     3  C    0.704647
     4  C   -0.062079
     5  C   -0.421387
     6  C   -0.498396
     7  H   -0.181811
     8  H    0.182490
     9  H   -0.103316
    10  H   -0.083059
    11  H    0.135758
    12  H    0.163374
    13  H    0.229601
    14  H    0.117579
 Sum of Mulliken charges =  -0.00000

 Dipole moment (field-independent basis, Debye):
    X=             -0.6252    Y=             -3.5459    Z=              0.5470  Tot=              3.6419

 Test job not archived.
 1\1\GINC-SE220\SP\RHF\Aug-CC-pVDZ\C5H8O1\OHZDE\09-Apr-2025\0\\#t hf au
 g-cc-pvdz iop(5/13=1,5/36=2,99/5=2) pseudo=read geom=check guess=(read
 ,tcheck) scf=(maxcycle=1)\\title\\0,1\O,0,-0.80421418,2.09608595,-0.60
 416861\C,0,-0.4840673,1.04274286,-0.05484332\C,0,-1.54721362,0.1416725
 3,0.47503138\C,0,-1.35085404,-1.02789031,1.11218618\C,0,1.35432801,-0.
 33413033,-1.11257405\C,0,0.97808214,0.61670034,0.0433543\H,0,-2.560705
 93,0.507929,0.29828135\H,0,1.16932496,0.15010864,-2.08051875\H,0,-2.19
 06784,-1.62875826,1.46306959\H,0,-0.35546309,-1.42758542,1.30709019\H,

 Normal termination of Gaussian 16 at Wed Apr  9 03:05:35 2025.
