 Gaussian 16, Revision C.01,

 ----------------------------------------------------------------------
 #t hf aug-cc-pvdz symm=none int=(grid=ultrafine) guess=(read,tcheck) s
 table=(opt,rrhf)
 ----------------------------------------------------------------------
 -----
 title
 -----
 Symbolic Z-matrix:
 Charge =  0 Multiplicity = 1

 SCF Done:  E(RHF) =  -315.538650743     A.U. after   16 cycles
 Normal termination of Gaussian 16 at Wed Apr  9 15:42:36 2025.
 Gaussian 16:  ES64L-G16RevC.01  3-Jul-2019

 ----------------------------------------------------------------------
 #t hf aug-cc-pvdz iop(5/13=1,5/36=2,99/5=2) pseudo=read geom=check gue
 ss=(read,tcheck) scf=(maxcycle=1)
 ----------------------------------------------------------------------
 -----
 title
 -----
 Structure from the checkpoint file:  "Grambow2020_b97d3_006684_forward_mol1.chk"
 Charge =  0 Multiplicity = 1

                         Standard orientation:
 ---------------------------------------------------------------------
 Center     Atomic      Atomic             Coordinates (Angstroms)
 Number     Number       Type             X           Y           Z
 ---------------------------------------------------------------------
      1          8           0        2.040194    0.134199    0.016257
      2          6           0        0.692184    0.067390   -0.009680
      3          7           0        0.029053   -1.085104   -0.016606
      4          7           0       -1.260281   -0.725215    0.091863
      5          7           0       -1.432769    0.645251   -0.087510
      6          6           0       -0.164636    1.229876   -0.091791
      7          1           0        2.386608   -0.780260    0.041111
      8          1           0       -1.978050   -1.367534   -0.239697
      9          1           0       -1.247416    1.446090    0.763134
 ---------------------------------------------------------------------

 SCF Done:  E(RHF) =  -315.850503791     A.U. after    2 cycles

 The electronic state is 1-A.
 Alpha  occ. eigenvalues --  -20.60170 -15.61523 -15.60656 -15.58042 -11.34977
 Alpha  occ. eigenvalues --  -11.28594  -1.51940  -1.43198  -1.23955  -1.13200
 Alpha  occ. eigenvalues --   -0.90249  -0.88525  -0.81913  -0.75036  -0.71394
 Alpha  occ. eigenvalues --   -0.61514  -0.59723  -0.57703  -0.56054  -0.52509
 Alpha  occ. eigenvalues --   -0.41411  -0.39386
 Alpha virt. eigenvalues --    0.02967   0.04378   0.04600   0.05401   0.09102
 Alpha virt. eigenvalues --    0.10138   0.10955   0.11400   0.12400   0.13449
 Alpha virt. eigenvalues --    0.14317   0.15286   0.16210   0.17628   0.19448

 Mulliken charges:
               1
     1  O   -1.221256
     2  C    0.704237
     3  N    0.286620
     4  N   -0.100236
     5  N    0.041176
     6  C   -0.600278
     7  H    0.298821
     8  H    0.138059
     9  H    0.452857
 Sum of Mulliken charges =  -0.00000

 Dipole moment (field-independent basis, Debye):
    X=             -0.4750    Y=             -2.0952    Z=              0.6721  Tot=              2.2510

 Test job not archived.
 1\1\GINC-SE141\SP\RHF\Aug-CC-pVDZ\C2H3N3O1\OHZDE\09-Apr-2025\0\\#t hf
 aug-cc-pvdz iop(5/13=1,5/36=2,99/5=2) pseudo=read geom=check guess=(re
 ad,tcheck) scf=(maxcycle=1)\\title\\0,1\O,0,-2.10822326,-0.43259684,-0
 .0014821\C,0,-0.7977257,-0.11210107,0.04484431\N,0,0.16395405,-1.02653
 821,0.1285719\N,0,1.30129859,-0.32146998,0.01458284\N,0,1.07370992,1.0
 4908487,0.11401156\C,0,-0.30760787,1.24860015,0.06794522\H,0,-2.180842
 46,-1.40775447,0.02400763\H,0,2.16169517,-0.71456957,0.3925889\H,0,0.6
 9374156,1.71734513,-0.78507026\\Version=ES64L-G16RevC.01\State=1-A\HF=

 Normal termination of Gaussian 16 at Wed Apr  9 15:42:39 2025.
