 Gaussian 16, Revision C.01,

 ----------------------------------------------------------------------
 #t hf aug-cc-pvdz symm=none int=(grid=ultrafine) guess=(read,tcheck) s
 table=(opt,rrhf)
 ----------------------------------------------------------------------
 -----
 title
 -----
 Symbolic Z-matrix:
 Charge =  0 Multiplicity = 1

 SCF Done:  E(RHF) =  -268.690559071     A.U. after   15 cycles
 Normal termination of Gaussian 16 at Wed Apr  9 03:21:09 2025.
 Gaussian 16:  ES64L-G16RevC.01  3-Jul-2019

 ----------------------------------------------------------------------
 #t hf aug-cc-pvdz iop(5/13=1,5/36=2,99/5=2) pseudo=read geom=check gue
 ss=(read,tcheck) scf=(maxcycle=1)
 ----------------------------------------------------------------------
 -----
 title
 -----
 Structure from the checkpoint file:  "Grambow2020_wb97xd3_006050_reverse_mol1.chk"
 Charge =  0 Multiplicity = 1

                         Standard orientation:
 ---------------------------------------------------------------------
 Center     Atomic      Atomic             Coordinates (Angstroms)
 Number     Number       Type             X           Y           Z
 ---------------------------------------------------------------------
      1          6           0        0.950448    1.539873    0.237966
      2          8           0        0.553182    0.399423   -0.509787
      3          6           0        1.166474   -1.172765   -0.034870
      4          6           0       -0.155538   -1.574354    0.323040
      5          6           0       -0.691364   -0.413018    0.036025
      6          6           0       -1.967065    0.327394   -0.033339
      7          1           0        1.941197    1.843917   -0.100781
      8          1           0        0.246716    2.352551    0.051557
      9          1           0        0.971546    1.315688    1.309582
     10          1           0        1.622344   -1.529481   -0.957730
     11          1           0        1.895890   -0.930657    0.739590
     12          1           0       -2.195855    0.638003   -1.055457
     13          1           0       -2.753712   -0.342212    0.312031
     14          1           0       -1.971307    1.214023    0.606571
 ---------------------------------------------------------------------

 SCF Done:  E(RHF) =  -268.972610672     A.U. after    2 cycles

 The electronic state is 1-A.
 Alpha  occ. eigenvalues --  -20.59607 -11.33707 -11.30553 -11.27693 -11.23838
 Alpha  occ. eigenvalues --  -11.17913  -1.48911  -1.10315  -1.00967  -0.93988
 Alpha  occ. eigenvalues --   -0.87860  -0.70393  -0.68531  -0.66266  -0.66133
 Alpha  occ. eigenvalues --   -0.61104  -0.58260  -0.57481  -0.54182  -0.51385
 Alpha  occ. eigenvalues --   -0.48241  -0.34767  -0.33429
 Alpha virt. eigenvalues --    0.02897   0.03584   0.04102   0.04675   0.05969
 Alpha virt. eigenvalues --    0.06404   0.07030   0.08306   0.09849   0.10741
 Alpha virt. eigenvalues --    0.12553   0.12988   0.13465   0.14747   0.15686

 Mulliken charges:
               1
     1  C    0.223874
     2  O   -1.432016
     3  C    0.270809
     4  C   -0.818967
     5  C    1.253471
     6  C   -0.564480
     7  H    0.028118
     8  H    0.065206
     9  H    0.205764
    10  H    0.079747
    11  H    0.098995
    12  H    0.235972
    13  H    0.173414
    14  H    0.180093
 Sum of Mulliken charges =  -0.00000

 Dipole moment (field-independent basis, Debye):
    X=              2.3628    Y=              3.8036    Z=             -0.4042  Tot=              4.4960

 Test job not archived.
 1\1\GINC-SE165\SP\RHF\Aug-CC-pVDZ\C5H8O1\OHZDE\09-Apr-2025\0\\#t hf au
 g-cc-pvdz iop(5/13=1,5/36=2,99/5=2) pseudo=read geom=check guess=(read
 ,tcheck) scf=(maxcycle=1)\\title\\0,1\C,0,-1.48093574,0.57290053,-0.00
 497516\O,0,-0.56168199,-0.50986744,0.00793974\C,0,-0.3484408,-1.449251
 29,-1.4568237\C,0,0.99285911,-0.97260593,-1.56080251\C,0,0.90609798,-0
 .20523299,-0.50165143\C,0,1.66460895,0.71304238,0.37119797\H,0,-2.4858
 1308,0.17116793,0.12772437\H,0,-1.25454432,1.24404217,0.82493388\H,0,-
 1.41843182,1.12638526,-0.94774399\H,0,-0.55038328,-2.46235571,-1.11103

 Normal termination of Gaussian 16 at Wed Apr  9 03:21:14 2025.
