 Gaussian 16, Revision C.01,

 ----------------------------------------------------------------------
 #t hf aug-cc-pvdz symm=none int=(grid=ultrafine) guess=(read,tcheck) s
 table=(opt,rrhf)
 ----------------------------------------------------------------------
 -----
 title
 -----
 Symbolic Z-matrix:
 Charge =  0 Multiplicity = 1

 SCF Done:  E(RHF) =  -322.676514674     A.U. after   14 cycles
 Normal termination of Gaussian 16 at Wed Apr  9 18:02:39 2025.
 Gaussian 16:  ES64L-G16RevC.01  3-Jul-2019

 ----------------------------------------------------------------------
 #t hf aug-cc-pvdz iop(5/13=1,5/36=2,99/5=2) pseudo=read geom=check gue
 ss=(read,tcheck) scf=(maxcycle=1)
 ----------------------------------------------------------------------
 -----
 title
 -----
 Structure from the checkpoint file:  "Grambow2020_wb97xd3_006944_reverse_mol2.chk"
 Charge =  0 Multiplicity = 1

                         Standard orientation:
 ---------------------------------------------------------------------
 Center     Atomic      Atomic             Coordinates (Angstroms)
 Number     Number       Type             X           Y           Z
 ---------------------------------------------------------------------
      1          8           0       -0.331963    1.141749    0.146852
      2          6           0        0.353750   -0.056165    0.528632
      3          7           0       -0.368933   -1.176915   -0.027470
      4          6           0       -1.750483   -0.707806   -0.024236
      5          6           0       -1.627043    0.790495   -0.318053
      6          6           0        1.747277   -0.010515    0.082352
      7          6           0        2.886814    0.022534   -0.278268
      8          1           0        0.329737   -0.123305    1.623478
      9          1           0       -0.054339   -1.330091   -0.978053
     10          1           0       -2.182032   -0.874924    0.965820
     11          1           0       -2.349327   -1.249359   -0.754554
     12          1           0       -1.695868    0.999468   -1.390987
     13          1           0       -2.373605    1.390982    0.206174
     14          1           0        3.901781    0.060382   -0.596958
 ---------------------------------------------------------------------

 SCF Done:  E(RHF) =  -323.011355012     A.U. after    2 cycles

 The electronic state is 1-A.
 Alpha  occ. eigenvalues --  -20.54871 -15.50651 -11.34207 -11.28801 -11.27104
 Alpha  occ. eigenvalues --  -11.24692 -11.24306  -1.47930  -1.22518  -1.06908
 Alpha  occ. eigenvalues --   -1.00957  -0.89580  -0.85777  -0.77436  -0.71867
 Alpha  occ. eigenvalues --   -0.70506  -0.65056  -0.64360  -0.59725  -0.59582
 Alpha  occ. eigenvalues --   -0.53742  -0.50163  -0.44714  -0.43384  -0.41230
 Alpha  occ. eigenvalues --   -0.40714
 Alpha virt. eigenvalues --    0.03470   0.03822   0.04403   0.04798   0.05315
 Alpha virt. eigenvalues --    0.06565   0.06919   0.09973   0.10835   0.11093
 Alpha virt. eigenvalues --    0.11642   0.11906   0.13884   0.14392   0.14589

 Mulliken charges:
               1
     1  O   -1.398651
     2  C    0.044350
     3  N    0.293658
     4  C   -0.553980
     5  C    0.603901
     6  C    0.521255
     7  C    0.297548
     8  H    0.031442
     9  H    0.399764
    10  H    0.035538
    11  H    0.045089
    12  H    0.037470
    13  H    0.061088
    14  H   -0.418474
 Sum of Mulliken charges =   0.00000

 Dipole moment (field-independent basis, Debye):
    X=             -1.2394    Y=             -0.4536    Z=             -0.9241  Tot=              1.6112

 Test job not archived.
 1\1\GINC-SE103\SP\RHF\Aug-CC-pVDZ\C5H7N1O1\OHZDE\09-Apr-2025\0\\#t hf
 aug-cc-pvdz iop(5/13=1,5/36=2,99/5=2) pseudo=read geom=check guess=(re
 ad,tcheck) scf=(maxcycle=1)\\title\\0,1\O,0,0.14874805,-0.42115462,-0.
 89393231\C,0,-0.26547993,0.70030135,-0.10544884\N,0,-0.44431522,0.2444
 6399,1.25390004\C,0,-0.87750156,-1.13784628,1.07976725\C,0,-0.10604205
 ,-1.60819367,-0.15720318\C,0,0.71177038,1.78540157,-0.20892979\C,0,1.5
 058791,2.67548763,-0.29152263\H,0,-1.23021095,1.04799329,-0.49554856\H
 ,0,0.44981794,0.2730361,1.72903032\H,0,-1.9544995,-1.15395941,0.894861

 Normal termination of Gaussian 16 at Wed Apr  9 18:02:44 2025.
