 Gaussian 16, Revision C.01,

 ----------------------------------------------------------------------
 #t hf aug-cc-pvdz symm=none int=(grid=ultrafine) guess=(read,tcheck) s
 table=(opt,rrhf)
 ----------------------------------------------------------------------
 -----
 title
 -----
 Symbolic Z-matrix:
 Charge =  0 Multiplicity = 1

 SCF Done:  E(RHF) =  -322.519757068     A.U. after   17 cycles
 Normal termination of Gaussian 16 at Wed Apr  9 03:33:24 2025.
 Gaussian 16:  ES64L-G16RevC.01  3-Jul-2019

 ----------------------------------------------------------------------
 #t hf aug-cc-pvdz iop(5/13=1,5/36=2,99/5=2) pseudo=read geom=check gue
 ss=(read,tcheck) scf=(maxcycle=1)
 ----------------------------------------------------------------------
 -----
 title
 -----
 Structure from the checkpoint file:  "Grambow2020_wb97xd3_007008_forward_mol1.chk"
 Charge =  0 Multiplicity = 1

                         Standard orientation:
 ---------------------------------------------------------------------
 Center     Atomic      Atomic             Coordinates (Angstroms)
 Number     Number       Type             X           Y           Z
 ---------------------------------------------------------------------
      1          6           0        2.377702   -0.051310    0.266954
      2          6           0        1.089000   -0.763490    0.100460
      3          6           0       -0.798248    0.665608    0.870231
      4          6           0       -1.850487   -0.068691    0.568259
      5          7           0       -1.298426   -0.874558   -0.465178
      6          6           0       -0.003503   -0.111895   -0.441844
      7          8           0        0.012558    1.106086   -0.918271
      8          1           0        2.255816    0.880709    0.828759
      9          1           0        2.763288    0.255501   -0.712229
     10          1           0        3.121673   -0.667329    0.769234
     11          1           0        0.949088   -1.773449    0.461733
     12          1           0       -0.365704    1.441060    1.471267
     13          1           0       -2.854849   -0.110880    0.959988
     14          1           0       -1.767577   -0.773729   -1.360700
 ---------------------------------------------------------------------

 SCF Done:  E(RHF) =  -322.851180433     A.U. after    2 cycles

 The electronic state is 1-A.
 Alpha  occ. eigenvalues --  -20.48527 -15.51865 -11.33633 -11.32728 -11.28655
 Alpha  occ. eigenvalues --  -11.27692 -11.24322  -1.41622  -1.25008  -1.07059
 Alpha  occ. eigenvalues --   -1.01794  -0.93332  -0.81145  -0.77658  -0.71397
 Alpha  occ. eigenvalues --   -0.67986  -0.64935  -0.61797  -0.58553  -0.56020
 Alpha  occ. eigenvalues --   -0.55067  -0.52450  -0.50841  -0.41886  -0.40577
 Alpha  occ. eigenvalues --   -0.27256
 Alpha virt. eigenvalues --    0.02049   0.03373   0.03708   0.04424   0.05254
 Alpha virt. eigenvalues --    0.05747   0.06479   0.07413   0.10423   0.10629
 Alpha virt. eigenvalues --    0.11710   0.11912   0.12645   0.13917   0.14540

 Mulliken charges:
               1
     1  C   -0.539745
     2  C    0.441567
     3  C    0.659252
     4  C   -0.183488
     5  N    0.515110
     6  C    0.276253
     7  O   -1.635326
     8  H    0.195159
     9  H    0.272822
    10  H    0.142268
    11  H   -0.170268
    12  H   -0.243525
    13  H   -0.023074
    14  H    0.292997
 Sum of Mulliken charges =  -0.00000

 Dipole moment (field-independent basis, Debye):
    X=             -0.1022    Y=             -1.0817    Z=              2.4886  Tot=              2.7155

 Test job not archived.
 1\1\GINC-SE333\SP\RHF\Aug-CC-pVDZ\C5H7N1O1\OHZDE\09-Apr-2025\0\\#t hf
 aug-cc-pvdz iop(5/13=1,5/36=2,99/5=2) pseudo=read geom=check guess=(re
 ad,tcheck) scf=(maxcycle=1)\\title\\0,1\C,0,-2.11868237,-0.07221517,-0
 .16047808\C,0,-0.77166022,-0.17516682,-0.76925347\C,0,0.94360934,0.800
 00999,0.74845864\C,0,2.06673152,0.54338167,0.10789108\N,0,1.6515551,-0
 .56522693,-0.68001765\C,0,0.30474935,-0.60296544,-0.01389807\O,0,0.231
 39789,-1.02142079,1.22312794\H,0,-2.10727254,0.54036281,0.74713281\H,0
 ,-2.45552169,-1.06197467,0.16895248\H,0,-2.8482445,0.34346139,-0.85344

 Normal termination of Gaussian 16 at Wed Apr  9 03:33:28 2025.
