 Gaussian 16, Revision C.01,

 ----------------------------------------------------------------------
 #t hf aug-cc-pvdz symm=none int=(grid=ultrafine) guess=(read,tcheck) s
 table=(opt,rrhf)
 ----------------------------------------------------------------------
 -----
 title
 -----
 Symbolic Z-matrix:
 Charge =  0 Multiplicity = 1

 SCF Done:  E(RHF) =  -283.670429670     A.U. after   14 cycles
 Normal termination of Gaussian 16 at Wed Apr  9 17:03:06 2025.
 Gaussian 16:  ES64L-G16RevC.01  3-Jul-2019

 ----------------------------------------------------------------------
 #t hf aug-cc-pvdz iop(5/13=1,5/36=2,99/5=2) pseudo=read geom=check gue
 ss=(read,tcheck) scf=(maxcycle=1)
 ----------------------------------------------------------------------
 -----
 title
 -----
 Structure from the checkpoint file:  "Grambow2020_wb97xd3_006229_reverse_mol2.chk"
 Charge =  0 Multiplicity = 1

                         Standard orientation:
 ---------------------------------------------------------------------
 Center     Atomic      Atomic             Coordinates (Angstroms)
 Number     Number       Type             X           Y           Z
 ---------------------------------------------------------------------
      1          8           0        3.063652    0.153420   -0.545008
      2          6           0        2.099236   -0.002790    0.083094
      3          6           0       -1.966467   -1.290924   -0.184583
      4          6           0       -2.074132    0.005327   -0.120836
      5          6           0       -2.167215    1.298171   -0.051611
      6          7           0        1.167993   -0.120436    0.840362
      7          1           0       -2.207619   -1.913166    0.669700
      8          1           0       -1.658853   -1.779898   -1.101809
      9          1           0       -3.092512    1.803434   -0.301173
     10          1           0       -1.321233    1.901164    0.257502
     11          1           0        0.246529   -0.454544    0.596925
 ---------------------------------------------------------------------

 SCF Done:  E(RHF) =  -283.957035179     A.U. after    2 cycles

 The electronic state is 1-A.
 Alpha  occ. eigenvalues --  -20.60260 -15.52307 -11.41457 -11.28872 -11.26636
 Alpha  occ. eigenvalues --  -11.26335  -1.55308  -1.26732  -1.09871  -0.98507
 Alpha  occ. eigenvalues --   -0.84128  -0.73988  -0.73427  -0.66194  -0.66070
 Alpha  occ. eigenvalues --   -0.65479  -0.63671  -0.63458  -0.50280  -0.46979
 Alpha  occ. eigenvalues --   -0.40986  -0.40546
 Alpha virt. eigenvalues --    0.03238   0.03738   0.04496   0.04634   0.07177
 Alpha virt. eigenvalues --    0.08620   0.09578   0.09758   0.10434   0.11212
 Alpha virt. eigenvalues --    0.12412   0.12652   0.13305   0.15178   0.15457

 Mulliken charges:
               1
     1  O   -0.682184
     2  C   -0.088339
     3  C   -0.073448
     4  C    0.025367
     5  C    0.108935
     6  N    0.737394
     7  H   -0.028822
     8  H   -0.023708
     9  H   -0.057452
    10  H   -0.036015
    11  H    0.118273
 Sum of Mulliken charges =  -0.00000

 Dipole moment (field-independent basis, Debye):
    X=             -2.4412    Y=             -0.4908    Z=             -0.6194  Tot=              2.5659

 Test job not archived.
 1\1\GINC-SE162\SP\RHF\Aug-CC-pVDZ\C4H5N1O1\OHZDE\09-Apr-2025\0\\#t hf
 aug-cc-pvdz iop(5/13=1,5/36=2,99/5=2) pseudo=read geom=check guess=(re
 ad,tcheck) scf=(maxcycle=1)\\title\\0,1\O,0,-0.41877905,3.02922528,2.3
 1081671\C,0,-0.09825676,2.48662119,1.33518428\C,0,-1.03135902,-0.84701
 812,-1.17021974\C,0,0.03493977,-1.24597473,-0.53795194\C,0,1.10103622,
 -1.62905276,0.09576033\N,0,0.32986562,2.01661932,0.31033426\H,0,-0.982
 70515,-0.54499023,-2.21019576\H,0,-1.99763128,-0.83304372,-0.67915062\
 H,0,1.40164693,-2.66989828,0.10029644\H,0,1.71440759,-0.9160862,0.6345

 Normal termination of Gaussian 16 at Wed Apr  9 17:03:09 2025.
