 Gaussian 16, Revision C.01,

 ----------------------------------------------------------------------
 #t hf aug-cc-pvdz symm=none int=(grid=ultrafine) guess=(read,tcheck) s
 table=(opt,rrhf)
 ----------------------------------------------------------------------
 -----
 title
 -----
 Symbolic Z-matrix:
 Charge =  0 Multiplicity = 1

 SCF Done:  E(RHF) =  -302.774975150     A.U. after   15 cycles
 Normal termination of Gaussian 16 at Wed Apr  9 18:11:13 2025.
 Gaussian 16:  ES64L-G16RevC.01  3-Jul-2019

 ----------------------------------------------------------------------
 #t hf aug-cc-pvdz iop(5/13=1,5/36=2,99/5=2) pseudo=read geom=check gue
 ss=(read,tcheck) scf=(maxcycle=1)
 ----------------------------------------------------------------------
 -----
 title
 -----
 Structure from the checkpoint file:  "Grambow2020_wb97xd3_007171_forward_mol1.chk"
 Charge =  0 Multiplicity = 1

                         Standard orientation:
 ---------------------------------------------------------------------
 Center     Atomic      Atomic             Coordinates (Angstroms)
 Number     Number       Type             X           Y           Z
 ---------------------------------------------------------------------
      1          6           0       -1.231737    1.702358   -0.078675
      2          6           0       -1.526010    0.268664    0.203877
      3          6           0       -0.976051   -1.505788   -0.733493
      4          7           0       -0.555658   -0.665325    0.252345
      5          6           0        0.743343   -0.595149    0.883176
      6          6           0        1.755001    0.066142    0.045027
      7          7           0        2.525506    0.603691   -0.612393
      8          1           0       -0.891040    1.840806   -1.111673
      9          1           0       -0.426024    2.078602    0.560974
     10          1           0       -2.110061    2.326858    0.077113
     11          1           0       -2.525952   -0.065995    0.431866
     12          1           0       -1.061018   -2.573283   -0.548065
     13          1           0       -1.102693   -1.118590   -1.733157
     14          1           0        0.666271   -0.059457    1.831649
     15          1           0        1.074310   -1.614870    1.092157
 ---------------------------------------------------------------------

 SCF Done:  E(RHF) =  -303.089570131     A.U. after    2 cycles

 The electronic state is 1-A.
 Alpha  occ. eigenvalues --  -15.55783 -15.51911 -11.33468 -11.29852 -11.28486
 Alpha  occ. eigenvalues --  -11.26082 -11.24863  -1.31117  -1.24185  -1.07245
 Alpha  occ. eigenvalues --   -1.02437  -0.90435  -0.83473  -0.75250  -0.71006
 Alpha  occ. eigenvalues --   -0.69289  -0.65247  -0.62033  -0.60581  -0.59136
 Alpha  occ. eigenvalues --   -0.57970  -0.55664  -0.51337  -0.50356  -0.43159
 Alpha  occ. eigenvalues --   -0.28977
 Alpha virt. eigenvalues --    0.03021   0.03757   0.04224   0.04503   0.05278
 Alpha virt. eigenvalues --    0.05345   0.06617   0.07496   0.08280   0.09400
 Alpha virt. eigenvalues --    0.10312   0.11962   0.12490   0.13504   0.14308

 Mulliken charges:
               1
     1  C   -0.549301
     2  C   -0.767364
     3  C   -0.096335
     4  N    1.042722
     5  C   -0.079648
     6  C   -1.195307
     7  N    0.863512
     8  H    0.303282
     9  H    0.254350
    10  H    0.103223
    11  H   -0.079642
    12  H   -0.120721
    13  H    0.006325
    14  H    0.162483
    15  H    0.152423
 Sum of Mulliken charges =  -0.00000

 Dipole moment (field-independent basis, Debye):
    X=             -2.7542    Y=             -0.6527    Z=              2.8894  Tot=              4.0448

 Test job not archived.
 1\1\GINC-SE454\SP\RHF\Aug-CC-pVDZ\C5H8N2\OHZDE\09-Apr-2025\0\\#t hf au
 g-cc-pvdz iop(5/13=1,5/36=2,99/5=2) pseudo=read geom=check guess=(read
 ,tcheck) scf=(maxcycle=1)\\title\\0,1\C,0,-1.39436463,-1.23601602,-0.1
 7493177\C,0,-1.04813434,0.17220406,-0.51982656\C,0,-0.2038139,1.733965
 32,0.56544829\N,0,0.16047348,0.70056891,-0.24348299\C,0,1.47092441,0.1
 1752564,-0.42529215\C,0,1.86877748,-0.76118222,0.68503935\N,0,2.153723
 98,-1.45999496,1.54834959\H,0,-1.45722574,-1.37400188,0.9110407\H,0,-0
 .62698736,-1.933965,-0.5269033\H,0,-2.34774718,-1.52954293,-0.61153994

 Normal termination of Gaussian 16 at Wed Apr  9 18:11:18 2025.
