 Gaussian 16, Revision C.01,

 ----------------------------------------------------------------------
 #t hf aug-cc-pvdz symm=none int=(grid=ultrafine) guess=(read,tcheck) s
 table=(opt,rrhf)
 ----------------------------------------------------------------------
 -----
 title
 -----
 Symbolic Z-matrix:
 Charge =  0 Multiplicity = 1

 SCF Done:  E(RHF) =  -320.112527546     A.U. after   19 cycles
 Normal termination of Gaussian 16 at Wed Apr  9 19:19:45 2025.
 Gaussian 16:  ES64L-G16RevC.01  3-Jul-2019

 ----------------------------------------------------------------------
 #t hf aug-cc-pvdz iop(5/13=1,5/36=2,99/5=2) pseudo=read geom=check gue
 ss=(read,tcheck) scf=(maxcycle=1)
 ----------------------------------------------------------------------
 -----
 title
 -----
 Structure from the checkpoint file:  "Grambow2020_wb97xd3_009369_reverse_mol1.chk"
 Charge =  0 Multiplicity = 1

                         Standard orientation:
 ---------------------------------------------------------------------
 Center     Atomic      Atomic             Coordinates (Angstroms)
 Number     Number       Type             X           Y           Z
 ---------------------------------------------------------------------
      1          6           0        2.955660   -0.267813   -0.001063
      2          6           0        1.833864    0.157929   -0.000163
      3          6           0        0.524536    0.621063    0.000732
      4          6           0       -0.376409    1.453079    0.001010
      5          8           0       -2.211273    0.262984   -0.001595
      6          7           0       -1.648241   -0.808065   -0.000252
      7          6           0       -0.560905   -1.288831    0.000815
      8          1           0        3.959017   -0.622660   -0.001299
      9          1           0       -0.966305    2.339519    0.002573
     10          1           0       -0.025323   -2.216842    0.005272
 ---------------------------------------------------------------------

 SCF Done:  E(RHF) =  -320.427872292     A.U. after    2 cycles

 The electronic state is 1-A.
 Alpha  occ. eigenvalues --  -20.59003 -15.65396 -11.33425 -11.29014 -11.27731
 Alpha  occ. eigenvalues --  -11.27361 -11.26053  -1.58145  -1.23619  -1.09782
 Alpha  occ. eigenvalues --   -1.03053  -0.85734  -0.82553  -0.76080  -0.73734
 Alpha  occ. eigenvalues --   -0.71537  -0.70013  -0.68814  -0.50185  -0.49967
 Alpha  occ. eigenvalues --   -0.41488  -0.41349  -0.38223  -0.37254
 Alpha virt. eigenvalues --    0.02964   0.03782   0.04185   0.06230   0.07970
 Alpha virt. eigenvalues --    0.08594   0.08874   0.09758   0.09892   0.11148
 Alpha virt. eigenvalues --    0.11729   0.12649   0.13747   0.13979   0.15393

 Mulliken charges:
               1
     1  C   -0.346345
     2  C    1.040848
     3  C    0.544051
     4  C   -0.336764
     5  O   -1.258261
     6  N    1.564546
     7  C   -0.276367
     8  H   -0.527419
     9  H   -0.419712
    10  H    0.015423
 Sum of Mulliken charges =  -0.00000

 Dipole moment (field-independent basis, Debye):
    X=              2.4843    Y=             -1.3038    Z=              0.0099  Tot=              2.8057

 Test job not archived.
 1\1\GINC-SE231\SP\RHF\Aug-CC-pVDZ\C5H3N1O1\OHZDE\09-Apr-2025\0\\#t hf
 aug-cc-pvdz iop(5/13=1,5/36=2,99/5=2) pseudo=read geom=check guess=(re
 ad,tcheck) scf=(maxcycle=1)\\title\\0,1\C,0,2.59271422,-0.11042012,0.3
 3644575\C,0,1.45199353,0.25434441,0.26303674\C,0,0.12317206,0.6472557,
 0.16983682\C,0,-0.83023256,1.41713341,0.21737856\O,0,-2.5518402,0.1792
 8529,-0.31820958\N,0,-1.91426405,-0.83835969,-0.46669379\C,0,-0.803661
 53,-1.25861799,-0.40852774\H,0,3.61094408,-0.41155731,0.40831321\H,0,-
 1.48068188,2.25332774,0.32438405\H,0,-0.20451566,-2.13900744,-0.526891

 Normal termination of Gaussian 16 at Wed Apr  9 19:19:49 2025.
