 Gaussian 16, Revision C.01,

 ----------------------------------------------------------------------
 #t hf aug-cc-pvdz symm=none int=(grid=ultrafine) guess=(read,tcheck) s
 table=(opt,rrhf)
 ----------------------------------------------------------------------
 -----
 title
 -----
 Symbolic Z-matrix:
 Charge =  0 Multiplicity = 1

 SCF Done:  E(RHF) =  -344.707341664     A.U. after   16 cycles

 1\1\GINC-SE402\Stability\RHF\Aug-CC-pVDZ\C5H10O2\OHZDE\09-Apr-2025\0\\
 #t hf aug-cc-pvdz symm=none int=(grid=ultrafine) guess=(read,tcheck) s
 table=(opt,rrhf)\\title\\0,1\C,0,1.98955107,-0.18009595,-0.64753142\C,
 0,0.88700553,0.34827014,0.26609775\O,0,0.03843717,1.15326796,-0.570490
 33\C,0,-1.25350407,1.20925813,-0.01365968\C,0,-1.79626446,-0.18877827,
 0.14581796\C,0,0.04294963,-0.63053401,1.00416154\O,0,-0.66766111,-1.53
 932044,0.00547924\H,0,2.46681452,0.6428825,-1.180636\H,0,1.60784077,-0
 .86737743,-1.40895334\H,0,2.7452683,-0.7035675,-0.06092002\H,0,1.34921

 Normal termination of Gaussian 16 at Wed Apr  9 03:39:42 2025.
 Gaussian 16:  ES64L-G16RevC.01  3-Jul-2019

 ----------------------------------------------------------------------
 #t hf aug-cc-pvdz iop(5/13=1,5/36=2,99/5=2) pseudo=read geom=check gue
 ss=(read,tcheck) scf=(maxcycle=1)
 ----------------------------------------------------------------------
 -----
 title
 -----
 Structure from the checkpoint file:  "Grambow2020_wb97xd3_007400_forward_mol1.chk"
 Charge =  0 Multiplicity = 1

                         Standard orientation:
 ---------------------------------------------------------------------
 Center     Atomic      Atomic             Coordinates (Angstroms)
 Number     Number       Type             X           Y           Z
 ---------------------------------------------------------------------
      1          6           0       -2.155963   -0.000385   -0.345789
      2          6           0       -0.908455   -0.303019    0.479821
      3          8           0       -0.148583   -1.248670   -0.292389
      4          6           0        1.210953   -1.160710    0.062901
      5          6           0        1.699046    0.250179   -0.150844
      6          6           0       -0.018340    0.825581    0.866067
      7          8           0        0.494675    1.518360   -0.392940
      8          1           0       -2.662126   -0.926311   -0.620985
      9          1           0       -1.922758    0.519142   -1.280417
     10          1           0       -2.845531    0.619431    0.228292
     11          1           0       -1.222272   -0.766764    1.427302
     12          1           0        1.737714   -1.849868   -0.605212
     13          1           0        1.373611   -1.447817    1.107273
     14          1           0        2.376747    0.643437    0.592119
     15          1           0        2.067439    0.404157   -1.172762
     16          1           0       -0.523409    1.572313    1.480736
     17          1           0       -0.111599    1.404880   -1.146656
 ---------------------------------------------------------------------

 SCF Done:  E(RHF) =  -345.067566208     A.U. after    2 cycles

 The electronic state is 1-A.
 Alpha  occ. eigenvalues --  -20.59434 -20.54080 -11.34806 -11.29490 -11.27181
 Alpha  occ. eigenvalues --  -11.22106 -11.21328  -1.48246  -1.45313  -1.05558
 Alpha  occ. eigenvalues --   -1.01349  -0.90891  -0.86015  -0.77900  -0.71271
 Alpha  occ. eigenvalues --   -0.69104  -0.65755  -0.64693  -0.59049  -0.58297
 Alpha  occ. eigenvalues --   -0.55905  -0.54373  -0.52565  -0.51704  -0.50905
 Alpha  occ. eigenvalues --   -0.45363  -0.41264  -0.27617
 Alpha virt. eigenvalues --    0.03397   0.03678   0.04310   0.04360   0.06003
 Alpha virt. eigenvalues --    0.06080   0.06290   0.07218   0.08315   0.09307
 Alpha virt. eigenvalues --    0.11082   0.11852   0.12854   0.13625   0.14497

 Mulliken charges:
               1
     1  C   -0.430717
     2  C    0.859775
     3  O   -1.463649
     4  C    0.481604
     5  C    0.282421
     6  C    0.415998
     7  O   -1.230260
     8  H    0.141737
     9  H    0.116127
    10  H    0.184720
    11  H    0.101000
    12  H   -0.009679
    13  H    0.221965
    14  H    0.116900
    15  H   -0.037765
    16  H   -0.198132
    17  H    0.447953
 Sum of Mulliken charges =  -0.00000

 Dipole moment (field-independent basis, Debye):
    X=              1.1347    Y=              0.0444    Z=             -1.2811  Tot=              1.7119

 Test job not archived.
 1\1\GINC-SE402\SP\RHF\Aug-CC-pVDZ\C5H10O2\OHZDE\09-Apr-2025\0\\#t hf a
 ug-cc-pvdz iop(5/13=1,5/36=2,99/5=2) pseudo=read geom=check guess=(rea
 d,tcheck) scf=(maxcycle=1)\\title\\0,1\C,0,1.98955107,-0.18009595,-0.6
 4753142\C,0,0.88700553,0.34827014,0.26609775\O,0,0.03843717,1.15326796
 ,-0.57049033\C,0,-1.25350407,1.20925813,-0.01365968\C,0,-1.79626446,-0
 .18877827,0.14581796\C,0,0.04294963,-0.63053401,1.00416154\O,0,-0.6676
 6111,-1.53932044,0.00547924\H,0,2.46681452,0.6428825,-1.180636\H,0,1.6
 0784077,-0.86737743,-1.40895334\H,0,2.7452683,-0.7035675,-0.06092002\H

 Normal termination of Gaussian 16 at Wed Apr  9 03:39:48 2025.
