 Gaussian 16, Revision C.01,

 ----------------------------------------------------------------------
 #t hf aug-cc-pvdz symm=none int=(grid=ultrafine) guess=(read,tcheck) s
 table=(opt,rrhf)
 ----------------------------------------------------------------------
 -----
 title
 -----
 Symbolic Z-matrix:
 Charge =  0 Multiplicity = 1

 SCF Done:  E(RHF) =  -302.851210670     A.U. after   14 cycles
 Normal termination of Gaussian 16 at Wed Apr  9 18:12:19 2025.
 Gaussian 16:  ES64L-G16RevC.01  3-Jul-2019

 ----------------------------------------------------------------------
 #t hf aug-cc-pvdz iop(5/13=1,5/36=2,99/5=2) pseudo=read geom=check gue
 ss=(read,tcheck) scf=(maxcycle=1)
 ----------------------------------------------------------------------
 -----
 title
 -----
 Structure from the checkpoint file:  "Grambow2020_wb97xd3_007177_reverse_mol2.chk"
 Charge =  0 Multiplicity = 1

                         Standard orientation:
 ---------------------------------------------------------------------
 Center     Atomic      Atomic             Coordinates (Angstroms)
 Number     Number       Type             X           Y           Z
 ---------------------------------------------------------------------
      1          6           0       -1.922663    1.354081   -0.093342
      2          6           0       -1.132656    0.190391    0.430441
      3          6           0       -1.382459   -1.205038    0.001523
      4          7           0       -0.230477   -0.470812   -0.497491
      5          6           0        1.037793   -0.891038    0.041898
      6          6           0        2.718703    1.071603   -0.015121
      7          7           0        1.968935    0.182570    0.002062
      8          1           0       -2.243652    1.163659   -1.117863
      9          1           0       -1.317581    2.262201   -0.089136
     10          1           0       -2.807097    1.528464    0.522636
     11          1           0       -0.758289    0.301680    1.447072
     12          1           0       -1.208662   -1.996838    0.725139
     13          1           0       -2.146781   -1.420229   -0.735911
     14          1           0        0.971444   -1.230020    1.086196
     15          1           0        1.429105   -1.711221   -0.562522
 ---------------------------------------------------------------------

 SCF Done:  E(RHF) =  -303.165748077     A.U. after    2 cycles

 The electronic state is 1-A.
 Alpha  occ. eigenvalues --  -15.53073 -15.51845 -11.33902 -11.28018 -11.27970
 Alpha  occ. eigenvalues --  -11.27683 -11.23494  -1.31842  -1.26855  -1.07471
 Alpha  occ. eigenvalues --   -0.99513  -0.89154  -0.83452  -0.78113  -0.71647
 Alpha  occ. eigenvalues --   -0.69019  -0.63782  -0.59560  -0.58612  -0.54272
 Alpha  occ. eigenvalues --   -0.53064  -0.51932  -0.50047  -0.48742  -0.47831
 Alpha  occ. eigenvalues --   -0.42443
 Alpha virt. eigenvalues --    0.03169   0.03993   0.04050   0.04450   0.05336
 Alpha virt. eigenvalues --    0.05525   0.06422   0.07933   0.09367   0.10836
 Alpha virt. eigenvalues --    0.11299   0.11999   0.12751   0.13281   0.13851

 Mulliken charges:
               1
     1  C   -0.492117
     2  C   -0.584989
     3  C    0.410791
     4  N    0.648968
     5  C   -0.695851
     6  C   -0.594938
     7  N    0.968876
     8  H    0.177392
     9  H    0.231552
    10  H    0.225828
    11  H   -0.176109
    12  H   -0.094135
    13  H   -0.091454
    14  H    0.045907
    15  H    0.020279
 Sum of Mulliken charges =  -0.00000

 Dipole moment (field-independent basis, Debye):
    X=             -2.9404    Y=             -2.5358    Z=              1.5707  Tot=              4.1885

 Test job not archived.
 1\1\GINC-SE162\SP\RHF\Aug-CC-pVDZ\C5H8N2\OHZDE\09-Apr-2025\0\\#t hf au
 g-cc-pvdz iop(5/13=1,5/36=2,99/5=2) pseudo=read geom=check guess=(read
 ,tcheck) scf=(maxcycle=1)\\title\\0,1\C,0,-1.78929717,-0.95453446,0.15
 304545\C,0,-0.73333758,0.01182574,-0.29832014\C,0,-0.51875981,1.324926
 11,0.35230964\N,0,0.39801004,0.22112019,0.58961214\C,0,1.68526813,0.35
 380003,-0.0439508\C,0,2.70168365,-1.98184814,-0.48249054\N,0,2.2530521
 8,-0.92862856,-0.27685912\H,0,-1.95369339,-0.86170511,1.22696155\H,0,-
 1.48568621,-1.98130912,-0.05761636\H,0,-2.73276084,-0.76336955,-0.3621

 Normal termination of Gaussian 16 at Wed Apr  9 18:12:24 2025.
