 Gaussian 16, Revision C.01,

 ----------------------------------------------------------------------
 #t hf aug-cc-pvdz symm=none int=(grid=ultrafine) guess=(read,tcheck) s
 table=(opt,rrhf)
 ----------------------------------------------------------------------
 -----
 title
 -----
 Symbolic Z-matrix:
 Charge =  0 Multiplicity = 1

 SCF Done:  E(RHF) =  -284.740365386     A.U. after   15 cycles
 Normal termination of Gaussian 16 at Wed Apr  9 03:06:51 2025.
 Gaussian 16:  ES64L-G16RevC.01  3-Jul-2019

 ----------------------------------------------------------------------
 #t hf aug-cc-pvdz iop(5/13=1,5/36=2,99/5=2) pseudo=read geom=check gue
 ss=(read,tcheck) scf=(maxcycle=1)
 ----------------------------------------------------------------------
 -----
 title
 -----
 Structure from the checkpoint file:  "Grambow2020_b97d3_006529_forward_mol1.chk"
 Charge =  0 Multiplicity = 1

                         Standard orientation:
 ---------------------------------------------------------------------
 Center     Atomic      Atomic             Coordinates (Angstroms)
 Number     Number       Type             X           Y           Z
 ---------------------------------------------------------------------
      1          6           0       -0.091470    1.320129   -0.366166
      2          6           0       -1.251558    0.539471    0.241911
      3          8           0       -1.132677   -0.895594   -0.047068
      4          6           0        0.090281   -1.461898   -0.077087
      5          7           0        1.222434   -0.749907    0.110725
      6          6           0        1.208959    0.737776    0.191179
      7          1           0       -0.115191    1.211319   -1.460695
      8          1           0       -0.190544    2.391039   -0.135885
      9          1           0       -1.281547    0.665050    1.333999
     10          1           0       -2.221919    0.829262   -0.175863
     11          1           0        1.149766   -1.602051   -0.816695
     12          1           0        2.098103    1.105588   -0.336053
     13          1           0        1.328441    1.001025    1.253651
 ---------------------------------------------------------------------

 SCF Done:  E(RHF) =  -285.032330204     A.U. after    2 cycles

 The electronic state is 1-A.
 Alpha  occ. eigenvalues --  -20.58089 -15.53044 -11.31777 -11.30782 -11.28419
 Alpha  occ. eigenvalues --  -11.25749  -1.49642  -1.24024  -1.08496  -0.95473
 Alpha  occ. eigenvalues --   -0.88787  -0.74404  -0.71981  -0.68152  -0.65593
 Alpha  occ. eigenvalues --   -0.62466  -0.59993  -0.56990  -0.54666  -0.50045
 Alpha  occ. eigenvalues --   -0.46591  -0.44987  -0.36284
 Alpha virt. eigenvalues --    0.03059   0.03789   0.03932   0.04654   0.06171
 Alpha virt. eigenvalues --    0.06510   0.07070   0.09916   0.10584   0.12561
 Alpha virt. eigenvalues --    0.12918   0.13800   0.13948   0.14770   0.14952

 Mulliken charges:
               1
     1  C   -0.420620
     2  C    0.565592
     3  O   -1.132755
     4  C   -0.207677
     5  N    0.364516
     6  C   -0.512279
     7  H    0.148671
     8  H    0.204766
     9  H    0.132021
    10  H    0.060350
    11  H    0.541583
    12  H    0.104946
    13  H    0.150887
 Sum of Mulliken charges =  -0.00000

 Dipole moment (field-independent basis, Debye):
    X=             -0.2007    Y=              3.9968    Z=             -0.4477  Tot=              4.0268

 Test job not archived.
 1\1\GINC-SE095\SP\RHF\Aug-CC-pVDZ\C4H7N1O1\OHZDE\09-Apr-2025\0\\#t hf
 aug-cc-pvdz iop(5/13=1,5/36=2,99/5=2) pseudo=read geom=check guess=(re
 ad,tcheck) scf=(maxcycle=1)\\title\\0,1\C,0,0.4975581,-0.68805331,0.53
 384194\C,0,-0.81321356,-1.06458836,-0.14813087\O,0,-1.74713743,0.06883
 823,-0.16173076\C,0,-1.26451881,1.31755024,-0.3199251\N,0,0.05693046,1
 .57449179,-0.42821679\C,0,1.0822659,0.51648506,-0.2064887\H,0,0.298018
 32,-0.425535,1.58344295\H,0,1.188505,-1.54378199,0.53030787\H,0,-0.640
 83266,-1.37561846,-1.18874159\H,0,-1.34963657,-1.86246595,0.37699235\H

 Normal termination of Gaussian 16 at Wed Apr  9 03:06:55 2025.
