 Gaussian 16, Revision C.01,

 ----------------------------------------------------------------------
 #t hf aug-cc-pvdz symm=none int=(grid=ultrafine) guess=(read,tcheck) s
 table=(opt,rrhf)
 ----------------------------------------------------------------------
 -----
 title
 -----
 Symbolic Z-matrix:
 Charge =  0 Multiplicity = 1

 SCF Done:  E(RHF) =  -305.620391209     A.U. after   15 cycles
 Normal termination of Gaussian 16 at Wed Apr  9 03:16:04 2025.
 Gaussian 16:  ES64L-G16RevC.01  3-Jul-2019

 ----------------------------------------------------------------------
 #t hf aug-cc-pvdz iop(5/13=1,5/36=2,99/5=2) pseudo=read geom=check gue
 ss=(read,tcheck) scf=(maxcycle=1)
 ----------------------------------------------------------------------
 -----
 title
 -----
 Structure from the checkpoint file:  "Grambow2020_b97d3_006972_forward_mol1.chk"
 Charge =  0 Multiplicity = 1

                         Standard orientation:
 ---------------------------------------------------------------------
 Center     Atomic      Atomic             Coordinates (Angstroms)
 Number     Number       Type             X           Y           Z
 ---------------------------------------------------------------------
      1          8           0        1.921932   -0.887782   -0.129991
      2          6           0        1.629907    0.436134    0.282126
      3          6           0        0.371369    1.014245   -0.402737
      4          6           0       -0.859330    0.283190   -0.019624
      5          6           0       -2.334594    0.031384   -0.033559
      6          8           0       -1.034483   -0.985655    0.037847
      7          1           0        1.181502   -1.454159    0.158330
      8          1           0        1.498184    0.520730    1.375487
      9          1           0        2.496761    1.044312   -0.004798
     10          1           0        0.242034    2.080399   -0.175716
     11          1           0        0.469458    0.907843   -1.498229
     12          1           0       -1.125072    0.845818    1.656967
     13          1           0       -2.725683   -0.157076   -1.052513
     14          1           0       -1.980897    0.609911    1.320394
 ---------------------------------------------------------------------

 SCF Done:  E(RHF) =  -305.934957782     A.U. after    2 cycles

 The electronic state is 1-A.
 Alpha  occ. eigenvalues --  -20.61081 -20.56138 -11.40510 -11.31538 -11.29751
 Alpha  occ. eigenvalues --  -11.29163  -1.54892  -1.45910  -1.09217  -0.96558
 Alpha  occ. eigenvalues --   -0.90983  -0.79073  -0.72647  -0.70842  -0.67607
 Alpha  occ. eigenvalues --   -0.65308  -0.60347  -0.58825  -0.56220  -0.53345
 Alpha  occ. eigenvalues --   -0.50242  -0.46298  -0.43576  -0.35853
 Alpha virt. eigenvalues --    0.03010   0.03521   0.04109   0.04877   0.06205
 Alpha virt. eigenvalues --    0.06887   0.07142   0.09020   0.09202   0.10749
 Alpha virt. eigenvalues --    0.11842   0.12555   0.13142   0.13537   0.15209

 Mulliken charges:
               1
     1  O   -1.165569
     2  C    0.744692
     3  C   -0.821258
     4  C    0.900042
     5  C    0.055599
     6  O   -1.247217
     7  H    0.408676
     8  H    0.181412
     9  H    0.054561
    10  H    0.252924
    11  H    0.332741
    12  H    0.013989
    13  H    0.022274
    14  H    0.267133
 Sum of Mulliken charges =   0.00000

 Dipole moment (field-independent basis, Debye):
    X=              0.8431    Y=              2.3858    Z=             -1.3795  Tot=              2.8820

 Test job not archived.
 1\1\GINC-SE273\SP\RHF\Aug-CC-pVDZ\C4H8O2\OHZDE\09-Apr-2025\0\\#t hf au
 g-cc-pvdz iop(5/13=1,5/36=2,99/5=2) pseudo=read geom=check guess=(read
 ,tcheck) scf=(maxcycle=1)\\title\\0,1\O,0,2.02207588,0.93891838,0.4507
 7903\C,0,1.63333639,-0.25394353,-0.20788271\C,0,0.29765123,-0.82336657
 ,0.32019671\C,0,-0.84390647,0.07971848,0.04248942\C,0,-2.29000203,0.46
 513498,0.05874278\O,0,-0.9028053,1.34875815,0.21574732\H,0,1.34923077,
 1.61659821,0.25033139\H,0,1.54614389,-0.12557861,-1.30143921\H,0,2.428
 31946,-0.98440553,-0.01277247\H,0,0.08496857,-1.81317377,-0.10406728\H

 Normal termination of Gaussian 16 at Wed Apr  9 03:16:09 2025.
