 Gaussian 16, Revision C.01,

 ----------------------------------------------------------------------
 #t hf aug-cc-pvdz symm=none int=(grid=ultrafine) guess=(read,tcheck) s
 table=(opt,rrhf)
 ----------------------------------------------------------------------
 -----
 title
 -----
 Symbolic Z-matrix:
 Charge =  0 Multiplicity = 1

 SCF Done:  E(RHF) =  -339.790390321     A.U. after   17 cycles
 Normal termination of Gaussian 16 at Wed Apr  9 03:33:28 2025.
 Gaussian 16:  ES64L-G16RevC.01  3-Jul-2019

 ----------------------------------------------------------------------
 #t hf aug-cc-pvdz iop(5/13=1,5/36=2,99/5=2) pseudo=read geom=check gue
 ss=(read,tcheck) scf=(maxcycle=1)
 ----------------------------------------------------------------------
 -----
 title
 -----
 Structure from the checkpoint file:  "Grambow2020_wb97xd3_007004_forward_mol1.chk"
 Charge =  0 Multiplicity = 1

                         Standard orientation:
 ---------------------------------------------------------------------
 Center     Atomic      Atomic             Coordinates (Angstroms)
 Number     Number       Type             X           Y           Z
 ---------------------------------------------------------------------
      1          6           0        2.105280   -0.810508    0.597512
      2          6           0        0.868568   -0.446101   -0.166444
      3          8           0        0.203826   -1.270850   -0.764929
      4          6           0       -1.605609    0.724582    0.428700
      5          7           0       -2.261030   -0.596696    0.087930
      6          6           0        0.543422    0.989896   -0.151518
      7          7           0        0.930461    2.079737   -0.325764
      8          1           0        2.940737   -0.221504    0.214095
      9          1           0        2.307941   -1.876003    0.513857
     10          1           0        1.976137   -0.525808    1.643932
     11          1           0       -1.617726   -1.065661   -0.567820
     12          1           0       -1.960508    1.451991   -0.299290
     13          1           0       -1.929808    1.011514    1.429723
     14          1           0       -3.197673   -0.549083   -0.311874
     15          1           0       -2.305687   -1.187154    0.912151
 ---------------------------------------------------------------------

 SCF Done:  E(RHF) =  -340.139727533     A.U. after    2 cycles

 The electronic state is 1-A.
 Alpha  occ. eigenvalues --  -20.55769 -15.61679 -15.46205 -11.37381 -11.26273
 Alpha  occ. eigenvalues --  -11.25211 -11.21496  -1.49624  -1.28989  -1.18906
 Alpha  occ. eigenvalues --   -1.04036  -0.90825  -0.87367  -0.79802  -0.79032
 Alpha  occ. eigenvalues --   -0.70803  -0.65226  -0.63469  -0.61911  -0.58796
 Alpha  occ. eigenvalues --   -0.56124  -0.53449  -0.53099  -0.48026  -0.45763
 Alpha  occ. eigenvalues --   -0.45132  -0.29204
 Alpha virt. eigenvalues --    0.01239   0.03611   0.04314   0.04761   0.05949
 Alpha virt. eigenvalues --    0.06404   0.06897   0.07336   0.09536   0.10578
 Alpha virt. eigenvalues --    0.11302   0.12040   0.12922   0.13149   0.14725

 Mulliken charges:
               1
     1  C   -0.360000
     2  C    1.343862
     3  O   -1.369019
     4  C   -0.702947
     5  N    0.150599
     6  C   -1.648401
     7  N    1.032075
     8  H    0.305064
     9  H    0.111900
    10  H    0.329197
    11  H    0.229017
    12  H    0.042837
    13  H   -0.002910
    14  H    0.248627
    15  H    0.290099
 Sum of Mulliken charges =  -0.00000

 Dipole moment (field-independent basis, Debye):
    X=             -4.3890    Y=             -6.1595    Z=              1.8832  Tot=              7.7942

 Test job not archived.
 1\1\GINC-SE403\SP\RHF\Aug-CC-pVDZ\C4H8N2O1\OHZDE\09-Apr-2025\0\\#t hf
 aug-cc-pvdz iop(5/13=1,5/36=2,99/5=2) pseudo=read geom=check guess=(re
 ad,tcheck) scf=(maxcycle=1)\\title\\0,1\C,0,1.1978343,2.11498573,0.012
 26122\C,0,0.7294709,0.77681703,0.49787278\O,0,-0.08575054,0.65550362,1
 .39284327\C,0,-0.56416759,-1.44181951,-0.6203406\N,0,-1.74927265,-1.14
 33383,0.27291808\C,0,1.35531979,-0.37104521,-0.17944271\N,0,2.35322639
 ,-0.88058136,-0.5148065\H,0,2.28499636,2.15975544,0.10168893\H,0,0.726
 28118,2.91520731,0.57850468\H,0,0.96732157,2.21033834,-1.05098844\H,0,

 Normal termination of Gaussian 16 at Wed Apr  9 03:33:33 2025.
