 Gaussian 16, Revision C.01,

 ----------------------------------------------------------------------
 #t hf aug-cc-pvdz symm=none int=(grid=ultrafine) guess=(read,tcheck) s
 table=(opt,rrhf)
 ----------------------------------------------------------------------
 -----
 title
 -----
 Symbolic Z-matrix:
 Charge =  0 Multiplicity = 1

 SCF Done:  E(RHF) =  -306.405127483     A.U. after   18 cycles
 Normal termination of Gaussian 16 at Wed Apr  9 04:05:55 2025.
 Gaussian 16:  ES64L-G16RevC.01  3-Jul-2019

 ----------------------------------------------------------------------
 #t hf aug-cc-pvdz iop(5/13=1,5/36=2,99/5=2) pseudo=read geom=check gue
 ss=(read,tcheck) scf=(maxcycle=1)
 ----------------------------------------------------------------------
 -----
 title
 -----
 Structure from the checkpoint file:  "Grambow2020_wb97xd3_009207_forward_mol1.chk"
 Charge =  0 Multiplicity = 1

                         Standard orientation:
 ---------------------------------------------------------------------
 Center     Atomic      Atomic             Coordinates (Angstroms)
 Number     Number       Type             X           Y           Z
 ---------------------------------------------------------------------
      1          6           0        3.378128   -0.206267    0.024253
      2          6           0        1.942645   -0.048844   -0.038773
      3          6           0        0.711417    0.009339   -0.132830
      4          6           0       -0.457219    1.035175    0.276081
      5          6           0       -1.607026    0.390261   -0.401815
      6          6           0       -1.577410   -0.989454    0.031435
      7          8           0       -2.762249   -0.235463    0.141651
      8          1           0        3.728946   -0.246304    1.056716
      9          1           0        3.668518   -1.141661   -0.466175
     10          1           0        3.883643    0.609104   -0.496707
     11          1           0       -0.157584    2.013546   -0.096793
     12          1           0       -0.544820    1.055493    1.360887
     13          1           0       -1.692608    0.574731   -1.470528
     14          1           0        0.036382   -0.936004   -0.601903
     15          1           0       -1.167693   -1.186455    1.031187
 ---------------------------------------------------------------------

 SCF Done:  E(RHF) =  -306.722100487     A.U. after    2 cycles

 The electronic state is 1-A.
 Alpha  occ. eigenvalues --  -20.54514 -11.32831 -11.30904 -11.28703 -11.28154
 Alpha  occ. eigenvalues --  -11.25651 -11.23226  -1.47333  -1.13704  -1.07049
 Alpha  occ. eigenvalues --   -0.99715  -0.86445  -0.79663  -0.73005  -0.67482
 Alpha  occ. eigenvalues --   -0.65691  -0.64984  -0.64082  -0.62063  -0.57832
 Alpha  occ. eigenvalues --   -0.54142  -0.52115  -0.44609  -0.43728  -0.39189
 Alpha  occ. eigenvalues --   -0.24711
 Alpha virt. eigenvalues --   -0.00024   0.01548   0.03271   0.03475   0.04858
 Alpha virt. eigenvalues --    0.05735   0.06259   0.06876   0.07544   0.09516
 Alpha virt. eigenvalues --    0.10838   0.11402   0.11718   0.13173   0.13309

 Mulliken charges:
               1
     1  C   -0.875803
     2  C   -0.470128
     3  C    0.488524
     4  C   -0.423279
     5  C    1.302934
     6  C   -0.279088
     7  O   -1.314580
     8  H    0.271237
     9  H    0.285800
    10  H    0.274228
    11  H    0.109752
    12  H    0.202000
    13  H    0.060811
    14  H    0.403881
    15  H   -0.036288
 Sum of Mulliken charges =   0.00000

 Dipole moment (field-independent basis, Debye):
    X=              8.0870    Y=              2.4579    Z=              0.4597  Tot=              8.4648

 Test job not archived.
 1\1\GINC-SE229\SP\RHF\Aug-CC-pVDZ\C6H8O1\OHZDE\09-Apr-2025\0\\#t hf au
 g-cc-pvdz iop(5/13=1,5/36=2,99/5=2) pseudo=read geom=check guess=(read
 ,tcheck) scf=(maxcycle=1)\\title\\0,1\C,0,2.39303527,-1.13160089,-1.33
 622436\C,0,1.19644732,-0.52979504,-0.79274245\C,0,0.1294902,-0.0846514
 ,-0.35501824\C,0,-0.37306874,1.23542058,0.4131632\C,0,-1.83807093,1.01
 523636,0.36023357\C,0,-2.03906903,-0.32289314,0.87131498\O,0,-2.767837
 28,0.75825641,1.40470504\H,0,3.12971249,-1.32737142,-0.55543279\H,0,2.
 14295603,-2.08705553,-1.80990578\H,0,2.83919093,-0.49230261,-2.1004356

 Normal termination of Gaussian 16 at Wed Apr  9 04:06:01 2025.
