 Gaussian 16, Revision C.01,

 ----------------------------------------------------------------------
 #t hf aug-cc-pvdz symm=none int=(grid=ultrafine) guess=(read,tcheck) s
 table=(opt,rrhf)
 ----------------------------------------------------------------------
 -----
 title
 -----
 Symbolic Z-matrix:
 Charge =  0 Multiplicity = 1

 SCF Done:  E(RHF) =  -302.790960973     A.U. after   15 cycles
 Normal termination of Gaussian 16 at Wed Apr  9 19:12:02 2025.
 Gaussian 16:  ES64L-G16RevC.01  3-Jul-2019

 ----------------------------------------------------------------------
 #t hf aug-cc-pvdz iop(5/13=1,5/36=2,99/5=2) pseudo=read geom=check gue
 ss=(read,tcheck) scf=(maxcycle=1)
 ----------------------------------------------------------------------
 -----
 title
 -----
 Structure from the checkpoint file:  "Grambow2020_wb97xd3_008882_reverse_mol1.chk"
 Charge =  0 Multiplicity = 1

                         Standard orientation:
 ---------------------------------------------------------------------
 Center     Atomic      Atomic             Coordinates (Angstroms)
 Number     Number       Type             X           Y           Z
 ---------------------------------------------------------------------
      1          6           0        2.423418   -0.559669    0.062912
      2          7           0        1.064991   -0.097908   -0.083291
      3          6           0        0.626942    1.220253   -0.014558
      4          6           0       -0.814237    1.301119   -0.082665
      5          6           0       -1.173462   -0.088819   -0.025366
      6          7           0       -2.502997   -0.536038   -0.041382
      7          6           0       -0.051867   -0.878097   -0.078277
      8          1           0        2.638896   -0.877908    1.086842
      9          1           0        2.614687   -1.392938   -0.613942
     10          1           0        3.101270    0.252196   -0.197550
     11          1           0        1.321811    2.017554   -0.248380
     12          1           0        0.107831    1.493685    1.034597
     13          1           0       -3.130662    0.233577    0.134758
     14          1           0       -2.693888   -1.300900    0.586165
     15          1           0        0.041333   -1.956368   -0.082047
 ---------------------------------------------------------------------

 SCF Done:  E(RHF) =  -303.109257974     A.U. after    2 cycles

 The electronic state is 1-A.
 Alpha  occ. eigenvalues --  -15.54109 -15.48317 -11.28982 -11.28274 -11.27721
 Alpha  occ. eigenvalues --  -11.24712 -11.21774  -1.31256  -1.18900  -1.08436
 Alpha  occ. eigenvalues --   -1.00886  -0.94207  -0.80121  -0.79216  -0.73107
 Alpha  occ. eigenvalues --   -0.68911  -0.67309  -0.64590  -0.60419  -0.58605
 Alpha  occ. eigenvalues --   -0.57585  -0.55665  -0.48867  -0.42629  -0.34911
 Alpha  occ. eigenvalues --   -0.31359
 Alpha virt. eigenvalues --    0.02827   0.03745   0.04208   0.04445   0.05413
 Alpha virt. eigenvalues --    0.05857   0.07309   0.08330   0.09255   0.09736
 Alpha virt. eigenvalues --    0.11077   0.11580   0.13383   0.14257   0.14370

 Mulliken charges:
               1
     1  C   -0.361031
     2  N    0.867851
     3  C   -0.531475
     4  C   -0.748273
     5  C   -0.538742
     6  N    0.602419
     7  C   -0.029073
     8  H    0.177579
     9  H    0.097339
    10  H    0.051665
    11  H   -0.090001
    12  H    0.550058
    13  H    0.087107
    14  H    0.108010
    15  H   -0.243434
 Sum of Mulliken charges =  -0.00000

 Dipole moment (field-independent basis, Debye):
    X=              3.5440    Y=             -2.4683    Z=              1.7942  Tot=              4.6767

 Test job not archived.
 1\1\GINC-SE231\SP\RHF\Aug-CC-pVDZ\C5H8N2\OHZDE\09-Apr-2025\0\\#t hf au
 g-cc-pvdz iop(5/13=1,5/36=2,99/5=2) pseudo=read geom=check guess=(read
 ,tcheck) scf=(maxcycle=1)\\title\\0,1\C,0,2.2317844,0.14399727,-0.0762
 9671\N,0,0.82510327,-0.04155018,0.18205309\C,0,0.19952726,-1.23016337,
 0.54262531\C,0,-1.23597165,-1.07429784,0.59939451\C,0,-1.39190433,0.25
 510199,0.07725073\N,0,-2.64198968,0.87008756,-0.08707522\C,0,-0.167029
 72,0.84621336,-0.10715348\H,0,2.46455567,0.07119425,-1.14243804\H,0,2.
 55883486,1.11710621,0.29132844\H,0,2.79166689,-0.62529167,0.45396176\H

 Normal termination of Gaussian 16 at Wed Apr  9 19:12:07 2025.
