 Gaussian 16, Revision C.01,

 ----------------------------------------------------------------------
 #t hf aug-cc-pvdz symm=none int=(grid=ultrafine) guess=(read,tcheck) s
 table=(opt,rrhf)
 ----------------------------------------------------------------------
 -----
 title
 -----
 Symbolic Z-matrix:
 Charge =  0 Multiplicity = 1

 SCF Done:  E(RHF) =  -323.797450076     A.U. after   15 cycles
 Normal termination of Gaussian 16 at Wed Apr  9 18:28:31 2025.
 Gaussian 16:  ES64L-G16RevC.01  3-Jul-2019

 ----------------------------------------------------------------------
 #t hf aug-cc-pvdz iop(5/13=1,5/36=2,99/5=2) pseudo=read geom=check gue
 ss=(read,tcheck) scf=(maxcycle=1)
 ----------------------------------------------------------------------
 -----
 title
 -----
 Structure from the checkpoint file:  "Grambow2020_wb97xd3_007604_reverse_mol2.chk"
 Charge =  0 Multiplicity = 1

                         Standard orientation:
 ---------------------------------------------------------------------
 Center     Atomic      Atomic             Coordinates (Angstroms)
 Number     Number       Type             X           Y           Z
 ---------------------------------------------------------------------
      1          6           0        1.019915    1.521350    0.499322
      2          6           0        1.171854    0.404201   -0.503759
      3          7           0        1.754074   -0.862094    0.022509
      4          6           0        0.350599   -0.813199   -0.627695
      5          6           0       -0.714508   -1.028042    0.417302
      6          6           0       -1.960134   -0.221704    0.163786
      7          8           0       -2.009677    0.794587   -0.473632
      8          1           0        0.578336    1.185746    1.439072
      9          1           0        1.975045    2.005530    0.717864
     10          1           0        0.346391    2.266230    0.075504
     11          1           0        1.674082    0.729278   -1.413267
     12          1           0        2.483170   -1.334165   -0.487614
     13          1           0        1.872238   -0.886297    1.028837
     14          1           0       -0.447120   -0.766354    1.464493
     15          1           0       -1.012042   -2.080569    0.462259
     16          1           0       -2.877561   -0.617062    0.650607
 ---------------------------------------------------------------------

 SCF Done:  E(RHF) =  -324.137435924     A.U. after    2 cycles

 The electronic state is 1-A.
 Alpha  occ. eigenvalues --  -20.53292 -15.57855 -11.32975 -11.27780 -11.23694
 Alpha  occ. eigenvalues --  -11.23566 -11.20973  -1.46800  -1.29809  -1.04223
 Alpha  occ. eigenvalues --   -1.01343  -0.92977  -0.82340  -0.77770  -0.74448
 Alpha  occ. eigenvalues --   -0.67803  -0.65677  -0.61700  -0.60985  -0.58695
 Alpha  occ. eigenvalues --   -0.55912  -0.54378  -0.52000  -0.49435  -0.45439
 Alpha  occ. eigenvalues --   -0.40328  -0.29827
 Alpha virt. eigenvalues --    0.02268   0.03672   0.03953   0.04514   0.05582
 Alpha virt. eigenvalues --    0.05901   0.06536   0.07170   0.08122   0.11195
 Alpha virt. eigenvalues --    0.12009   0.12571   0.12757   0.14218   0.14487

 Mulliken charges:
               1
     1  C   -0.403164
     2  C   -0.051679
     3  N    0.690164
     4  C   -0.858413
     5  C   -0.330325
     6  C    1.055602
     7  O   -1.172866
     8  H    0.087011
     9  H    0.148017
    10  H    0.271506
    11  H   -0.168851
    12  H    0.149497
    13  H    0.085585
    14  H    0.304382
    15  H    0.090457
    16  H    0.103077
 Sum of Mulliken charges =   0.00000

 Dipole moment (field-independent basis, Debye):
    X=              3.5848    Y=             -0.9043    Z=              3.6209  Tot=              5.1749

 Test job not archived.
 1\1\GINC-SE103\SP\RHF\Aug-CC-pVDZ\C5H9N1O1\OHZDE\09-Apr-2025\0\\#t hf
 aug-cc-pvdz iop(5/13=1,5/36=2,99/5=2) pseudo=read geom=check guess=(re
 ad,tcheck) scf=(maxcycle=1)\\title\\0,1\C,0,-1.29502966,-0.09330767,1.
 1225237\C,0,-1.15180674,-0.19715409,-0.37613662\N,0,-0.85987887,1.0789
 1335,-1.08738289\C,0,0.08942455,-0.14056156,-1.16861657\C,0,1.36617657
 ,0.14336911,-0.41900616\C,0,1.92386775,-1.0698656,0.27603193\O,0,1.285
 06589,-2.02750336,0.61730386\H,0,-0.50198127,0.49982334,1.58080463\H,0
 ,-2.25884333,0.33353244,1.41120161\H,0,-1.22616661,-1.09840597,1.53862

 Normal termination of Gaussian 16 at Wed Apr  9 18:28:37 2025.
