 Gaussian 16, Revision C.01,

 ----------------------------------------------------------------------
 #t hf aug-cc-pvdz symm=none int=(grid=ultrafine) guess=(read,tcheck) s
 table=(opt,rrhf)
 ----------------------------------------------------------------------
 -----
 title
 -----
 Symbolic Z-matrix:
 Charge =  0 Multiplicity = 1

 SCF Done:  E(RHF) =  -359.557590190     A.U. after   16 cycles
 Normal termination of Gaussian 16 at Wed Apr  9 17:26:31 2025.
 Gaussian 16:  ES64L-G16RevC.01  3-Jul-2019

 ----------------------------------------------------------------------
 #t hf aug-cc-pvdz iop(5/13=1,5/36=2,99/5=2) pseudo=read geom=check gue
 ss=(read,tcheck) scf=(maxcycle=1)
 ----------------------------------------------------------------------
 -----
 title
 -----
 Structure from the checkpoint file:  "Grambow2020_wb97xd3_006600_forward_mol1.chk"
 Charge =  0 Multiplicity = 1

                         Standard orientation:
 ---------------------------------------------------------------------
 Center     Atomic      Atomic             Coordinates (Angstroms)
 Number     Number       Type             X           Y           Z
 ---------------------------------------------------------------------
      1          6           0        2.218840   -0.659596   -0.185382
      2          7           0        1.223179    1.462298   -0.056665
      3          6           0        0.191149    0.869568    0.135798
      4          6           0       -1.307530    0.989662    0.091411
      5          8           0       -1.746750   -0.252558   -0.443637
      6          6           0       -0.918492   -1.251966    0.091783
      7          8           0        0.319225   -0.620318    0.370763
      8          1           0        2.313383   -0.282406   -1.190511
      9          1           0        2.828688   -0.174671    0.558088
     10          1           0        2.092001   -1.727898   -0.074556
     11          1           0       -1.619289    1.783090   -0.581754
     12          1           0       -1.727707    1.161082    1.090226
     13          1           0       -0.796829   -2.045189   -0.648755
     14          1           0       -1.336090   -1.653096    1.025239
 ---------------------------------------------------------------------

 SCF Done:  E(RHF) =  -359.919493576     A.U. after    2 cycles

 The electronic state is 1-A.
 Alpha  occ. eigenvalues --  -20.57756 -20.56322 -15.42226 -11.37621 -11.35486
 Alpha  occ. eigenvalues --  -11.29684 -11.28337  -1.53532  -1.43627  -1.15970
 Alpha  occ. eigenvalues --   -0.99879  -0.99215  -0.88333  -0.77336  -0.72180
 Alpha  occ. eigenvalues --   -0.69650  -0.66510  -0.65523  -0.63101  -0.59974
 Alpha  occ. eigenvalues --   -0.56454  -0.53817  -0.51748  -0.50272  -0.44150
 Alpha  occ. eigenvalues --   -0.40357  -0.34402
 Alpha virt. eigenvalues --    0.01850   0.03646   0.04261   0.04827   0.05664
 Alpha virt. eigenvalues --    0.06368   0.06596   0.07121   0.09390   0.11510
 Alpha virt. eigenvalues --    0.12419   0.13411   0.13874   0.14668   0.15290

 Mulliken charges:
               1
     1  C   -0.129947
     2  N    0.637226
     3  C   -0.579554
     4  C    0.430807
     5  O   -1.247831
     6  C    1.207745
     7  O   -1.400971
     8  H    0.301652
     9  H    0.257280
    10  H    0.098213
    11  H    0.088642
    12  H    0.182355
    13  H    0.047867
    14  H    0.106516
 Sum of Mulliken charges =  -0.00000

 Dipole moment (field-independent basis, Debye):
    X=              0.6287    Y=             -5.1123    Z=              0.3193  Tot=              5.1607

 Test job not archived.
 1\1\GINC-SE173\SP\RHF\Aug-CC-pVDZ\C4H7N1O2\OHZDE\09-Apr-2025\0\\#t hf
 aug-cc-pvdz iop(5/13=1,5/36=2,99/5=2) pseudo=read geom=check guess=(re
 ad,tcheck) scf=(maxcycle=1)\\title\\0,1\C,0,1.89679871,-0.82351847,-0.
 87162012\N,0,1.44528041,1.28196095,0.0629557\C,0,0.30850137,0.89428782
 ,0.16736082\C,0,-1.11802971,1.33942067,0.33852667\O,0,-1.86139253,0.48
 473348,-0.52125285\C,0,-1.27920223,-0.79066978,-0.44440665\O,0,0.08304
 849,-0.57510807,-0.11797574\H,0,2.04376474,-0.15023047,-1.70022115\H,0
 ,2.6310676,-0.76915335,-0.08567602\H,0,1.52098277,-1.81040828,-1.10496

 Normal termination of Gaussian 16 at Wed Apr  9 17:26:36 2025.
