 Gaussian 16, Revision C.01,

 ----------------------------------------------------------------------
 #t hf aug-cc-pvdz symm=none int=(grid=ultrafine) guess=(read,tcheck) s
 table=(opt,rrhf)
 ----------------------------------------------------------------------
 -----
 title
 -----
 Symbolic Z-matrix:
 Charge =  0 Multiplicity = 1

 SCF Done:  E(RHF) =  -302.724853865     A.U. after   15 cycles
 Normal termination of Gaussian 16 at Wed Apr  9 18:04:13 2025.
 Gaussian 16:  ES64L-G16RevC.01  3-Jul-2019

 ----------------------------------------------------------------------
 #t hf aug-cc-pvdz iop(5/13=1,5/36=2,99/5=2) pseudo=read geom=check gue
 ss=(read,tcheck) scf=(maxcycle=1)
 ----------------------------------------------------------------------
 -----
 title
 -----
 Structure from the checkpoint file:  "Grambow2020_wb97xd3_006961_reverse_mol1.chk"
 Charge =  0 Multiplicity = 1

                         Standard orientation:
 ---------------------------------------------------------------------
 Center     Atomic      Atomic             Coordinates (Angstroms)
 Number     Number       Type             X           Y           Z
 ---------------------------------------------------------------------
      1          6           0        1.290312    1.294670    0.129028
      2          6           0        0.568759   -0.022974    0.102204
      3          6           0        1.333197   -1.135385   -0.562260
      4          7           0       -0.168728   -0.390870    1.255502
      5          6           0       -1.242762   -0.584611    0.335573
      6          6           0       -1.987716    0.496867   -0.391784
      7          7           0       -0.838777    0.433691   -0.946673
      8          1           0        1.594918    1.573285   -0.879231
      9          1           0        2.184120    1.188869    0.751882
     10          1           0        0.664048    2.087191    0.534490
     11          1           0        2.321187   -1.206515   -0.100806
     12          1           0        0.835392   -2.095953   -0.450064
     13          1           0        1.461655   -0.919081   -1.622734
     14          1           0       -0.337667    0.393165    1.875773
     15          1           0       -1.441862   -1.612112    0.052324
 ---------------------------------------------------------------------

 SCF Done:  E(RHF) =  -303.043711344     A.U. after    2 cycles

 The electronic state is 1-A.
 Alpha  occ. eigenvalues --  -15.53671 -15.52754 -11.36309 -11.33169 -11.26039
 Alpha  occ. eigenvalues --  -11.25719 -11.25440  -1.34865  -1.22523  -1.07718
 Alpha  occ. eigenvalues --   -0.98586  -0.88601  -0.84776  -0.75214  -0.71416
 Alpha  occ. eigenvalues --   -0.69342  -0.65361  -0.60654  -0.59161  -0.57477
 Alpha  occ. eigenvalues --   -0.56803  -0.54750  -0.49060  -0.48222  -0.46867
 Alpha  occ. eigenvalues --   -0.33640
 Alpha virt. eigenvalues --    0.03130   0.03858   0.04067   0.04513   0.05032
 Alpha virt. eigenvalues --    0.05845   0.06979   0.07836   0.08909   0.10199
 Alpha virt. eigenvalues --    0.10706   0.12122   0.13493   0.13902   0.14205

 Mulliken charges:
               1
     1  C    0.194793
     2  C   -3.036785
     3  C   -0.075314
     4  N    0.898494
     5  C    0.241953
     6  C   -0.566224
     7  N    0.580893
     8  H    0.291183
     9  H    0.287316
    10  H    0.119468
    11  H    0.301354
    12  H    0.164510
    13  H    0.260306
    14  H    0.405111
    15  H   -0.067056
 Sum of Mulliken charges =  -0.00000

 Dipole moment (field-independent basis, Debye):
    X=              3.9220    Y=             -1.0180    Z=              1.9144  Tot=              4.4815

 Test job not archived.
 1\1\GINC-SE114\SP\RHF\Aug-CC-pVDZ\C5H8N2\OHZDE\09-Apr-2025\0\\#t hf au
 g-cc-pvdz iop(5/13=1,5/36=2,99/5=2) pseudo=read geom=check guess=(read
 ,tcheck) scf=(maxcycle=1)\\title\\0,1\C,0,-0.62386026,1.43269422,-0.33
 653252\C,0,-0.13261062,0.03145685,-0.1068545\C,0,-1.07039233,-0.831372
 15,0.69278702\N,0,0.52984751,-0.61581983,-1.17994148\C,0,1.55891325,-0
 .85039918,-0.21903005\C,0,2.47613503,0.18593215,0.36262291\N,0,1.33432
 489,0.39468902,0.89614387\H,0,-0.8748467,1.90021638,0.61500533\H,0,-1.
 52448523,1.38794962,-0.95694188\H,0,0.1249378,2.04364974,-0.83726214\H

 Normal termination of Gaussian 16 at Wed Apr  9 18:04:18 2025.
