 Gaussian 16, Revision C.01,

 ----------------------------------------------------------------------
 #t hf aug-cc-pvdz symm=none int=(grid=ultrafine) guess=(read,tcheck) s
 table=(opt,rrhf)
 ----------------------------------------------------------------------
 -----
 title
 -----
 Symbolic Z-matrix:
 Charge =  0 Multiplicity = 1

 SCF Done:  E(RHF) =  -341.412365980     A.U. after   15 cycles
 Normal termination of Gaussian 16 at Wed Apr  9 19:17:44 2025.
 Gaussian 16:  ES64L-G16RevC.01  3-Jul-2019

 ----------------------------------------------------------------------
 #t hf aug-cc-pvdz iop(5/13=1,5/36=2,99/5=2) pseudo=read geom=check gue
 ss=(read,tcheck) scf=(maxcycle=1)
 ----------------------------------------------------------------------
 -----
 title
 -----
 Structure from the checkpoint file:  "Grambow2020_wb97xd3_009088_forward_mol2.chk"
 Charge =  0 Multiplicity = 1

                         Standard orientation:
 ---------------------------------------------------------------------
 Center     Atomic      Atomic             Coordinates (Angstroms)
 Number     Number       Type             X           Y           Z
 ---------------------------------------------------------------------
      1          8           0        1.234472    1.621654   -0.004013
      2          6           0        0.360190    0.809730   -0.000184
      3          6           0       -1.137774    1.054882    0.004320
      4          6           0       -1.708331   -0.335379   -0.001976
      5          6           0       -0.791666   -1.305415   -0.002602
      6          6           0        0.565869   -0.733509    0.000455
      7          8           0        1.628023   -1.288052    0.003001
      8          1           0       -1.431553    1.627918    0.887340
      9          1           0       -1.435572    1.640271   -0.869055
     10          1           0       -2.777865   -0.510008   -0.004937
     11          1           0       -0.984706   -2.368848   -0.005334
 ---------------------------------------------------------------------

 SCF Done:  E(RHF) =  -341.750366168     A.U. after    2 cycles

 The electronic state is 1-A.
 Alpha  occ. eigenvalues --  -20.57129 -20.55970 -11.36068 -11.35608 -11.30384
 Alpha  occ. eigenvalues --  -11.28149 -11.27316  -1.51027  -1.48812  -1.18036
 Alpha  occ. eigenvalues --   -1.00733  -0.94294  -0.81345  -0.75027  -0.72185
 Alpha  occ. eigenvalues --   -0.66075  -0.65967  -0.64165  -0.62665  -0.58145
 Alpha  occ. eigenvalues --   -0.56809  -0.52269  -0.49894  -0.41316  -0.39554
 Alpha virt. eigenvalues --    0.02258   0.03545   0.03598   0.04498   0.04643
 Alpha virt. eigenvalues --    0.08444   0.09144   0.10332   0.11245   0.11664
 Alpha virt. eigenvalues --    0.12848   0.13018   0.14113   0.14591   0.15441

 Mulliken charges:
               1
     1  O   -1.345754
     2  C    1.361263
     3  C   -0.843202
     4  C    0.488705
     5  C    0.558916
     6  C    0.749576
     7  O   -1.304581
     8  H    0.270999
     9  H    0.268005
    10  H   -0.088534
    11  H   -0.115391
 Sum of Mulliken charges =  -0.00000

 Dipole moment (field-independent basis, Debye):
    X=             -5.7214    Y=             -0.1330    Z=              0.0051  Tot=              5.7229

 Test job not archived.
 1\1\GINC-SE174\SP\RHF\Aug-CC-pVDZ\C5H4O2\OHZDE\09-Apr-2025\0\\#t hf au
 g-cc-pvdz iop(5/13=1,5/36=2,99/5=2) pseudo=read geom=check guess=(read
 ,tcheck) scf=(maxcycle=1)\\title\\0,1\O,0,-0.69072178,2.32250961,-0.14
 545704\C,0,-0.32080935,1.19090549,-0.06646265\C,0,-1.14868619,-0.07195
 022,-0.22084183\C,0,-0.13679526,-1.1659166,-0.02663809\C,0,1.10212019,
 -0.73189705,0.21410644\C,0,1.14148184,0.740647,0.22139709\O,0,2.067579
 46,1.47882096,0.40343486\H,0,-1.94951249,-0.10066829,0.52229528\H,0,-1
 .6249004,-0.10335333,-1.20388877\H,0,-0.41426838,-2.21205858,-0.081444

 Normal termination of Gaussian 16 at Wed Apr  9 19:17:48 2025.
