 Gaussian 16, Revision C.01,

 ----------------------------------------------------------------------
 #t hf aug-cc-pvdz symm=none int=(grid=ultrafine) guess=(read,tcheck) s
 table=(opt,rrhf)
 ----------------------------------------------------------------------
 -----
 title
 -----
 Symbolic Z-matrix:
 Charge =  0 Multiplicity = 1

 SCF Done:  E(RHF) =  -302.696847452     A.U. after   16 cycles
 Normal termination of Gaussian 16 at Wed Apr  9 18:11:47 2025.
 Gaussian 16:  ES64L-G16RevC.01  3-Jul-2019

 ----------------------------------------------------------------------
 #t hf aug-cc-pvdz iop(5/13=1,5/36=2,99/5=2) pseudo=read geom=check gue
 ss=(read,tcheck) scf=(maxcycle=1)
 ----------------------------------------------------------------------
 -----
 title
 -----
 Structure from the checkpoint file:  "Grambow2020_wb97xd3_007173_forward_mol1.chk"
 Charge =  0 Multiplicity = 1

                         Standard orientation:
 ---------------------------------------------------------------------
 Center     Atomic      Atomic             Coordinates (Angstroms)
 Number     Number       Type             X           Y           Z
 ---------------------------------------------------------------------
      1          6           0       -1.826440    1.450652   -0.174400
      2          6           0       -1.181499    0.243829    0.448508
      3          6           0       -1.400460   -1.165742    0.064635
      4          7           0       -0.311197   -0.567954   -0.393339
      5          6           0        0.990993   -0.892522   -0.290095
      6          6           0        1.922611    0.160583   -0.055927
      7          7           0        2.678376    0.997549    0.173197
      8          1           0       -2.118626    1.247127   -1.204772
      9          1           0       -1.142704    2.301647   -0.163480
     10          1           0       -2.718408    1.727964    0.389750
     11          1           0       -0.820189    0.380782    1.470935
     12          1           0       -0.430790   -1.983528    1.160710
     13          1           0       -2.135896   -1.831813   -0.355199
     14          1           0        0.431412   -1.885483    1.149254
     15          1           0        1.333715   -1.744674   -0.862531
 ---------------------------------------------------------------------

 SCF Done:  E(RHF) =  -303.014520373     A.U. after    2 cycles

 The electronic state is 1-A.
 Alpha  occ. eigenvalues --  -15.58964 -15.51010 -11.32197 -11.31761 -11.31506
 Alpha  occ. eigenvalues --  -11.28119 -11.25054  -1.37945  -1.23308  -1.10943
 Alpha  occ. eigenvalues --   -1.01724  -0.87705  -0.86083  -0.77849  -0.72827
 Alpha  occ. eigenvalues --   -0.70596  -0.62405  -0.61134  -0.60051  -0.57671
 Alpha  occ. eigenvalues --   -0.54379  -0.52713  -0.51308  -0.50079  -0.46290
 Alpha  occ. eigenvalues --   -0.32592
 Alpha virt. eigenvalues --    0.02708   0.03417   0.03789   0.04222   0.04411
 Alpha virt. eigenvalues --    0.06062   0.06363   0.06752   0.08032   0.08788
 Alpha virt. eigenvalues --    0.11188   0.11803   0.12789   0.13411   0.14080

 Mulliken charges:
               1
     1  C   -0.517024
     2  C   -0.253792
     3  C   -0.117318
     4  N    1.051852
     5  C    0.128603
     6  C   -1.737084
     7  N    0.913567
     8  H    0.179749
     9  H    0.250594
    10  H    0.224474
    11  H   -0.164810
    12  H    0.229075
    13  H   -0.239126
    14  H    0.116111
    15  H   -0.064870
 Sum of Mulliken charges =  -0.00000

 Dipole moment (field-independent basis, Debye):
    X=             -5.1990    Y=             -2.2935    Z=             -0.8923  Tot=              5.7521

 Test job not archived.
 1\1\GINC-SE219\SP\RHF\Aug-CC-pVDZ\C5H8N2\OHZDE\09-Apr-2025\0\\#t hf au
 g-cc-pvdz iop(5/13=1,5/36=2,99/5=2) pseudo=read geom=check guess=(read
 ,tcheck) scf=(maxcycle=1)\\title\\0,1\C,0,-1.78487328,-1.06871419,0.25
 055126\C,0,-0.82702557,-0.05406982,-0.30927851\C,0,-0.55481999,1.29155
 572,0.23605547\N,0,0.3108333,0.32969891,0.51723379\C,0,1.63862581,0.24
 174091,0.31491218\C,0,2.16402009,-1.01026251,-0.11893821\N,0,2.5933071
 5,-2.00455843,-0.50788118\H,0,-1.92878617,-0.91861527,1.32070144\H,0,-
 1.4140619,-2.08182287,0.08347384\H,0,-2.75304641,-0.97844464,-0.244692

 Normal termination of Gaussian 16 at Wed Apr  9 18:11:53 2025.
