 Gaussian 16, Revision C.01,

 ----------------------------------------------------------------------
 #t hf aug-cc-pvdz symm=none int=(grid=ultrafine) guess=(read,tcheck) s
 table=(opt,rrhf)
 ----------------------------------------------------------------------
 -----
 title
 -----
 Symbolic Z-matrix:
 Charge =  0 Multiplicity = 1

 SCF Done:  E(RHF) =  -284.600461182     A.U. after   17 cycles
 Normal termination of Gaussian 16 at Wed Apr  9 03:07:24 2025.
 Gaussian 16:  ES64L-G16RevC.01  3-Jul-2019

 ----------------------------------------------------------------------
 #t hf aug-cc-pvdz iop(5/13=1,5/36=2,99/5=2) pseudo=read geom=check gue
 ss=(read,tcheck) scf=(maxcycle=1)
 ----------------------------------------------------------------------
 -----
 title
 -----
 Structure from the checkpoint file:  "Grambow2020_b97d3_006558_forward_mol1.chk"
 Charge =  0 Multiplicity = 1

                         Standard orientation:
 ---------------------------------------------------------------------
 Center     Atomic      Atomic             Coordinates (Angstroms)
 Number     Number       Type             X           Y           Z
 ---------------------------------------------------------------------
      1          8           0        1.819516   -0.563386   -0.196442
      2          6           0        0.997583    0.166963    0.442965
      3          6           0        0.124731    1.229456   -0.305694
      4          7           0       -1.226548    0.656517   -0.106557
      5          6           0       -1.320711   -0.709189   -0.354039
      6          6           0       -0.715769   -0.558738    0.850597
      7          1           0        0.758946   -1.288021   -1.225587
      8          1           0        1.263434    0.442195    1.486291
      9          1           0        0.379296    1.339369   -1.368299
     10          1           0        0.174982    2.209317    0.189372
     11          1           0        0.018333   -1.477974   -1.477789
     12          1           0       -2.017315   -1.293401   -0.945702
     13          1           0       -1.062969   -0.790967    1.856176
 ---------------------------------------------------------------------

 SCF Done:  E(RHF) =  -284.893132652     A.U. after    2 cycles

 The electronic state is 1-A.
 Alpha  occ. eigenvalues --  -20.49551 -15.55910 -11.37772 -11.33323 -11.29324
 Alpha  occ. eigenvalues --  -11.28589  -1.41203  -1.32676  -1.04131  -0.92755
 Alpha  occ. eigenvalues --   -0.84503  -0.78755  -0.73809  -0.69340  -0.64755
 Alpha  occ. eigenvalues --   -0.61238  -0.60170  -0.57277  -0.51441  -0.48905
 Alpha  occ. eigenvalues --   -0.45362  -0.37810  -0.35955
 Alpha virt. eigenvalues --    0.02414   0.02952   0.04283   0.04752   0.05314
 Alpha virt. eigenvalues --    0.06064   0.07193   0.08173   0.09359   0.10699
 Alpha virt. eigenvalues --    0.12424   0.12864   0.13567   0.14054   0.14254

 Mulliken charges:
               1
     1  O   -1.397283
     2  C    1.310361
     3  C   -0.374757
     4  N    0.390640
     5  C   -0.418302
     6  C    0.339734
     7  H   -0.112154
     8  H    0.115066
     9  H    0.062967
    10  H    0.075698
    11  H    0.279015
    12  H   -0.097363
    13  H   -0.173621
 Sum of Mulliken charges =  -0.00000

 Dipole moment (field-independent basis, Debye):
    X=             -3.2673    Y=             -0.1037    Z=              0.8639  Tot=              3.3812

 Test job not archived.
 1\1\GINC-SE044\SP\RHF\Aug-CC-pVDZ\C4H7N1O1\OHZDE\09-Apr-2025\0\\#t hf
 aug-cc-pvdz iop(5/13=1,5/36=2,99/5=2) pseudo=read geom=check guess=(re
 ad,tcheck) scf=(maxcycle=1)\\title\\0,1\O,0,-1.50398114,-0.70437343,1.
 03506408\C,0,-1.20910153,0.04197066,0.04823039\C,0,-0.24931309,1.26521
 167,0.2319116\N,0,0.90550424,0.82650949,-0.58528341\C,0,1.30569052,-0.
 48783439,-0.36706879\C,0,0.18021608,-0.52951132,-1.12291765\H,0,0.0142
 7822,-1.19843991,1.43485062\H,0,-1.98211679,0.17746224,-0.73856622\H,0
 ,0.02723113,1.45538191,1.2775563\H,0,-0.6746148,2.17742256,-0.20937471

 Normal termination of Gaussian 16 at Wed Apr  9 03:07:27 2025.
