 Gaussian 16, Revision C.01,

 ----------------------------------------------------------------------
 #t hf aug-cc-pvdz symm=none int=(grid=ultrafine) guess=(read,tcheck) s
 table=(opt,rrhf)
 ----------------------------------------------------------------------
 -----
 title
 -----
 Symbolic Z-matrix:
 Charge =  0 Multiplicity = 1

 SCF Done:  E(RHF) =  -359.777644333     A.U. after   14 cycles
 Normal termination of Gaussian 16 at Wed Apr  9 03:52:35 2025.
 Gaussian 16:  ES64L-G16RevC.01  3-Jul-2019

 ----------------------------------------------------------------------
 #t hf aug-cc-pvdz iop(5/13=1,5/36=2,99/5=2) pseudo=read geom=check gue
 ss=(read,tcheck) scf=(maxcycle=1)
 ----------------------------------------------------------------------
 -----
 title
 -----
 Structure from the checkpoint file:  "Grambow2020_wb97xd3_008278_reverse_mol2.chk"
 Charge =  0 Multiplicity = 1

                         Standard orientation:
 ---------------------------------------------------------------------
 Center     Atomic      Atomic             Coordinates (Angstroms)
 Number     Number       Type             X           Y           Z
 ---------------------------------------------------------------------
      1          6           0       -1.213700    1.254797    0.609854
      2          6           0        2.003645    0.151431   -0.013333
      3          6           0        1.013449   -0.615447    0.842810
      4          7           0       -0.223536   -0.956129    0.208747
      5          6           0       -1.261496   -0.099400   -0.056362
      6          8           0       -2.177714   -0.444508   -0.768316
      7          8           0        1.783214    0.540394   -1.122892
      8          1           0       -2.120694    1.791558    0.347597
      9          1           0       -0.349258    1.824988    0.265029
     10          1           0       -1.153401    1.159418    1.695979
     11          1           0        2.980513    0.342136    0.480221
     12          1           0        0.845781   -0.024257    1.749730
     13          1           0        1.513623   -1.526059    1.187141
     14          1           0       -0.247204   -1.790256   -0.355073
 ---------------------------------------------------------------------

 SCF Done:  E(RHF) =  -360.142939437     A.U. after    2 cycles

 The electronic state is 1-A.
 Alpha  occ. eigenvalues --  -20.56874 -20.50787 -15.53063 -11.36066 -11.35927
 Alpha  occ. eigenvalues --  -11.31092 -11.24838  -1.50466  -1.46174  -1.25436
 Alpha  occ. eigenvalues --   -1.03969  -1.01224  -0.85682  -0.80903  -0.72529
 Alpha  occ. eigenvalues --   -0.71357  -0.69318  -0.65187  -0.62302  -0.61331
 Alpha  occ. eigenvalues --   -0.59298  -0.57219  -0.54210  -0.52738  -0.45835
 Alpha  occ. eigenvalues --   -0.42322  -0.41383
 Alpha virt. eigenvalues --    0.02409   0.03689   0.03852   0.04858   0.05929
 Alpha virt. eigenvalues --    0.06409   0.07786   0.09226   0.09586   0.11302
 Alpha virt. eigenvalues --    0.11898   0.12744   0.13626   0.13989   0.14669

 Mulliken charges:
               1
     1  C   -0.488542
     2  C    1.118609
     3  C   -0.942046
     4  N    0.597558
     5  C    0.793620
     6  O   -1.306643
     7  O   -1.091488
     8  H    0.038312
     9  H    0.282880
    10  H    0.283206
    11  H    0.118045
    12  H    0.234685
    13  H    0.121973
    14  H    0.239831
 Sum of Mulliken charges =  -0.00000

 Dipole moment (field-independent basis, Debye):
    X=              3.4958    Y=             -0.1693    Z=              4.2990  Tot=              5.5435

 Test job not archived.
 1\1\GINC-SE423\SP\RHF\Aug-CC-pVDZ\C4H7N1O2\OHZDE\09-Apr-2025\0\\#t hf
 aug-cc-pvdz iop(5/13=1,5/36=2,99/5=2) pseudo=read geom=check guess=(re
 ad,tcheck) scf=(maxcycle=1)\\title\\0,1\C,0,-0.72002892,-1.20347193,1.
 04615247\C,0,0.04274947,0.47522675,-1.87912079\C,0,-0.00826561,1.15157
 846,-0.52209587\N,0,0.84958627,0.59831149,0.48100791\C,0,0.64748602,-0
 .5741458,1.16374368\O,0,1.52725796,-1.04770501,1.84724679\O,0,0.679177
 45,-0.50753441,-2.12436255\H,0,-0.74019781,-2.0862848,1.67842238\H,0,-
 0.92251059,-1.49837084,0.01497979\H,0,-1.50232136,-0.51276473,1.367624

 Normal termination of Gaussian 16 at Wed Apr  9 03:52:39 2025.
