 Gaussian 16, Revision C.01,

 ----------------------------------------------------------------------
 #t hf aug-cc-pvdz symm=none int=(grid=ultrafine) guess=(read,tcheck) s
 table=(opt,rrhf)
 ----------------------------------------------------------------------
 -----
 title
 -----
 Symbolic Z-matrix:
 Charge =  0 Multiplicity = 1

 SCF Done:  E(RHF) =  -279.718377201     A.U. after   16 cycles
 Normal termination of Gaussian 16 at Wed Apr  9 15:57:41 2025.
 Gaussian 16:  ES64L-G16RevC.01  3-Jul-2019

 ----------------------------------------------------------------------
 #t hf aug-cc-pvdz iop(5/13=1,5/36=2,99/5=2) pseudo=read geom=check gue
 ss=(read,tcheck) scf=(maxcycle=1)
 ----------------------------------------------------------------------
 -----
 title
 -----
 Structure from the checkpoint file:  "Grambow2020_b97d3_007055_forward_mol1.chk"
 Charge =  0 Multiplicity = 1

                         Standard orientation:
 ---------------------------------------------------------------------
 Center     Atomic      Atomic             Coordinates (Angstroms)
 Number     Number       Type             X           Y           Z
 ---------------------------------------------------------------------
      1          7           0       -2.070529   -0.017707    0.084826
      2          6           0       -0.676944   -0.120749    0.004566
      3          6           0        0.122064   -1.287087   -0.099194
      4          6           0        1.456708   -0.605539   -0.031608
      5          7           0        1.417991    0.801039   -0.034994
      6          7           0        0.107352    1.009472    0.021551
      7          1           0       -2.469422   -0.954592    0.038554
      8          1           0       -2.495646    0.568992   -0.634912
      9          1           0        1.183986   -0.989966    1.036026
     10          1           0        2.402765   -1.065495   -0.315851
     11          1           0       -0.216354    1.971679    0.133920
 ---------------------------------------------------------------------

 SCF Done:  E(RHF) =  -280.001767484     A.U. after    2 cycles

 The electronic state is 1-A.
 Alpha  occ. eigenvalues --  -15.63535 -15.55212 -15.52836 -11.32136 -11.28265
 Alpha  occ. eigenvalues --  -11.23476  -1.39917  -1.22923  -1.11617  -1.06123
 Alpha  occ. eigenvalues --   -0.87863  -0.84249  -0.78123  -0.70674  -0.69279
 Alpha  occ. eigenvalues --   -0.66424  -0.58730  -0.54652  -0.54087  -0.47403
 Alpha  occ. eigenvalues --   -0.37137  -0.34214
 Alpha virt. eigenvalues --    0.02341   0.03745   0.04408   0.05296   0.06083
 Alpha virt. eigenvalues --    0.06243   0.09199   0.10045   0.10701   0.12879
 Alpha virt. eigenvalues --    0.13314   0.13744   0.15004   0.16248   0.16863

 Mulliken charges:
               1
     1  N    0.596311
     2  C   -1.154056
     3  C   -0.474088
     4  C   -0.492929
     5  N   -0.142273
     6  N    0.631206
     7  H    0.223675
     8  H    0.128522
     9  H    0.628980
    10  H    0.032589
    11  H    0.022063
 Sum of Mulliken charges =   0.00000

 Dipole moment (field-independent basis, Debye):
    X=             -2.1647    Y=              1.8349    Z=             -0.3510  Tot=              2.8594

 Test job not archived.
 1\1\GINC-SE026\SP\RHF\Aug-CC-pVDZ\C3H5N3\OHZDE\09-Apr-2025\0\\#t hf au
 g-cc-pvdz iop(5/13=1,5/36=2,99/5=2) pseudo=read geom=check guess=(read
 ,tcheck) scf=(maxcycle=1)\\title\\0,1\N,0,-1.9400275,0.01641336,0.1325
 219\C,0,-0.54779103,-0.0517611,0.00536352\C,0,0.26956682,-1.19127718,-
 0.20188695\C,0,1.59256343,-0.48828287,-0.12553059\N,0,1.52727072,0.914
 08493,-0.03028092\N,0,0.21523044,1.09074001,0.07815617\H,0,-2.32241063
 ,-0.92319471,0.03287076\H,0,-2.39756564,0.64220244,-0.53231669\H,0,1.3
 5934962,-0.95080202,0.92026652\H,0,2.53814459,-0.9077669,-0.46800221\H

 Normal termination of Gaussian 16 at Wed Apr  9 15:57:44 2025.
