 Gaussian 16, Revision C.01,

 ----------------------------------------------------------------------
 #t hf aug-cc-pvdz symm=none int=(grid=ultrafine) guess=(read,tcheck) s
 table=(opt,rrhf)
 ----------------------------------------------------------------------
 -----
 title
 -----
 Symbolic Z-matrix:
 Charge =  0 Multiplicity = 1

 SCF Done:  E(RHF) =  -360.674924800     A.U. after   16 cycles
 Normal termination of Gaussian 16 at Wed Apr  9 18:31:37 2025.
 Gaussian 16:  ES64L-G16RevC.01  3-Jul-2019

 ----------------------------------------------------------------------
 #t hf aug-cc-pvdz iop(5/13=1,5/36=2,99/5=2) pseudo=read geom=check gue
 ss=(read,tcheck) scf=(maxcycle=1)
 ----------------------------------------------------------------------
 -----
 title
 -----
 Structure from the checkpoint file:  "Grambow2020_wb97xd3_007664_reverse_mol1.chk"
 Charge =  0 Multiplicity = 1

                         Standard orientation:
 ---------------------------------------------------------------------
 Center     Atomic      Atomic             Coordinates (Angstroms)
 Number     Number       Type             X           Y           Z
 ---------------------------------------------------------------------
      1          6           0       -1.867690   -0.534205   -0.891836
      2          8           0       -1.877404    0.075394    0.280950
      3          6           0       -0.898181   -0.130890    1.127523
      4          6           0        0.665863    0.472011   -0.196059
      5          7           0        1.735129   -0.199020    0.018558
      6          8           0        1.463930   -1.569220   -0.084819
      7          6           0        0.789634    1.966934   -0.202213
      8          1           0       -1.489548   -1.550639   -0.928704
      9          1           0       -2.666102   -0.218356   -1.546799
     10          1           0       -0.163482    0.030310   -0.879649
     11          1           0       -0.487585   -1.133100    1.199546
     12          1           0       -0.950329    0.498107    2.005869
     13          1           0        2.321055   -1.970447    0.069834
     14          1           0        1.630178    2.284314    0.414088
     15          1           0       -0.124156    2.436687    0.163959
     16          1           0        0.954097    2.323773   -1.221585
 ---------------------------------------------------------------------

 SCF Done:  E(RHF) =  -361.044974700     A.U. after    2 cycles

 The electronic state is 1-A.
 Alpha  occ. eigenvalues --  -20.65870 -20.57050 -15.53183 -11.31802 -11.30254
 Alpha  occ. eigenvalues --  -11.27298 -11.22930  -1.58971  -1.48683  -1.16610
 Alpha  occ. eigenvalues --   -1.01799  -0.97501  -0.86892  -0.77527  -0.73744
 Alpha  occ. eigenvalues --   -0.71735  -0.71540  -0.67788  -0.62624  -0.59799
 Alpha  occ. eigenvalues --   -0.59305  -0.55782  -0.55580  -0.53656  -0.51615
 Alpha  occ. eigenvalues --   -0.45066  -0.39675  -0.28187
 Alpha virt. eigenvalues --    0.03208   0.03938   0.04230   0.04452   0.05511
 Alpha virt. eigenvalues --    0.06385   0.06497   0.06979   0.07521   0.09467
 Alpha virt. eigenvalues --    0.11116   0.12731   0.13971   0.14348   0.14644

 Mulliken charges:
               1
     1  C    0.373221
     2  O   -0.929101
     3  C    0.457888
     4  C   -1.260231
     5  N    1.379444
     6  O   -1.222369
     7  C   -0.354474
     8  H    0.073770
     9  H   -0.114301
    10  H    0.514734
    11  H    0.239396
    12  H   -0.060985
    13  H    0.325007
    14  H    0.210704
    15  H    0.167024
    16  H    0.200273
 Sum of Mulliken charges =  -0.00000

 Dipole moment (field-independent basis, Debye):
    X=             -2.0680    Y=             -0.1938    Z=              0.4996  Tot=              2.1363

 Test job not archived.
 1\1\GINC-SE135\SP\RHF\Aug-CC-pVDZ\C4H9N1O2\OHZDE\09-Apr-2025\0\\#t hf
 aug-cc-pvdz iop(5/13=1,5/36=2,99/5=2) pseudo=read geom=check guess=(re
 ad,tcheck) scf=(maxcycle=1)\\title\\0,1\C,0,2.07107479,0.00245008,-0.2
 4266246\O,0,1.56515734,-0.48486689,0.87702625\C,0,0.52223172,0.0918798
 7,1.42272332\C,0,-0.7409264,-0.07323921,-0.29155897\N,0,-1.54271755,0.
 92203646,-0.37048367\O,0,-0.81466319,2.11853877,-0.37268736\C,0,-1.347
 84577,-1.44352152,-0.35579864\H,0,2.07634292,1.08048354,-0.36637516\H,
 0,2.86298551,-0.60432259,-0.65606676\H,0,0.33822867,0.02220265,-0.7117

 Normal termination of Gaussian 16 at Wed Apr  9 18:31:42 2025.
