 Gaussian 16, Revision C.01,

 ----------------------------------------------------------------------
 #t hf aug-cc-pvdz symm=none int=(grid=ultrafine) guess=(read,tcheck) s
 table=(opt,rrhf)
 ----------------------------------------------------------------------
 -----
 title
 -----
 Symbolic Z-matrix:
 Charge =  0 Multiplicity = 1

 SCF Done:  E(RHF) =  -338.782104794     A.U. after   14 cycles
 Normal termination of Gaussian 16 at Wed Apr  9 19:09:49 2025.
 Gaussian 16:  ES64L-G16RevC.01  3-Jul-2019

 ----------------------------------------------------------------------
 #t hf aug-cc-pvdz iop(5/13=1,5/36=2,99/5=2) pseudo=read geom=check gue
 ss=(read,tcheck) scf=(maxcycle=1)
 ----------------------------------------------------------------------
 -----
 title
 -----
 Structure from the checkpoint file:  "Grambow2020_wb97xd3_008808_reverse_mol2.chk"
 Charge =  0 Multiplicity = 1

                         Standard orientation:
 ---------------------------------------------------------------------
 Center     Atomic      Atomic             Coordinates (Angstroms)
 Number     Number       Type             X           Y           Z
 ---------------------------------------------------------------------
      1          7           0        1.885588   -0.900839   -0.070137
      2          6           0        0.551486   -0.615564   -0.012004
      3          6           0        0.158793    0.829137   -0.007292
      4          8           0        0.914345    1.777667    0.017799
      5          7           0       -1.197226    0.839094   -0.020180
      6          6           0       -1.770591   -0.485758    0.010282
      7          6           0       -0.553958   -1.366583    0.008555
      8          1           0        2.481283   -0.116590    0.144184
      9          1           0        2.200575   -1.791709    0.266796
     10          1           0       -2.383522   -0.630971    0.906733
     11          1           0       -1.722580    1.692253    0.024549
     12          1           0       -2.407046   -0.664530   -0.863185
     13          1           0       -0.616388   -2.444967    0.013504
 ---------------------------------------------------------------------

 SCF Done:  E(RHF) =  -339.129375052     A.U. after    2 cycles

 The electronic state is 1-A.
 Alpha  occ. eigenvalues --  -20.50924 -15.52534 -15.51206 -11.35418 -11.28736
 Alpha  occ. eigenvalues --  -11.28578 -11.23973  -1.45912  -1.27634  -1.22145
 Alpha  occ. eigenvalues --   -1.05463  -0.97506  -0.85035  -0.81434  -0.73608
 Alpha  occ. eigenvalues --   -0.72007  -0.67540  -0.66647  -0.62331  -0.59042
 Alpha  occ. eigenvalues --   -0.56664  -0.56138  -0.52782  -0.42593  -0.41859
 Alpha  occ. eigenvalues --   -0.34634
 Alpha virt. eigenvalues --    0.03076   0.03623   0.04350   0.04766   0.05922
 Alpha virt. eigenvalues --    0.07536   0.09127   0.10261   0.11104   0.12098
 Alpha virt. eigenvalues --    0.12943   0.13202   0.14009   0.14257   0.14623

 Mulliken charges:
               1
     1  N    0.791510
     2  C   -1.489388
     3  C    0.568327
     4  O   -1.404297
     5  N    0.618555
     6  C   -0.401806
     7  C    1.084333
     8  H    0.036141
     9  H    0.045458
    10  H    0.117995
    11  H    0.034144
    12  H    0.118902
    13  H   -0.119874
 Sum of Mulliken charges =   0.00000

 Dipole moment (field-independent basis, Debye):
    X=             -2.1901    Y=             -3.0044    Z=              0.8999  Tot=              3.8253

 Test job not archived.
 1\1\GINC-SE229\SP\RHF\Aug-CC-pVDZ\C4H6N2O1\OHZDE\09-Apr-2025\0\\#t hf
 aug-cc-pvdz iop(5/13=1,5/36=2,99/5=2) pseudo=read geom=check guess=(re
 ad,tcheck) scf=(maxcycle=1)\\title\\0,1\N,0,-1.83926946,0.98515949,-0.
 46741279\C,0,-0.63736878,0.44085224,-0.11562638\C,0,-0.35989044,-0.959
 03474,-0.56807955\O,0,-1.12762251,-1.68621909,-1.16220625\N,0,0.904590
 76,-1.23081042,-0.16030699\C,0,1.50511066,-0.14333063,0.57567728\C,0,0
 .4272275,0.90234706,0.5477857\H,0,-2.51755876,0.309685,-0.78283505\H,0
 ,-2.20180266,1.74245529,0.08164289\H,0,1.75705348,-0.44867669,1.597285

 Normal termination of Gaussian 16 at Wed Apr  9 19:09:53 2025.
