 Gaussian 16, Revision C.01,

 ----------------------------------------------------------------------
 #t hf aug-cc-pvdz symm=none int=(grid=ultrafine) guess=(read,tcheck) s
 table=(opt,rrhf)
 ----------------------------------------------------------------------
 -----
 title
 -----
 Symbolic Z-matrix:
 Charge =  0 Multiplicity = 1

 SCF Done:  E(RHF) =  -342.365361716     A.U. after   16 cycles
 Normal termination of Gaussian 16 at Wed Apr  9 03:59:39 2025.
 Gaussian 16:  ES64L-G16RevC.01  3-Jul-2019

 ----------------------------------------------------------------------
 #t hf aug-cc-pvdz iop(5/13=1,5/36=2,99/5=2) pseudo=read geom=check gue
 ss=(read,tcheck) scf=(maxcycle=1)
 ----------------------------------------------------------------------
 -----
 title
 -----
 Structure from the checkpoint file:  "Grambow2020_wb97xd3_008769_reverse_mol1.chk"
 Charge =  0 Multiplicity = 1

                         Standard orientation:
 ---------------------------------------------------------------------
 Center     Atomic      Atomic             Coordinates (Angstroms)
 Number     Number       Type             X           Y           Z
 ---------------------------------------------------------------------
      1          8           0        2.286854   -0.716292   -0.020542
      2          6           0        1.610239    0.245419   -0.250878
      3          6           0        0.309461    0.538522    0.467541
      4          8           0       -0.508108    1.408751   -0.317386
      5          6           0       -1.860529    0.094656    0.172357
      6          6           0       -1.351020   -1.043619   -0.593918
      7          6           0       -0.627349   -0.622474    0.655003
      8          1           0        1.897652    1.001884   -1.010130
      9          1           0        0.565039    1.002517    1.430869
     10          1           0       -1.658972    1.312248    0.119593
     11          1           0       -1.930471   -1.949899   -0.444936
     12          1           0       -0.983932   -0.897724   -1.601986
     13          1           0       -0.604100   -1.283724    1.509382
 ---------------------------------------------------------------------

 SCF Done:  E(RHF) =  -342.710582712     A.U. after    2 cycles

 The electronic state is 1-A.
 Alpha  occ. eigenvalues --  -20.55928 -20.55694 -11.34559 -11.32341 -11.31715
 Alpha  occ. eigenvalues --  -11.27683 -11.27475  -1.49219  -1.44978  -1.18996
 Alpha  occ. eigenvalues --   -1.01168  -0.88593  -0.81380  -0.77022  -0.72015
 Alpha  occ. eigenvalues --   -0.70853  -0.68207  -0.64697  -0.60000  -0.55567
 Alpha  occ. eigenvalues --   -0.53233  -0.52796  -0.47156  -0.44802  -0.42988
 Alpha  occ. eigenvalues --   -0.37356
 Alpha virt. eigenvalues --    0.03127   0.03670   0.04384   0.04968   0.05483
 Alpha virt. eigenvalues --    0.06167   0.06316   0.09455   0.10006   0.10903
 Alpha virt. eigenvalues --    0.11799   0.13505   0.14048   0.14212   0.14262

 Mulliken charges:
               1
     1  O   -1.181094
     2  C    1.053942
     3  C    0.520508
     4  O   -1.449704
     5  C   -0.103711
     6  C    0.163565
     7  C    0.315158
     8  H    0.195616
     9  H    0.179824
    10  H    0.602102
    11  H    0.025573
    12  H   -0.127015
    13  H   -0.194763
 Sum of Mulliken charges =  -0.00000

 Dipole moment (field-independent basis, Debye):
    X=             -1.7123    Y=             -0.5041    Z=              0.5731  Tot=              1.8747

 Test job not archived.
 1\1\GINC-SE338\SP\RHF\Aug-CC-pVDZ\C5H6O2\OHZDE\09-Apr-2025\0\\#t hf au
 g-cc-pvdz iop(5/13=1,5/36=2,99/5=2) pseudo=read geom=check guess=(read
 ,tcheck) scf=(maxcycle=1)\\title\\0,1\O,0,1.60197189,1.70280813,-1.149
 24522\C,0,1.67175746,0.81921305,-0.34293248\C,0,0.77059618,-0.39798504
 ,-0.36289226\O,0,0.71472436,-0.99784519,0.9328205\C,0,-1.19024553,-0.9
 9869856,0.52437832\C,0,-1.42525204,0.44555561,0.56109317\C,0,-0.690547
 78,-0.1443646,-0.61068653\H,0,2.41644895,0.82750533,0.47966952\H,0,1.1
 8338881,-1.09864971,-1.1026785\H,0,-0.28476011,-1.72273171,0.95077301\

 Normal termination of Gaussian 16 at Wed Apr  9 03:59:43 2025.
