 Gaussian 16, Revision C.01,

 ----------------------------------------------------------------------
 #t hf aug-cc-pvdz symm=none int=(grid=ultrafine) guess=(read,tcheck) s
 table=(opt,rrhf)
 ----------------------------------------------------------------------
 -----
 title
 -----
 Symbolic Z-matrix:
 Charge =  0 Multiplicity = 1

 SCF Done:  E(RHF) =  -359.788576902     A.U. after   15 cycles
 Normal termination of Gaussian 16 at Wed Apr  9 04:05:45 2025.
 Gaussian 16:  ES64L-G16RevC.01  3-Jul-2019

 ----------------------------------------------------------------------
 #t hf aug-cc-pvdz iop(5/13=1,5/36=2,99/5=2) pseudo=read geom=check gue
 ss=(read,tcheck) scf=(maxcycle=1)
 ----------------------------------------------------------------------
 -----
 title
 -----
 Structure from the checkpoint file:  "Grambow2020_wb97xd3_009245_forward_mol2.chk"
 Charge =  0 Multiplicity = 1

                         Standard orientation:
 ---------------------------------------------------------------------
 Center     Atomic      Atomic             Coordinates (Angstroms)
 Number     Number       Type             X           Y           Z
 ---------------------------------------------------------------------
      1          6           0        0.563758    1.562689    0.525267
      2          6           0        0.230075    0.392525   -0.395959
      3          6           0        1.338921   -0.645681   -0.431372
      4          8           0        2.450255   -0.444532   -0.032579
      5          6           0       -1.061310   -0.290933    0.031106
      6          8           0       -1.053394   -1.255009    0.766423
      7          7           0       -2.208080    0.260365   -0.439677
      8          1           0        0.640515    1.217673    1.556673
      9          1           0        1.521487    1.999042    0.246058
     10          1           0       -0.203917    2.335710    0.472586
     11          1           0        0.126398    0.749649   -1.429537
     12          1           0        1.061848   -1.614169   -0.888644
     13          1           0       -2.209792    1.083760   -1.010671
     14          1           0       -3.083535   -0.109496   -0.113732
 ---------------------------------------------------------------------

 SCF Done:  E(RHF) =  -360.152151904     A.U. after    2 cycles

 The electronic state is 1-A.
 Alpha  occ. eigenvalues --  -20.55107 -20.52500 -15.54400 -11.37483 -11.34557
 Alpha  occ. eigenvalues --  -11.27395 -11.24733  -1.48772  -1.47771  -1.24280
 Alpha  occ. eigenvalues --   -1.09585  -0.93697  -0.87333  -0.80123  -0.76307
 Alpha  occ. eigenvalues --   -0.71680  -0.68855  -0.65137  -0.63353  -0.60455
 Alpha  occ. eigenvalues --   -0.56164  -0.55515  -0.54425  -0.51329  -0.45266
 Alpha  occ. eigenvalues --   -0.43803  -0.42050
 Alpha virt. eigenvalues --    0.01972   0.03933   0.04090   0.05130   0.05879
 Alpha virt. eigenvalues --    0.06761   0.07265   0.09847   0.10116   0.11697
 Alpha virt. eigenvalues --    0.12326   0.13944   0.14024   0.14429   0.14821

 Mulliken charges:
               1
     1  C   -0.059564
     2  C   -1.051280
     3  C    1.327195
     4  O   -1.181998
     5  C    0.594475
     6  O   -1.327667
     7  N    0.695625
     8  H    0.225876
     9  H    0.152270
    10  H    0.153826
    11  H    0.228611
    12  H    0.099828
    13  H    0.057839
    14  H    0.084961
 Sum of Mulliken charges =  -0.00000

 Dipole moment (field-independent basis, Debye):
    X=             -3.3099    Y=              3.1182    Z=             -2.7805  Tot=              5.3301

 Test job not archived.
 1\1\GINC-SE435\SP\RHF\Aug-CC-pVDZ\C4H7N1O2\OHZDE\09-Apr-2025\0\\#t hf
 aug-cc-pvdz iop(5/13=1,5/36=2,99/5=2) pseudo=read geom=check guess=(re
 ad,tcheck) scf=(maxcycle=1)\\title\\0,1\C,0,-0.88733137,-1.09735746,0.
 51131053\C,0,-0.39744983,0.12801732,-0.25534254\C,0,-1.19806243,1.3747
 7078,0.08124252\O,0,-2.25717779,1.3533395,0.64014835\C,0,1.07212597,0.
 40288993,0.03095682\O,0,1.41320593,1.17616551,0.90038539\N,0,1.9629148
 8,-0.28657325,-0.72520696\H,0,-0.72901911,-0.9582125,1.58103064\H,0,-1
 .95397374,-1.24151151,0.34669359\H,0,-0.35765866,-1.99673109,0.1947095

 Normal termination of Gaussian 16 at Wed Apr  9 04:05:49 2025.
