 Gaussian 16, Revision C.01,

 ----------------------------------------------------------------------
 #t hf aug-cc-pvdz symm=none int=(grid=ultrafine) guess=(read,tcheck) s
 table=(opt,rrhf)
 ----------------------------------------------------------------------
 -----
 title
 -----
 Symbolic Z-matrix:
 Charge =  0 Multiplicity = 1

 SCF Done:  E(RHF) =  -344.767494663     A.U. after   15 cycles

 1\1\GINC-SE224\Stability\RHF\Aug-CC-pVDZ\C5H10O2\OHZDE\09-Apr-2025\0\\
 #t hf aug-cc-pvdz symm=none int=(grid=ultrafine) guess=(read,tcheck) s
 table=(opt,rrhf)\\title\\0,1\C,0,-2.24829167,-0.36421281,0.00601188\C,
 0,-1.12918865,0.42379852,-0.65979618\C,0,0.23105144,-0.21652918,-0.572
 26417\O,0,0.20138329,-1.53697342,-0.94076544\C,0,1.42022512,0.50506799
 ,-0.68538866\C,0,2.29760564,0.42299593,1.02953379\O,0,3.14938216,1.134
 29183,1.32573026\H,0,-3.20371193,0.14647399,-0.12216669\H,0,-2.3340149
 7,-1.36048472,-0.42768284\H,0,-2.06424315,-0.4780482,1.07629524\H,0,-1

 Normal termination of Gaussian 16 at Wed Apr  9 18:37:43 2025.
 Gaussian 16:  ES64L-G16RevC.01  3-Jul-2019

 ----------------------------------------------------------------------
 #t hf aug-cc-pvdz iop(5/13=1,5/36=2,99/5=2) pseudo=read geom=check gue
 ss=(read,tcheck) scf=(maxcycle=1)
 ----------------------------------------------------------------------
 -----
 title
 -----
 Structure from the checkpoint file:  "Grambow2020_wb97xd3_007827_forward_mol1.chk"
 Charge =  0 Multiplicity = 1

                         Standard orientation:
 ---------------------------------------------------------------------
 Center     Atomic      Atomic             Coordinates (Angstroms)
 Number     Number       Type             X           Y           Z
 ---------------------------------------------------------------------
      1          6           0       -2.575717   -0.838447   -0.420827
      2          6           0       -1.531860   -0.539536    0.645788
      3          6           0       -0.420210    0.374030    0.201302
      4          8           0       -0.897896    1.497698   -0.422744
      5          6           0        0.830572    0.406788    0.819448
      6          6           0        2.112924   -0.249044   -0.462328
      7          8           0        3.168446   -0.590822   -0.165247
      8          1           0       -3.359931   -1.481166   -0.018358
      9          1           0       -3.039451    0.080323   -0.779727
     10          1           0       -2.126607   -1.345320   -1.277401
     11          1           0       -2.017442   -0.063630    1.505529
     12          1           0       -1.081412   -1.464251    1.013055
     13          1           0        0.013278   -0.504201   -1.106839
     14          1           0       -0.180664    2.118698   -0.566231
     15          1           0        1.007141   -0.318597    1.605539
     16          1           0        1.292006    1.372047    1.004040
     17          1           0        0.834422   -0.571649   -1.375975
 ---------------------------------------------------------------------

 SCF Done:  E(RHF) =  -345.124114718     A.U. after    2 cycles

 The electronic state is 1-A.
 Alpha  occ. eigenvalues --  -20.59798 -20.58566 -11.35199 -11.33297 -11.25044
 Alpha  occ. eigenvalues --  -11.24251 -11.22780  -1.54920  -1.50149  -1.09165
 Alpha  occ. eigenvalues --   -1.01568  -0.88924  -0.80709  -0.78217  -0.72347
 Alpha  occ. eigenvalues --   -0.68931  -0.65929  -0.62440  -0.60522  -0.60102
 Alpha  occ. eigenvalues --   -0.58074  -0.56459  -0.54256  -0.52694  -0.51456
 Alpha  occ. eigenvalues --   -0.50320  -0.44195  -0.31300
 Alpha virt. eigenvalues --    0.03099   0.03566   0.03912   0.04561   0.06060
 Alpha virt. eigenvalues --    0.06272   0.06731   0.07478   0.08730   0.10284
 Alpha virt. eigenvalues --    0.11018   0.12065   0.12384   0.12941   0.14131

 Mulliken charges:
               1
     1  C   -0.284370
     2  C   -0.456768
     3  C    1.361879
     4  O   -1.519284
     5  C   -0.544368
     6  C    0.632269
     7  O   -0.908119
     8  H    0.130227
     9  H    0.188367
    10  H    0.173121
    11  H    0.224622
    12  H    0.137573
    13  H    0.416050
    14  H    0.317676
    15  H    0.030027
    16  H    0.039522
    17  H    0.061577
 Sum of Mulliken charges =  -0.00000

 Dipole moment (field-independent basis, Debye):
    X=             -1.1870    Y=              0.8560    Z=              1.0606  Tot=              1.8073

 Test job not archived.
 1\1\GINC-SE224\SP\RHF\Aug-CC-pVDZ\C5H10O2\OHZDE\09-Apr-2025\0\\#t hf a
 ug-cc-pvdz iop(5/13=1,5/36=2,99/5=2) pseudo=read geom=check guess=(rea
 d,tcheck) scf=(maxcycle=1)\\title\\0,1\C,0,-2.24829167,-0.36421281,0.0
 0601188\C,0,-1.12918865,0.42379852,-0.65979618\C,0,0.23105144,-0.21652
 918,-0.57226417\O,0,0.20138329,-1.53697342,-0.94076544\C,0,1.42022512,
 0.50506799,-0.68538866\C,0,2.29760564,0.42299593,1.02953379\O,0,3.1493
 8216,1.13429183,1.32573026\H,0,-3.20371193,0.14647399,-0.12216669\H,0,
 -2.33401497,-1.36048472,-0.42768284\H,0,-2.06424315,-0.4780482,1.07629

 Normal termination of Gaussian 16 at Wed Apr  9 18:37:49 2025.
