 Gaussian 16, Revision C.01,

 ----------------------------------------------------------------------
 #t hf aug-cc-pvdz symm=none int=(grid=ultrafine) guess=(read,tcheck) s
 table=(opt,rrhf)
 ----------------------------------------------------------------------
 -----
 title
 -----
 Symbolic Z-matrix:
 Charge =  0 Multiplicity = 1

 SCF Done:  E(RHF) =  -343.689871226     A.U. after   13 cycles
 Normal termination of Gaussian 16 at Wed Apr  9 18:53:40 2025.
 Gaussian 16:  ES64L-G16RevC.01  3-Jul-2019

 ----------------------------------------------------------------------
 #t hf aug-cc-pvdz iop(5/13=1,5/36=2,99/5=2) pseudo=read geom=check gue
 ss=(read,tcheck) scf=(maxcycle=1)
 ----------------------------------------------------------------------
 -----
 title
 -----
 Structure from the checkpoint file:  "Grambow2020_wb97xd3_008200_reverse_mol2.chk"
 Charge =  0 Multiplicity = 1

                         Standard orientation:
 ---------------------------------------------------------------------
 Center     Atomic      Atomic             Coordinates (Angstroms)
 Number     Number       Type             X           Y           Z
 ---------------------------------------------------------------------
      1          8           0        1.172655   -1.581750   -0.346285
      2          6           0        1.732896   -0.599731    0.498150
      3          6           0        1.735968    0.790543   -0.117701
      4          6           0        0.368772    1.396791   -0.303173
      5          8           0       -2.545138   -0.595066   -0.348527
      6          6           0       -0.749497    0.846626    0.075346
      7          6           0       -1.849828    0.264848    0.462323
      8          1           0        0.241841   -1.379224   -0.471818
      9          1           0        2.761121   -0.914889    0.682948
     10          1           0        1.216388   -0.573922    1.466839
     11          1           0        2.233296    0.749088   -1.091999
     12          1           0        2.336301    1.461846    0.506657
     13          1           0        0.330067    2.363525   -0.801675
     14          1           0       -3.309433   -0.924639    0.124987
     15          1           0       -2.259581    0.438287    1.452892
 ---------------------------------------------------------------------

 SCF Done:  E(RHF) =  -344.044424408     A.U. after    2 cycles

 The electronic state is 1-A.
 Alpha  occ. eigenvalues --  -20.58512 -20.53486 -11.31493 -11.27864 -11.26247
 Alpha  occ. eigenvalues --  -11.24429 -11.24227  -1.49517  -1.43966  -1.10033
 Alpha  occ. eigenvalues --   -1.02448  -0.94345  -0.84765  -0.74549  -0.73416
 Alpha  occ. eigenvalues --   -0.69801  -0.66239  -0.63441  -0.60469  -0.58040
 Alpha  occ. eigenvalues --   -0.56193  -0.54839  -0.54457  -0.48453  -0.43167
 Alpha  occ. eigenvalues --   -0.38518  -0.35563
 Alpha virt. eigenvalues --    0.02748   0.03633   0.04172   0.04710   0.05967
 Alpha virt. eigenvalues --    0.06200   0.07128   0.08708   0.09804   0.11155
 Alpha virt. eigenvalues --    0.12231   0.12608   0.13328   0.14337   0.15181

 Mulliken charges:
               1
     1  O   -1.176530
     2  C    0.717581
     3  C   -0.684421
     4  C    0.495508
     5  O   -1.312638
     6  C   -0.498926
     7  C    1.207536
     8  H    0.405893
     9  H    0.029371
    10  H    0.210141
    11  H    0.206425
    12  H    0.215832
    13  H   -0.156209
    14  H    0.393236
    15  H   -0.052800
 Sum of Mulliken charges =  -0.00000

 Dipole moment (field-independent basis, Debye):
    X=             -1.3863    Y=              1.5334    Z=              2.0020  Tot=              2.8777

 Test job not archived.
 1\1\GINC-SE362\SP\RHF\Aug-CC-pVDZ\C5H8O2\OHZDE\09-Apr-2025\0\\#t hf au
 g-cc-pvdz iop(5/13=1,5/36=2,99/5=2) pseudo=read geom=check guess=(read
 ,tcheck) scf=(maxcycle=1)\\title\\0,1\O,0,1.59673081,0.55337155,1.3080
 2781\C,0,1.20382545,1.21027743,0.12253118\C,0,1.03354676,0.26719601,-1
 .05803931\C,0,-0.12097591,-0.69312996,-0.93150556\O,0,-1.57401699,-1.4
 3354218,2.19913131\C,0,-0.97173474,-0.71204058,0.05456537\C,0,-1.80198
 854,-0.70600696,1.05934729\H,0,0.88697139,-0.0349419,1.57880201\H,0,1.
 99615999,1.92698334,-0.09941567\H,0,0.27771666,1.77955145,0.27762306\H

 Normal termination of Gaussian 16 at Wed Apr  9 18:53:44 2025.
