 Gaussian 16, Revision C.01,

 ----------------------------------------------------------------------
 #t hf aug-cc-pvdz symm=none int=(grid=ultrafine) guess=(read,tcheck) s
 table=(opt,rrhf)
 ----------------------------------------------------------------------
 -----
 title
 -----
 Symbolic Z-matrix:
 Charge =  0 Multiplicity = 1

 SCF Done:  E(RHF) =  -322.621129055     A.U. after   16 cycles
 Normal termination of Gaussian 16 at Wed Apr  9 17:51:58 2025.
 Gaussian 16:  ES64L-G16RevC.01  3-Jul-2019

 ----------------------------------------------------------------------
 #t hf aug-cc-pvdz iop(5/13=1,5/36=2,99/5=2) pseudo=read geom=check gue
 ss=(read,tcheck) scf=(maxcycle=1)
 ----------------------------------------------------------------------
 -----
 title
 -----
 Structure from the checkpoint file:  "Grambow2020_wb97xd3_006853_forward_mol1.chk"
 Charge =  0 Multiplicity = 1

                         Standard orientation:
 ---------------------------------------------------------------------
 Center     Atomic      Atomic             Coordinates (Angstroms)
 Number     Number       Type             X           Y           Z
 ---------------------------------------------------------------------
      1          6           0        2.600825   -0.479737    0.040696
      2          6           0        1.191540    0.049292   -0.036710
      3          6           0        0.083349   -0.879649   -0.062641
      4          6           0       -1.085424   -0.209757    0.014068
      5          7           0       -2.482068   -0.515869   -0.005849
      6          6           0       -1.464359    1.084405    0.180557
      7          8           0        0.971862    1.259930   -0.037225
      8          1           0        3.304170    0.295762   -0.255261
      9          1           0        2.728782   -1.362301   -0.588055
     10          1           0        2.817044   -0.771948    1.071367
     11          1           0        0.183000   -1.954654   -0.067033
     12          1           0       -2.900621   -0.817188    0.857125
     13          1           0       -2.822077   -0.983136   -0.831923
     14          1           0       -1.666293    1.737779   -0.663299
 ---------------------------------------------------------------------

 SCF Done:  E(RHF) =  -322.951686333     A.U. after    2 cycles

 The electronic state is 1-A.
 Alpha  occ. eigenvalues --  -20.50888 -15.55803 -11.32345 -11.31149 -11.27998
 Alpha  occ. eigenvalues --  -11.23349 -11.22090  -1.44329  -1.27063  -1.06990
 Alpha  occ. eigenvalues --   -1.01478  -0.95512  -0.79718  -0.76783  -0.73865
 Alpha  occ. eigenvalues --   -0.69278  -0.65012  -0.60165  -0.59206  -0.58170
 Alpha  occ. eigenvalues --   -0.54458  -0.51456  -0.49888  -0.43328  -0.40148
 Alpha  occ. eigenvalues --   -0.31975
 Alpha virt. eigenvalues --    0.02058   0.03812   0.04675   0.04849   0.05736
 Alpha virt. eigenvalues --    0.05961   0.07265   0.09215   0.09723   0.10022
 Alpha virt. eigenvalues --    0.11114   0.12720   0.13381   0.13819   0.14987

 Mulliken charges:
               1
     1  C   -0.517334
     2  C    0.994389
     3  C    0.816183
     4  C   -0.878384
     5  N    0.666783
     6  C   -0.567836
     7  O   -1.455461
     8  H    0.129513
     9  H    0.191583
    10  H    0.286574
    11  H   -0.254652
    12  H    0.335763
    13  H    0.266294
    14  H   -0.013416
 Sum of Mulliken charges =  -0.00000

 Dipole moment (field-independent basis, Debye):
    X=             -1.8226    Y=             -3.9977    Z=             -1.0887  Tot=              4.5264

 Test job not archived.
 1\1\GINC-SE112\SP\RHF\Aug-CC-pVDZ\C5H7N1O1\OHZDE\09-Apr-2025\0\\#t hf
 aug-cc-pvdz iop(5/13=1,5/36=2,99/5=2) pseudo=read geom=check guess=(re
 ad,tcheck) scf=(maxcycle=1)\\title\\0,1\C,0,2.51851552,-0.0697943,-0.0
 5009361\C,0,1.08317536,0.38914927,-0.01669449\C,0,0.02137814,-0.588061
 2,-0.11331785\C,0,-1.17459662,0.00559987,0.08131197\N,0,-2.5543526,-0.
 36980502,0.07349923\C,0,-1.6090949,1.25002275,0.41114302\O,0,0.8049740
 1,1.57841623,0.13214396\H,0,3.17081395,0.7708442,-0.27706776\H,0,2.663
 92686,-0.86597737,-0.78191826\H,0,2.7899352,-0.46696551,0.93123582\H,0

 Normal termination of Gaussian 16 at Wed Apr  9 17:52:02 2025.
