 Gaussian 16, Revision C.01,

 ----------------------------------------------------------------------
 #t hf aug-cc-pvdz symm=none int=(grid=ultrafine) guess=(read,tcheck) s
 table=(opt,rrhf)
 ----------------------------------------------------------------------
 -----
 title
 -----
 Symbolic Z-matrix:
 Charge =  0 Multiplicity = 1

 SCF Done:  E(RHF) =  -318.779952817     A.U. after   16 cycles
 Normal termination of Gaussian 16 at Wed Apr  9 17:59:06 2025.
 Gaussian 16:  ES64L-G16RevC.01  3-Jul-2019

 ----------------------------------------------------------------------
 #t hf aug-cc-pvdz iop(5/13=1,5/36=2,99/5=2) pseudo=read geom=check gue
 ss=(read,tcheck) scf=(maxcycle=1)
 ----------------------------------------------------------------------
 -----
 title
 -----
 Structure from the checkpoint file:  "Grambow2020_wb97xd3_006916_reverse_mol1.chk"
 Charge =  0 Multiplicity = 1

                         Standard orientation:
 ---------------------------------------------------------------------
 Center     Atomic      Atomic             Coordinates (Angstroms)
 Number     Number       Type             X           Y           Z
 ---------------------------------------------------------------------
      1          7           0        2.481433   -0.448294   -0.000250
      2          6           0        1.084789   -0.222038   -0.004792
      3          6           0        0.010349   -1.089600    0.012544
      4          6           0       -1.137883   -0.121420    0.105092
      5          7           0       -2.474222   -0.486387   -0.203881
      6          6           0       -0.635781    1.218865   -0.010880
      7          7           0        0.681417    1.103118   -0.023595
      8          1           0        2.686294   -1.260788    0.563745
      9          1           0        2.827858   -0.637123   -0.932302
     10          1           0       -0.785218   -0.376326    1.187421
     11          1           0       -3.146987   -0.171463    0.479342
     12          1           0       -2.524909   -1.491752   -0.289938
     13          1           0       -1.139408    2.171502   -0.063745
     14          1           0        1.333131    1.872046    0.037783
 ---------------------------------------------------------------------

 SCF Done:  E(RHF) =  -319.111926062     A.U. after    2 cycles

 The electronic state is 1-A.
 Alpha  occ. eigenvalues --  -15.59201 -15.49351 -15.49249 -11.30391 -11.27700
 Alpha  occ. eigenvalues --  -11.26919 -11.19470  -1.33858  -1.20037  -1.18197
 Alpha  occ. eigenvalues --   -1.05010  -0.98395  -0.83694  -0.80000  -0.76367
 Alpha  occ. eigenvalues --   -0.71017  -0.69376  -0.67198  -0.65427  -0.61384
 Alpha  occ. eigenvalues --   -0.58715  -0.52065  -0.45704  -0.42858  -0.33482
 Alpha  occ. eigenvalues --   -0.30227
 Alpha virt. eigenvalues --    0.02540   0.03804   0.04222   0.05368   0.05982
 Alpha virt. eigenvalues --    0.06344   0.07121   0.07813   0.10963   0.11314
 Alpha virt. eigenvalues --    0.11882   0.12471   0.13294   0.13312   0.15277

 Mulliken charges:
               1
     1  N    0.580508
     2  C   -1.523779
     3  C   -0.619787
     4  C   -1.056912
     5  N    0.448116
     6  C    0.054349
     7  N    0.782062
     8  H    0.256415
     9  H    0.270354
    10  H    0.628010
    11  H    0.152772
    12  H    0.217119
    13  H   -0.172240
    14  H   -0.016987
 Sum of Mulliken charges =   0.00000

 Dipole moment (field-independent basis, Debye):
    X=             -0.2757    Y=              3.7456    Z=              1.0205  Tot=              3.8919

 Test job not archived.
 1\1\GINC-SE029\SP\RHF\Aug-CC-pVDZ\C4H7N3\OHZDE\09-Apr-2025\0\\#t hf au
 g-cc-pvdz iop(5/13=1,5/36=2,99/5=2) pseudo=read geom=check guess=(read
 ,tcheck) scf=(maxcycle=1)\\title\\0,1\N,0,-2.53852764,-0.30216694,-0.0
 7468352\C,0,-1.13423786,-0.14763066,0.00222651\C,0,-0.11158743,-1.0664
 4337,0.13397498\C,0,1.09311246,-0.17058175,0.03147792\N,0,2.38514737,-
 0.57257083,0.45986779\C,0,0.66149575,1.19842379,-0.00661174\N,0,-0.658
 43137,1.15134831,-0.07099816\H,0,-2.75401253,-1.15214248,-0.57599506\H
 ,0,-2.95168173,-0.38567844,0.84548793\H,0,0.79373713,-0.50680948,-1.04

 Normal termination of Gaussian 16 at Wed Apr  9 17:59:10 2025.
