 Gaussian 16, Revision C.01,

 ----------------------------------------------------------------------
 #t hf aug-cc-pvdz symm=none int=(grid=ultrafine) guess=(read,tcheck) s
 table=(opt,rrhf)
 ----------------------------------------------------------------------
 -----
 title
 -----
 Symbolic Z-matrix:
 Charge =  0 Multiplicity = 1

 SCF Done:  E(RHF) =  -271.928284563     A.U. after   15 cycles
 Normal termination of Gaussian 16 at Wed Apr  9 03:40:24 2025.
 Gaussian 16:  ES64L-G16RevC.01  3-Jul-2019

 ----------------------------------------------------------------------
 #t hf aug-cc-pvdz iop(5/13=1,5/36=2,99/5=2) pseudo=read geom=check gue
 ss=(read,tcheck) scf=(maxcycle=1)
 ----------------------------------------------------------------------
 -----
 title
 -----
 Structure from the checkpoint file:  "Grambow2020_wb97xd3_007435_reverse_mol1.chk"
 Charge =  0 Multiplicity = 1

                         Standard orientation:
 ---------------------------------------------------------------------
 Center     Atomic      Atomic             Coordinates (Angstroms)
 Number     Number       Type             X           Y           Z
 ---------------------------------------------------------------------
      1          6           0        2.650204    0.164205   -0.173283
      2          6           0        1.394770   -0.698625   -0.164694
      3          6           0        0.242474   -0.038035    0.576485
      4          6           0       -0.384793    1.251682   -0.013676
      5          6           0       -1.865003    0.798998   -0.027195
      6          6           0       -1.781699   -0.525834   -0.728241
      7          6           0       -1.091579   -0.784328    0.591510
      8          1           0        3.468932   -0.328029   -0.700139
      9          1           0        2.988234    0.376517    0.843948
     10          1           0        2.467307    1.122240   -0.665758
     11          1           0        1.095974   -0.923303   -1.192888
     12          1           0        1.611293   -1.662429    0.309050
     13          1           0        0.561983    0.161281    1.603236
     14          1           0       -0.058668    1.467654   -1.036419
     15          1           0       -0.211794    2.140474    0.590703
     16          1           0       -1.758540    0.001289    1.226370
     17          1           0       -2.724485   -1.049055   -0.857422
     18          1           0       -1.140080   -0.597457   -1.602282
     19          1           0       -1.286404   -1.717559    1.116168
 ---------------------------------------------------------------------

 SCF Done:  E(RHF) =  -272.225134200     A.U. after    2 cycles

 The electronic state is 1-A.
 Alpha  occ. eigenvalues --  -11.26822 -11.25403 -11.24544 -11.23438 -11.23309
 Alpha  occ. eigenvalues --  -11.22958 -11.22799  -1.19344  -1.05844  -0.96756
 Alpha  occ. eigenvalues --   -0.92277  -0.85406  -0.78089  -0.74065  -0.68739
 Alpha  occ. eigenvalues --   -0.63080  -0.61503  -0.58356  -0.55800  -0.54602
 Alpha  occ. eigenvalues --   -0.53202  -0.51296  -0.50069  -0.47698  -0.46744
 Alpha  occ. eigenvalues --   -0.44591  -0.32665
 Alpha virt. eigenvalues --    0.03009   0.03284   0.03441   0.04323   0.05621
 Alpha virt. eigenvalues --    0.05816   0.06329   0.06594   0.07001   0.08810
 Alpha virt. eigenvalues --    0.09301   0.09737   0.11374   0.12480   0.13650

 Mulliken charges:
               1
     1  C   -0.343898
     2  C   -0.365788
     3  C   -0.165370
     4  C   -0.045620
     5  C   -0.484200
     6  C    0.278618
     7  C   -0.220409
     8  H    0.111780
     9  H    0.177070
    10  H    0.169485
    11  H    0.152378
    12  H    0.145456
    13  H   -0.015239
    14  H    0.105657
    15  H    0.024837
    16  H    0.628000
    17  H   -0.047611
    18  H    0.005007
    19  H   -0.110152
 Sum of Mulliken charges =  -0.00000

 Dipole moment (field-independent basis, Debye):
    X=              2.0995    Y=             -1.7922    Z=              0.0375  Tot=              2.7606

 Test job not archived.
 1\1\GINC-SE249\SP\RHF\Aug-CC-pVDZ\C7H12\OHZDE\09-Apr-2025\0\\#t hf aug
 -cc-pvdz iop(5/13=1,5/36=2,99/5=2) pseudo=read geom=check guess=(read,
 tcheck) scf=(maxcycle=1)\\title\\0,1\C,0,2.33571984,0.36145316,-0.6414
 4856\C,0,1.08364257,-0.50622598,-0.65142234\C,0,0.16985771,-0.21888044
 ,0.53007771\C,0,-0.52562133,1.16446192,0.61838881\C,0,-1.98394577,0.67
 514242,0.79155228\C,0,-2.12553054,-0.29746163,-0.34316472\C,0,-1.15210
 294,-0.98441594,0.58708331\H,0,2.98397019,0.13610304,-1.48949031\H,0,2
 .91505584,0.2051094,0.27180138\H,0,2.08084499,1.42274383,-0.69159737\H

 Normal termination of Gaussian 16 at Wed Apr  9 03:40:32 2025.
