 Gaussian 16, Revision C.01,

 ----------------------------------------------------------------------
 #t hf aug-cc-pvdz symm=none int=(grid=ultrafine) guess=(read,tcheck) s
 table=(opt,rrhf)
 ----------------------------------------------------------------------
 -----
 title
 -----
 Symbolic Z-matrix:
 Charge =  0 Multiplicity = 1

 SCF Done:  E(RHF) =  -323.918023554     A.U. after   14 cycles
 Normal termination of Gaussian 16 at Wed Apr  9 18:28:54 2025.
 Gaussian 16:  ES64L-G16RevC.01  3-Jul-2019

 ----------------------------------------------------------------------
 #t hf aug-cc-pvdz iop(5/13=1,5/36=2,99/5=2) pseudo=read geom=check gue
 ss=(read,tcheck) scf=(maxcycle=1)
 ----------------------------------------------------------------------
 -----
 title
 -----
 Structure from the checkpoint file:  "Grambow2020_wb97xd3_007613_reverse_mol2.chk"
 Charge =  0 Multiplicity = 1

                         Standard orientation:
 ---------------------------------------------------------------------
 Center     Atomic      Atomic             Coordinates (Angstroms)
 Number     Number       Type             X           Y           Z
 ---------------------------------------------------------------------
      1          6           0       -0.530104    1.428403    0.844967
      2          6           0       -0.369403    0.723872   -0.495568
      3          7           0        1.033440    0.431121   -0.793811
      4          6           0       -1.215017   -0.514944   -0.666675
      5          6           0       -2.158860   -0.938079    0.155601
      6          6           0        1.813292   -0.403102   -0.068408
      7          8           0        1.466621   -1.016017    0.913154
      8          1           0       -0.249729    0.766239    1.663225
      9          1           0        0.107555    2.312459    0.878858
     10          1           0       -1.562525    1.750898    0.985831
     11          1           0       -0.675684    1.420273   -1.283848
     12          1           0        1.460799    0.889002   -1.578115
     13          1           0       -1.006625   -1.075381   -1.574708
     14          1           0       -2.728122   -1.832381   -0.064204
     15          1           0       -2.391379   -0.427701    1.082371
     16          1           0        2.839217   -0.470019   -0.477455
 ---------------------------------------------------------------------

 SCF Done:  E(RHF) =  -324.254626502     A.U. after    2 cycles

 The electronic state is 1-A.
 Alpha  occ. eigenvalues --  -20.51062 -15.53139 -11.35518 -11.28867 -11.23998
 Alpha  occ. eigenvalues --  -11.22979 -11.22555  -1.46061  -1.25125  -1.08346
 Alpha  occ. eigenvalues --   -0.99818  -0.91258  -0.83299  -0.77791  -0.74507
 Alpha  occ. eigenvalues --   -0.67797  -0.64113  -0.63766  -0.61739  -0.57697
 Alpha  occ. eigenvalues --   -0.55722  -0.54178  -0.51959  -0.49471  -0.42897
 Alpha  occ. eigenvalues --   -0.42087  -0.37271
 Alpha virt. eigenvalues --    0.02572   0.04076   0.04203   0.04615   0.05336
 Alpha virt. eigenvalues --    0.05810   0.06267   0.07705   0.09461   0.10313
 Alpha virt. eigenvalues --    0.11696   0.12276   0.13270   0.13797   0.14056

 Mulliken charges:
               1
     1  C   -0.202325
     2  C   -1.176391
     3  N    0.843928
     4  C    0.812168
     5  C   -0.164244
     6  C    0.504772
     7  O   -1.105315
     8  H    0.283579
     9  H    0.066816
    10  H    0.208254
    11  H    0.155449
    12  H    0.208894
    13  H   -0.249485
    14  H   -0.110504
    15  H   -0.124992
    16  H    0.049395
 Sum of Mulliken charges =  -0.00000

 Dipole moment (field-independent basis, Debye):
    X=              0.0082    Y=              2.3400    Z=             -2.8019  Tot=              3.6505

 Test job not archived.
 1\1\GINC-SE226\SP\RHF\Aug-CC-pVDZ\C5H9N1O1\OHZDE\09-Apr-2025\0\\#t hf
 aug-cc-pvdz iop(5/13=1,5/36=2,99/5=2) pseudo=read geom=check guess=(re
 ad,tcheck) scf=(maxcycle=1)\\title\\0,1\C,0,-0.96562779,-1.0241763,0.6
 453216\C,0,-0.66216774,0.14170749,-0.28626367\N,0,-0.29195447,1.349453
 64,0.4532715\C,0,0.35717121,-0.15287754,-1.36012241\C,0,0.87558456,-1.
 33464553,-1.64418846\C,0,0.80768773,1.46382122,1.23302365\O,0,1.627912
 35,0.59807642,1.42544755\H,0,-0.0660194,-1.33885317,1.17286336\H,0,-1.
 7140984,-0.72704724,1.38072621\H,0,-1.36232316,-1.86996434,0.08228264\

 Normal termination of Gaussian 16 at Wed Apr  9 18:28:59 2025.
