 Gaussian 16, Revision C.01,

 ----------------------------------------------------------------------
 #t hf aug-cc-pvdz symm=none int=(grid=ultrafine) guess=(read,tcheck) s
 table=(opt,rrhf)
 ----------------------------------------------------------------------
 -----
 title
 -----
 Symbolic Z-matrix:
 Charge =  0 Multiplicity = 1

 SCF Done:  E(RHF) =  -323.787970344     A.U. after   15 cycles
 Normal termination of Gaussian 16 at Wed Apr  9 03:53:48 2025.
 Gaussian 16:  ES64L-G16RevC.01  3-Jul-2019

 ----------------------------------------------------------------------
 #t hf aug-cc-pvdz iop(5/13=1,5/36=2,99/5=2) pseudo=read geom=check gue
 ss=(read,tcheck) scf=(maxcycle=1)
 ----------------------------------------------------------------------
 -----
 title
 -----
 Structure from the checkpoint file:  "Grambow2020_wb97xd3_008325_reverse_mol1.chk"
 Charge =  0 Multiplicity = 1

                         Standard orientation:
 ---------------------------------------------------------------------
 Center     Atomic      Atomic             Coordinates (Angstroms)
 Number     Number       Type             X           Y           Z
 ---------------------------------------------------------------------
      1          7           0        1.470409    0.263485   -1.055863
      2          6           0        0.926784    0.358065    0.141142
      3          6           0       -0.176932    1.386173    0.291745
      4          6           0       -1.443782    0.719390   -0.282529
      5          6           0       -1.429053   -0.749291    0.139051
      6          6           0       -0.211535   -1.424639   -0.338559
      7          8           0        1.140019   -0.404689    1.152437
      8          1           0        2.214947   -0.433939   -1.007390
      9          1           0       -0.306940    1.608441    1.350387
     10          1           0        0.043998    2.300837   -0.256573
     11          1           0       -1.413530    0.780953   -1.372853
     12          1           0       -2.358784    1.209129    0.054344
     13          1           0       -1.529892   -0.863203    1.217278
     14          1           0       -2.250990   -1.292152   -0.355297
     15          1           0       -0.035028   -1.433925   -1.404276
     16          1           0        0.230312   -2.221215    0.240820
 ---------------------------------------------------------------------

 SCF Done:  E(RHF) =  -324.122723427     A.U. after    2 cycles

 The electronic state is 1-A.
 Alpha  occ. eigenvalues --  -20.47486 -15.44473 -11.39540 -11.31157 -11.28454
 Alpha  occ. eigenvalues --  -11.26064 -11.22826  -1.40307  -1.16257  -1.12580
 Alpha  occ. eigenvalues --   -1.03127  -0.91635  -0.84261  -0.74980  -0.70987
 Alpha  occ. eigenvalues --   -0.67968  -0.65876  -0.62123  -0.60357  -0.57036
 Alpha  occ. eigenvalues --   -0.55668  -0.52941  -0.50636  -0.50431  -0.44377
 Alpha  occ. eigenvalues --   -0.38470  -0.34985
 Alpha virt. eigenvalues --    0.01055   0.02389   0.03714   0.04074   0.04466
 Alpha virt. eigenvalues --    0.05882   0.06475   0.06707   0.07426   0.08115
 Alpha virt. eigenvalues --    0.11295   0.12832   0.12894   0.13360   0.13758

 Mulliken charges:
               1
     1  N    0.603008
     2  C   -0.087812
     3  C   -0.104042
     4  C   -0.277766
     5  C   -0.185210
     6  C    0.251043
     7  O   -1.609232
     8  H    0.278502
     9  H    0.114276
    10  H    0.151589
    11  H    0.186279
    12  H    0.119372
    13  H    0.122979
    14  H    0.264170
    15  H    0.103441
    16  H    0.069402
 Sum of Mulliken charges =   0.00000

 Dipole moment (field-independent basis, Debye):
    X=             -5.2217    Y=             -3.0471    Z=             -0.7282  Tot=              6.0895

 Test job not archived.
 1\1\GINC-SE044\SP\RHF\Aug-CC-pVDZ\C5H9N1O1\OHZDE\09-Apr-2025\0\\#t hf
 aug-cc-pvdz iop(5/13=1,5/36=2,99/5=2) pseudo=read geom=check guess=(re
 ad,tcheck) scf=(maxcycle=1)\\title\\0,1\N,0,1.68278708,0.88418944,0.78
 646759\C,0,1.23318079,0.35074046,-0.33182577\C,0,0.8851937,-1.12349336
 ,-0.27337244\C,0,-0.51195605,-1.19271317,0.37661436\C,0,-1.33708364,-0
 .02732093,-0.16744145\C,0,-0.68388869,1.26100596,0.11558912\O,0,0.9408
 1265,0.9648118,-1.42151259\H,0,1.90887415,1.86218827,0.59807851\H,0,0.
 85562931,-1.5172639,-1.28880237\H,0,1.60215107,-1.68551997,0.32342763\

 Normal termination of Gaussian 16 at Wed Apr  9 03:53:53 2025.
