 Gaussian 16, Revision C.01,

 ----------------------------------------------------------------------
 #t hf aug-cc-pvdz symm=none int=(grid=ultrafine) guess=(read,tcheck) s
 table=(opt,rrhf)
 ----------------------------------------------------------------------
 -----
 title
 -----
 Symbolic Z-matrix:
 Charge =  0 Multiplicity = 1

 SCF Done:  E(RHF) =  -302.711759315     A.U. after   17 cycles
 Normal termination of Gaussian 16 at Wed Apr  9 18:04:09 2025.
 Gaussian 16:  ES64L-G16RevC.01  3-Jul-2019

 ----------------------------------------------------------------------
 #t hf aug-cc-pvdz iop(5/13=1,5/36=2,99/5=2) pseudo=read geom=check gue
 ss=(read,tcheck) scf=(maxcycle=1)
 ----------------------------------------------------------------------
 -----
 title
 -----
 Structure from the checkpoint file:  "Grambow2020_wb97xd3_006962_reverse_mol1.chk"
 Charge =  0 Multiplicity = 1

                         Standard orientation:
 ---------------------------------------------------------------------
 Center     Atomic      Atomic             Coordinates (Angstroms)
 Number     Number       Type             X           Y           Z
 ---------------------------------------------------------------------
      1          6           0        0.622498    1.566975    0.522237
      2          6           0        0.821890    0.375639   -0.182418
      3          6           0        2.220495   -0.162031   -0.346023
      4          7           0       -0.025832   -1.646306    0.669545
      5          6           0       -0.357905   -0.760669   -0.311788
      6          6           0       -1.654784   -0.048479   -0.247600
      7          7           0       -2.641743    0.531465   -0.152869
      8          1           0        0.547260    1.253582   -0.936979
      9          1           0        1.440147    2.088572    1.012015
     10          1           0       -0.373975    1.990431    0.597906
     11          1           0        2.649702   -0.417183    0.621207
     12          1           0        2.214031   -1.067393   -0.950195
     13          1           0        2.860492    0.585232   -0.819155
     14          1           0       -0.331184   -1.277788    1.568250
     15          1           0       -0.246616   -1.180184   -1.316238
 ---------------------------------------------------------------------

 SCF Done:  E(RHF) =  -303.022248945     A.U. after    2 cycles

 The electronic state is 1-A.
 Alpha  occ. eigenvalues --  -15.51115 -15.40795 -11.37375 -11.32900 -11.32120
 Alpha  occ. eigenvalues --  -11.27426 -11.26536  -1.24106  -1.20020  -1.12806
 Alpha  occ. eigenvalues --   -1.00103  -0.92561  -0.83407  -0.73535  -0.72248
 Alpha  occ. eigenvalues --   -0.67317  -0.64017  -0.60918  -0.59835  -0.58191
 Alpha  occ. eigenvalues --   -0.56435  -0.53662  -0.50490  -0.49983  -0.41247
 Alpha  occ. eigenvalues --   -0.31867
 Alpha virt. eigenvalues --   -0.00054   0.01481   0.02595   0.03366   0.04866
 Alpha virt. eigenvalues --    0.06033   0.06204   0.07425   0.07644   0.10333
 Alpha virt. eigenvalues --    0.10997   0.11828   0.12311   0.13472   0.13972

 Mulliken charges:
               1
     1  C    0.134681
     2  C   -0.384266
     3  C   -0.269475
     4  N    0.553138
     5  C   -0.717035
     6  C   -1.839056
     7  N    1.065669
     8  H    0.639815
     9  H   -0.073794
    10  H    0.001560
    11  H    0.291725
    12  H    0.195392
    13  H    0.182994
    14  H    0.182849
    15  H    0.035804
 Sum of Mulliken charges =  -0.00000

 Dipole moment (field-independent basis, Debye):
    X=              5.8447    Y=              6.2984    Z=             -1.1884  Tot=              8.6743

 Test job not archived.
 1\1\GINC-SE362\SP\RHF\Aug-CC-pVDZ\C5H8N2\OHZDE\09-Apr-2025\0\\#t hf au
 g-cc-pvdz iop(5/13=1,5/36=2,99/5=2) pseudo=read geom=check guess=(read
 ,tcheck) scf=(maxcycle=1)\\title\\0,1\C,0,-0.67246472,1.38310097,-0.09
 801774\C,0,-0.32159638,0.08197886,0.27554514\C,0,-1.40524351,-0.942469
 82,0.49501541\N,0,0.88435255,-1.28075725,-1.21488153\C,0,1.14739958,-0
 .55668039,-0.09053332\C,0,2.10674382,0.56984158,-0.15246288\N,0,2.8142
 8266,1.4711373,-0.23279738\H,0,-0.16250145,0.82502621,1.19104345\H,0,-
 1.70250494,1.66569999,-0.29714057\H,0,0.09674709,2.14137292,-0.2044902

 Normal termination of Gaussian 16 at Wed Apr  9 18:04:13 2025.
