 Gaussian 16, Revision C.01,

 ----------------------------------------------------------------------
 #t hf aug-cc-pvdz symm=none int=(grid=ultrafine) guess=(read,tcheck) s
 table=(opt,rrhf)
 ----------------------------------------------------------------------
 -----
 title
 -----
 Symbolic Z-matrix:
 Charge =  0 Multiplicity = 1

 SCF Done:  E(RHF) =  -264.829058001     A.U. after   18 cycles
 Normal termination of Gaussian 16 at Wed Apr  9 15:41:55 2025.
 Gaussian 16:  ES64L-G16RevC.01  3-Jul-2019

 ----------------------------------------------------------------------
 #t hf aug-cc-pvdz iop(5/13=1,5/36=2,99/5=2) pseudo=read geom=check gue
 ss=(read,tcheck) scf=(maxcycle=1)
 ----------------------------------------------------------------------
 -----
 title
 -----
 Structure from the checkpoint file:  "Grambow2020_b97d3_006633_reverse_mol1.chk"
 Charge =  0 Multiplicity = 1

                         Standard orientation:
 ---------------------------------------------------------------------
 Center     Atomic      Atomic             Coordinates (Angstroms)
 Number     Number       Type             X           Y           Z
 ---------------------------------------------------------------------
      1          6           0       -2.250484   -0.510631   -0.247121
      2          6           0       -1.207033   -0.067592    0.655921
      3          6           0        0.046958    0.344053   -0.284601
      4          7           0        0.480672    1.666285   -0.061533
      5          6           0        1.080089   -0.924773   -0.125891
      6          7           0        2.269493   -0.795431    0.116003
      7          1           0       -2.799552    0.218909   -0.840867
      8          1           0       -2.369883   -1.563241   -0.501859
      9          1           0        0.455856   -1.829204   -0.331485
     10          1           0       -1.467815    0.863406    1.175274
     11          1           0       -0.888405   -0.825035    1.382976
     12          1           0       -0.245763    0.231320   -1.343709
     13          1           0        0.909551    1.773473    0.858604
     14          1           0        1.137671    1.988043   -0.770069
 ---------------------------------------------------------------------

 SCF Done:  E(RHF) =  -265.100168384     A.U. after    2 cycles

 The electronic state is 1-A.
 Alpha  occ. eigenvalues --  -15.51433 -15.46155 -11.33831 -11.32216 -11.28638
 Alpha  occ. eigenvalues --  -11.25571  -1.22816  -1.15226  -1.09487  -0.93216
 Alpha  occ. eigenvalues --   -0.85423  -0.76934  -0.72813  -0.68617  -0.64921
 Alpha  occ. eigenvalues --   -0.62257  -0.59489  -0.56310  -0.54696  -0.53432
 Alpha  occ. eigenvalues --   -0.45228  -0.43125  -0.26959
 Alpha virt. eigenvalues --   -0.04147   0.02690   0.03428   0.03839   0.04497
 Alpha virt. eigenvalues --    0.06040   0.06596   0.07201   0.07273   0.10582
 Alpha virt. eigenvalues --    0.11704   0.13145   0.13516   0.13882   0.14150

 Mulliken charges:
               1
     1  C    0.293114
     2  C   -0.071492
     3  C   -1.627240
     4  N    0.636590
     5  C   -1.174284
     6  N    0.724260
     7  H    0.017706
     8  H    0.006772
     9  H    0.062005
    10  H    0.228991
    11  H    0.185994
    12  H    0.239973
    13  H    0.245171
    14  H    0.232440
 Sum of Mulliken charges =  -0.00000

 Dipole moment (field-independent basis, Debye):
    X=             -8.1259    Y=              1.2862    Z=             -0.7250  Tot=              8.2589

 Test job not archived.
 1\1\GINC-SE100\SP\RHF\Aug-CC-pVDZ\C4H8N2\OHZDE\09-Apr-2025\0\\#t hf au
 g-cc-pvdz iop(5/13=1,5/36=2,99/5=2) pseudo=read geom=check guess=(read
 ,tcheck) scf=(maxcycle=1)\\title\\0,1\C,0,-1.73162716,-0.3973296,0.877
 38683\C,0,-0.7736836,-0.73603675,-0.15614069\C,0,0.54095838,0.16179587
 ,0.14741135\N,0,1.70837649,-0.61567424,0.28466662\C,0,0.45098885,1.365
 72746,-0.96834975\N,0,1.38954257,1.69742612,-1.6747617\H,0,-1.5862493,
 -0.76386478,1.89264825\H,0,-2.48419177,0.37491576,0.72111929\H,0,-0.58
 415493,1.77511876,-0.86439437\H,0,-0.41511967,-1.77008673,-0.07450553\

 Normal termination of Gaussian 16 at Wed Apr  9 15:42:00 2025.
