 Gaussian 16, Revision C.01,

 ----------------------------------------------------------------------
 #t hf aug-cc-pvdz symm=none int=(grid=ultrafine) guess=(read,tcheck) s
 table=(opt,rrhf)
 ----------------------------------------------------------------------
 -----
 title
 -----
 Symbolic Z-matrix:
 Charge =  0 Multiplicity = 1

 SCF Done:  E(RHF) =  -270.029851618     A.U. after   13 cycles

 1\1\GINC-SE043\Stability\RHF\Aug-CC-pVDZ\C5H10O1\OHZDE\09-Apr-2025\0\\
 #t hf aug-cc-pvdz symm=none int=(grid=ultrafine) guess=(read,tcheck) s
 table=(opt,rrhf)\\title\\0,1\C,0,-2.28225478,-0.77014376,0.4001101\C,0
 ,-2.00496267,-0.28169615,-0.8161545\O,0,0.94596505,1.56309866,-1.22553
 564\C,0,1.18524219,0.7481946,-0.34565546\C,0,1.68431417,-0.65602093,-0
 .65469973\C,0,0.97398976,1.06246743,1.12865632\H,0,-2.42552942,-1.8382
 0545,0.57292461\H,0,-1.85443495,0.78370625,-0.99036118\H,0,-2.38941924
 ,-0.11787679,1.26858513\H,0,-1.90208113,-0.93343999,-1.68538018\H,0,1.

 Normal termination of Gaussian 16 at Wed Apr  9 15:58:58 2025.
 Gaussian 16:  ES64L-G16RevC.01  3-Jul-2019

 ----------------------------------------------------------------------
 #t hf aug-cc-pvdz iop(5/13=1,5/36=2,99/5=2) pseudo=read geom=check gue
 ss=(read,tcheck) scf=(maxcycle=1)
 ----------------------------------------------------------------------
 -----
 title
 -----
 Structure from the checkpoint file:  "Grambow2020_b97d3_007067_reverse_mol2.chk"
 Charge =  0 Multiplicity = 1

                         Standard orientation:
 ---------------------------------------------------------------------
 Center     Atomic      Atomic             Coordinates (Angstroms)
 Number     Number       Type             X           Y           Z
 ---------------------------------------------------------------------
      1          6           0       -2.601864    0.398115    0.317893
      2          6           0       -2.119635   -0.580946   -0.459066
      3          8           0        1.294858   -0.539806   -1.245441
      4          6           0        1.205160   -0.032195   -0.136479
      5          6           0        1.218608   -0.862475    1.139004
      6          6           0        1.041976    1.468848    0.056480
      7          1           0       -3.102930    0.188240    1.264484
      8          1           0       -1.612570   -0.373902   -1.401460
      9          1           0       -2.525122    1.448107    0.030122
     10          1           0       -2.200195   -1.631104   -0.173432
     11          1           0        1.403487   -1.916018    0.903898
     12          1           0        1.981684   -0.494658    1.841231
     13          1           0        0.243328   -0.766294    1.639630
     14          1           0        0.095610    1.668886    0.580812
     15          1           0        1.040337    1.977712   -0.913441
     16          1           0        1.852032    1.869396    0.684686
 ---------------------------------------------------------------------

 SCF Done:  E(RHF) =  -270.316397059     A.U. after    2 cycles

 The electronic state is 1-A.
 Alpha  occ. eigenvalues --  -20.53251 -11.34216 -11.24750 -11.24613 -11.24548
 Alpha  occ. eigenvalues --  -11.24496  -1.45795  -1.04486  -1.03608  -0.96333
 Alpha  occ. eigenvalues --   -0.79695  -0.74599  -0.65105  -0.64446  -0.63822
 Alpha  occ. eigenvalues --   -0.62349  -0.60190  -0.56110  -0.56052  -0.53934
 Alpha  occ. eigenvalues --   -0.51534  -0.48209  -0.40807  -0.38699
 Alpha virt. eigenvalues --    0.03223   0.03785   0.04050   0.04723   0.05899
 Alpha virt. eigenvalues --    0.06583   0.06865   0.06917   0.08067   0.09499
 Alpha virt. eigenvalues --    0.10250   0.11714   0.13095   0.13981   0.14573

 Mulliken charges:
               1
     1  C    0.080702
     2  C    0.085063
     3  O   -1.342350
     4  C    0.989636
     5  C   -0.448823
     6  C   -0.407325
     7  H   -0.041599
     8  H   -0.037894
     9  H   -0.064449
    10  H   -0.065526
    11  H    0.132703
    12  H    0.236326
    13  H    0.262171
    14  H    0.265368
    15  H    0.115819
    16  H    0.240177
 Sum of Mulliken charges =  -0.00000

 Dipole moment (field-independent basis, Debye):
    X=             -0.3640    Y=              1.2415    Z=              2.8547  Tot=              3.1342

 Test job not archived.
 1\1\GINC-SE043\SP\RHF\Aug-CC-pVDZ\C5H10O1\OHZDE\09-Apr-2025\0\\#t hf a
 ug-cc-pvdz iop(5/13=1,5/36=2,99/5=2) pseudo=read geom=check guess=(rea
 d,tcheck) scf=(maxcycle=1)\\title\\0,1\C,0,-2.28225478,-0.77014376,0.4
 001101\C,0,-2.00496267,-0.28169615,-0.8161545\O,0,0.94596505,1.5630986
 6,-1.22553564\C,0,1.18524219,0.7481946,-0.34565546\C,0,1.68431417,-0.6
 5602093,-0.65469973\C,0,0.97398976,1.06246743,1.12865632\H,0,-2.425529
 42,-1.83820545,0.57292461\H,0,-1.85443495,0.78370625,-0.99036118\H,0,-
 2.38941924,-0.11787679,1.26858513\H,0,-1.90208113,-0.93343999,-1.68538

 Normal termination of Gaussian 16 at Wed Apr  9 15:59:02 2025.
