 Gaussian 16, Revision C.01,

 ----------------------------------------------------------------------
 #t hf aug-cc-pvdz symm=none int=(grid=ultrafine) guess=(read,tcheck) s
 table=(opt,rrhf)
 ----------------------------------------------------------------------
 -----
 title
 -----
 Symbolic Z-matrix:
 Charge =  0 Multiplicity = 1

 SCF Done:  E(RHF) =  -338.532222850     A.U. after   16 cycles
 Normal termination of Gaussian 16 at Wed Apr  9 03:40:25 2025.
 Gaussian 16:  ES64L-G16RevC.01  3-Jul-2019

 ----------------------------------------------------------------------
 #t hf aug-cc-pvdz iop(5/13=1,5/36=2,99/5=2) pseudo=read geom=check gue
 ss=(read,tcheck) scf=(maxcycle=1)
 ----------------------------------------------------------------------
 -----
 title
 -----
 Structure from the checkpoint file:  "Grambow2020_wb97xd3_007477_forward_mol1.chk"
 Charge =  0 Multiplicity = 1

                         Standard orientation:
 ---------------------------------------------------------------------
 Center     Atomic      Atomic             Coordinates (Angstroms)
 Number     Number       Type             X           Y           Z
 ---------------------------------------------------------------------
      1          6           0        2.322647    0.328401    0.336936
      2          8           0        1.372535   -0.435091   -0.395060
      3          6           0        0.085898   -0.119127   -0.157947
      4          6           0       -0.726681    1.108912   -0.397964
      5          7           0       -1.834564    0.764815    0.144378
      6          6           0       -1.419875   -0.474865    0.747861
      7          7           0       -0.899973   -1.189465   -0.394555
      8          1           0        2.183596    1.398710    0.165086
      9          1           0        3.303631    0.027053   -0.021810
     10          1           0        2.239746    0.116310    1.406564
     11          1           0       -0.498080    2.043783   -0.898202
     12          1           0       -0.167659   -0.132499    1.166898
     13          1           0       -0.471693   -2.060002   -0.080123
 ---------------------------------------------------------------------

 SCF Done:  E(RHF) =  -338.878361375     A.U. after    2 cycles

 The electronic state is 1-A.
 Alpha  occ. eigenvalues --  -20.60780 -15.53595 -15.51673 -11.38389 -11.32437
 Alpha  occ. eigenvalues --  -11.32112 -11.30840  -1.54146  -1.36560  -1.19947
 Alpha  occ. eigenvalues --   -1.00477  -0.93698  -0.90577  -0.77840  -0.75641
 Alpha  occ. eigenvalues --   -0.73003  -0.68753  -0.66629  -0.65106  -0.59931
 Alpha  occ. eigenvalues --   -0.56584  -0.51642  -0.49643  -0.47723  -0.43894
 Alpha  occ. eigenvalues --   -0.37530
 Alpha virt. eigenvalues --    0.02734   0.03802   0.04444   0.04624   0.05763
 Alpha virt. eigenvalues --    0.06866   0.07936   0.09269   0.09885   0.11036
 Alpha virt. eigenvalues --    0.12299   0.12650   0.13176   0.14285   0.14570

 Mulliken charges:
               1
     1  C    0.080806
     2  O   -1.544933
     3  C    0.477744
     4  C   -0.459127
     5  N    0.589114
     6  C   -0.659120
     7  N    0.397445
     8  H    0.205180
     9  H   -0.001883
    10  H    0.158269
    11  H   -0.043491
    12  H    0.550317
    13  H    0.249679
 Sum of Mulliken charges =   0.00000

 Dipole moment (field-independent basis, Debye):
    X=              5.3641    Y=              1.1335    Z=              0.1361  Tot=              5.4842

 Test job not archived.
 1\1\GINC-SE069\SP\RHF\Aug-CC-pVDZ\C4H6N2O1\OHZDE\09-Apr-2025\0\\#t hf
 aug-cc-pvdz iop(5/13=1,5/36=2,99/5=2) pseudo=read geom=check guess=(re
 ad,tcheck) scf=(maxcycle=1)\\title\\0,1\C,0,-1.89355749,-0.29764648,-0
 .20247061\O,0,-0.86262652,-0.35134327,0.77515326\C,0,0.3531054,0.02844
 15,0.34012206\C,0,0.90278007,1.32290846,-0.15805971\N,0,2.08665764,0.9
 6207202,-0.48695499\C,0,1.95127886,-0.46024517,-0.30904271\N,0,1.50724
 103,-0.53602681,1.06323728\H,0,-1.97003576,0.7013562,-0.63901715\H,0,-
 2.81989087,-0.54163241,0.31154899\H,0,-1.70709791,-1.02892174,-0.99394

 Normal termination of Gaussian 16 at Wed Apr  9 03:40:29 2025.
