 Gaussian 16, Revision C.01,

 ----------------------------------------------------------------------
 #t hf aug-cc-pvdz symm=none int=(grid=ultrafine) guess=(read,tcheck) s
 table=(opt,rrhf)
 ----------------------------------------------------------------------
 -----
 title
 -----
 Symbolic Z-matrix:
 Charge =  0 Multiplicity = 1

 SCF Done:  E(RHF) =  -343.563269925     A.U. after   18 cycles
 Normal termination of Gaussian 16 at Wed Apr  9 03:45:41 2025.
 Gaussian 16:  ES64L-G16RevC.01  3-Jul-2019

 ----------------------------------------------------------------------
 #t hf aug-cc-pvdz iop(5/13=1,5/36=2,99/5=2) pseudo=read geom=check gue
 ss=(read,tcheck) scf=(maxcycle=1)
 ----------------------------------------------------------------------
 -----
 title
 -----
 Structure from the checkpoint file:  "Grambow2020_wb97xd3_007803_forward_mol1.chk"
 Charge =  0 Multiplicity = 1

                         Standard orientation:
 ---------------------------------------------------------------------
 Center     Atomic      Atomic             Coordinates (Angstroms)
 Number     Number       Type             X           Y           Z
 ---------------------------------------------------------------------
      1          6           0        2.210356   -0.561091   -0.054663
      2          6           0        0.792517   -0.013645    0.039043
      3          6           0        0.542429    1.263212   -0.673851
      4          6           0       -0.320833   -0.955369   -0.433345
      5          6           0       -1.458365   -0.004081   -0.142701
      6          8           0       -2.586586   -0.136225    0.143830
      7          8           0        0.375189    0.408926    1.265681
      8          1           0        2.287423   -1.410542    0.625831
      9          1           0        2.473055   -0.886232   -1.064414
     10          1           0        2.920937    0.196614    0.275064
     11          1           0        0.179262    1.379489   -1.694555
     12          1           0       -1.010632    1.111929   -0.341919
     13          1           0        0.960703    2.143669   -0.201849
     14          1           0       -0.309423   -1.256836   -1.487664
     15          1           0       -0.406763   -1.833854    0.206524
 ---------------------------------------------------------------------

 SCF Done:  E(RHF) =  -343.913666360     A.U. after    2 cycles

 The electronic state is 1-A.
 Alpha  occ. eigenvalues --  -20.58443 -20.43958 -11.39644 -11.38050 -11.29934
 Alpha  occ. eigenvalues --  -11.26771 -11.24006  -1.53145  -1.36069  -1.10059
 Alpha  occ. eigenvalues --   -1.00799  -0.98747  -0.82310  -0.78412  -0.72146
 Alpha  occ. eigenvalues --   -0.68348  -0.66414  -0.65693  -0.61059  -0.58979
 Alpha  occ. eigenvalues --   -0.56070  -0.54983  -0.53048  -0.48656  -0.43987
 Alpha  occ. eigenvalues --   -0.35791  -0.34710
 Alpha virt. eigenvalues --   -0.00741   0.02535   0.03227   0.03851   0.04937
 Alpha virt. eigenvalues --    0.05829   0.06511   0.06595   0.07902   0.09981
 Alpha virt. eigenvalues --    0.11306   0.12362   0.12761   0.13398   0.14076

 Mulliken charges:
               1
     1  C   -0.424173
     2  C    1.103159
     3  C   -0.174306
     4  C   -0.417971
     5  C    1.340430
     6  O   -1.225828
     7  O   -1.727555
     8  H    0.245574
     9  H    0.245999
    10  H    0.199614
    11  H    0.063864
    12  H    0.383713
    13  H    0.027955
    14  H    0.202438
    15  H    0.157088
 Sum of Mulliken charges =  -0.00000

 Dipole moment (field-independent basis, Debye):
    X=              2.3720    Y=              0.7667    Z=             -5.7261  Tot=              6.2452

 Test job not archived.
 1\1\GINC-SE127\SP\RHF\Aug-CC-pVDZ\C5H8O2\OHZDE\09-Apr-2025\0\\#t hf au
 g-cc-pvdz iop(5/13=1,5/36=2,99/5=2) pseudo=read geom=check guess=(read
 ,tcheck) scf=(maxcycle=1)\\title\\0,1\C,0,-1.15347005,1.17305319,-0.83
 687251\C,0,-0.17606915,0.39792101,0.03639966\C,0,-0.75933824,-0.702848
 73,0.84214771\C,0,1.01614305,-0.23316017,-0.69154841\C,0,1.64553359,-0
 .8371426,0.54233776\O,0,2.74158988,-1.10410259,0.85830878\O,0,0.386939
 4,1.07189112,1.07858672\H,0,-0.62355173,2.0314852,-1.25263557\H,0,-1.5
 5920917,0.57230877,-1.65467937\H,0,-1.97399838,1.55040798,-0.2268733\H

 Normal termination of Gaussian 16 at Wed Apr  9 03:45:46 2025.
