 Gaussian 16, Revision C.01,

 ----------------------------------------------------------------------
 #t hf aug-cc-pvdz symm=none int=(grid=ultrafine) guess=(read,tcheck) s
 table=(opt,rrhf)
 ----------------------------------------------------------------------
 -----
 title
 -----
 Symbolic Z-matrix:
 Charge =  0 Multiplicity = 1

 SCF Done:  E(RHF) =  -305.676642612     A.U. after   15 cycles
 Normal termination of Gaussian 16 at Wed Apr  9 17:00:12 2025.
 Gaussian 16:  ES64L-G16RevC.01  3-Jul-2019

 ----------------------------------------------------------------------
 #t hf aug-cc-pvdz iop(5/13=1,5/36=2,99/5=2) pseudo=read geom=check gue
 ss=(read,tcheck) scf=(maxcycle=1)
 ----------------------------------------------------------------------
 -----
 title
 -----
 Structure from the checkpoint file:  "Grambow2020_wb97xd3_006216_forward_mol1.chk"
 Charge =  0 Multiplicity = 1

                         Standard orientation:
 ---------------------------------------------------------------------
 Center     Atomic      Atomic             Coordinates (Angstroms)
 Number     Number       Type             X           Y           Z
 ---------------------------------------------------------------------
      1          6           0       -2.181844   -0.219222    0.235543
      2          8           0       -0.906944   -0.551546   -0.267394
      3          6           0       -0.119933    0.555666   -0.564993
      4          6           0        0.623358    1.260626    0.528135
      5          6           0        1.366372    0.402675   -0.449475
      6          8           0        1.606867   -1.141440    0.312771
      7          1           0       -2.760139    0.347497   -0.502829
      8          1           0       -2.102095    0.372754    1.153233
      9          1           0       -2.697789   -1.153473    0.451848
     10          1           0       -0.469894    1.131112   -1.420854
     11          1           0        0.515068    0.861666    1.529479
     12          1           0        0.780137    2.331531    0.475065
     13          1           0        2.163658   -0.708869   -0.519540
     14          1           0        0.843952   -1.636798   -0.024681
 ---------------------------------------------------------------------

 SCF Done:  E(RHF) =  -305.994478815     A.U. after    2 cycles

 The electronic state is 1-A.
 Alpha  occ. eigenvalues --  -20.58968 -20.56630 -11.29401 -11.29285 -11.27365
 Alpha  occ. eigenvalues --  -11.23782  -1.49508  -1.46683  -1.13916  -0.95321
 Alpha  occ. eigenvalues --   -0.82385  -0.80424  -0.74361  -0.70094  -0.65478
 Alpha  occ. eigenvalues --   -0.62880  -0.61211  -0.57775  -0.56642  -0.51454
 Alpha  occ. eigenvalues --   -0.49510  -0.44050  -0.42790  -0.34216
 Alpha virt. eigenvalues --    0.03431   0.04007   0.04323   0.04944   0.06345
 Alpha virt. eigenvalues --    0.06861   0.07465   0.07574   0.11042   0.11351
 Alpha virt. eigenvalues --    0.13021   0.13356   0.13770   0.15445   0.15648

 Mulliken charges:
               1
     1  C    0.087692
     2  O   -1.471093
     3  C    1.477756
     4  C   -0.108253
     5  C   -0.174885
     6  O   -1.121797
     7  H    0.160204
     8  H    0.184460
     9  H   -0.021994
    10  H   -0.080333
    11  H   -0.034697
    12  H   -0.074418
    13  H    0.676893
    14  H    0.500467
 Sum of Mulliken charges =  -0.00000

 Dipole moment (field-independent basis, Debye):
    X=             -2.4726    Y=              0.0472    Z=              0.2929  Tot=              2.4903

 Test job not archived.
 1\1\GINC-SE103\SP\RHF\Aug-CC-pVDZ\C4H8O2\OHZDE\09-Apr-2025\0\\#t hf au
 g-cc-pvdz iop(5/13=1,5/36=2,99/5=2) pseudo=read geom=check guess=(read
 ,tcheck) scf=(maxcycle=1)\\title\\0,1\C,0,1.6484805,-0.4038364,-1.0492
 4921\O,0,0.34747458,0.13430903,-0.96838259\C,0,-0.48857777,-0.55859268
 ,-0.09960581\C,0,-0.41568147,-0.29987467,1.37420812\C,0,-1.57753509,0.
 21421331,0.58068444\O,0,-1.24543925,1.88226903,0.21950341\H,0,1.626501
 21,-1.42870604,-1.4364808\H,0,2.13639067,-0.40586299,-0.06899954\H,0,2
 .2162172,0.22410877,-1.7342092\H,0,-0.76268752,-1.55357819,-0.44742412

 Normal termination of Gaussian 16 at Wed Apr  9 17:00:16 2025.
