 Gaussian 16, Revision C.01,

 ----------------------------------------------------------------------
 #t hf aug-cc-pvdz symm=none int=(grid=ultrafine) guess=(read,tcheck) s
 table=(opt,rrhf)
 ----------------------------------------------------------------------
 -----
 title
 -----
 Symbolic Z-matrix:
 Charge =  0 Multiplicity = 1

 SCF Done:  E(RHF) =  -358.514699380     A.U. after   15 cycles
 Normal termination of Gaussian 16 at Wed Apr  9 17:44:21 2025.
 Gaussian 16:  ES64L-G16RevC.01  3-Jul-2019

 ----------------------------------------------------------------------
 #t hf aug-cc-pvdz iop(5/13=1,5/36=2,99/5=2) pseudo=read geom=check gue
 ss=(read,tcheck) scf=(maxcycle=1)
 ----------------------------------------------------------------------
 -----
 title
 -----
 Structure from the checkpoint file:  "Grambow2020_wb97xd3_006799_reverse_mol2.chk"
 Charge =  0 Multiplicity = 1

                         Standard orientation:
 ---------------------------------------------------------------------
 Center     Atomic      Atomic             Coordinates (Angstroms)
 Number     Number       Type             X           Y           Z
 ---------------------------------------------------------------------
      1          8           0        0.670460   -1.174873    0.228194
      2          6           0        1.762960   -0.505374   -0.245947
      3          6           0        1.633972    0.808466   -0.268196
      4          6           0        0.278624    1.155703    0.282964
      5          7           0       -0.314326   -0.175081    0.411382
      6          6           0       -1.536684   -0.489436   -0.109902
      7          8           0       -2.413365    0.323664   -0.263338
      8          1           0        2.587075   -1.148768   -0.512578
      9          1           0        2.376416    1.518645   -0.590960
     10          1           0       -0.349433    1.753872   -0.381474
     11          1           0        0.332985    1.661271    1.251798
     12          1           0       -1.636756   -1.565929   -0.318819
 ---------------------------------------------------------------------

 SCF Done:  E(RHF) =  -358.873554578     A.U. after    2 cycles

 The electronic state is 1-A.
 Alpha  occ. eigenvalues --  -20.62605 -20.53115 -15.58804 -11.36828 -11.32134
 Alpha  occ. eigenvalues --  -11.29676 -11.25440  -1.56576  -1.47748  -1.21443
 Alpha  occ. eigenvalues --   -1.11054  -0.95541  -0.84816  -0.82850  -0.75133
 Alpha  occ. eigenvalues --   -0.72432  -0.68288  -0.64677  -0.62284  -0.59563
 Alpha  occ. eigenvalues --   -0.57944  -0.56999  -0.55837  -0.44961  -0.43829
 Alpha  occ. eigenvalues --   -0.35945
 Alpha virt. eigenvalues --    0.03023   0.03919   0.04494   0.05317   0.06082
 Alpha virt. eigenvalues --    0.08862   0.09082   0.09848   0.10743   0.12532
 Alpha virt. eigenvalues --    0.12737   0.13642   0.14507   0.14858   0.16049

 Mulliken charges:
               1
     1  O   -1.502098
     2  C    0.680446
     3  C    0.381637
     4  C   -0.463337
     5  N    1.133549
     6  C    0.633942
     7  O   -1.015500
     8  H   -0.092538
     9  H   -0.076118
    10  H    0.074298
    11  H    0.108304
    12  H    0.137414
 Sum of Mulliken charges =  -0.00000

 Dipole moment (field-independent basis, Debye):
    X=              3.6306    Y=             -0.1975    Z=             -0.5135  Tot=              3.6721

 Test job not archived.
 1\1\GINC-SE229\SP\RHF\Aug-CC-pVDZ\C4H5N1O2\OHZDE\09-Apr-2025\0\\#t hf
 aug-cc-pvdz iop(5/13=1,5/36=2,99/5=2) pseudo=read geom=check guess=(re
 ad,tcheck) scf=(maxcycle=1)\\title\\0,1\O,0,0.91718244,-1.09438335,0.1
 35379\C,0,1.6296709,-0.01317393,-0.3004455\C,0,0.99270362,1.13917626,-
 0.20211195\C,0,-0.35707523,0.87805566,0.40717689\N,0,-0.36995217,-0.58
 428524,0.42868787\C,0,-1.39658267,-1.31884358,-0.09204971\O,0,-2.52965
 686,-0.91181455,-0.1529987\H,0,2.62441458,-0.25488516,-0.64143421\H,0,
 1.37637097,2.10744993,-0.47597384\H,0,-1.20569729,1.22482424,-0.187240

 Normal termination of Gaussian 16 at Wed Apr  9 17:44:25 2025.
