 Gaussian 16, Revision C.01,

 ----------------------------------------------------------------------
 #t hf aug-cc-pvdz symm=none int=(grid=ultrafine) guess=(read,tcheck) s
 table=(opt,rrhf)
 ----------------------------------------------------------------------
 -----
 title
 -----
 Symbolic Z-matrix:
 Charge =  0 Multiplicity = 1

 SCF Done:  E(RHF) =  -323.922387170     A.U. after   14 cycles
 Normal termination of Gaussian 16 at Wed Apr  9 18:15:50 2025.
 Gaussian 16:  ES64L-G16RevC.01  3-Jul-2019

 ----------------------------------------------------------------------
 #t hf aug-cc-pvdz iop(5/13=1,5/36=2,99/5=2) pseudo=read geom=check gue
 ss=(read,tcheck) scf=(maxcycle=1)
 ----------------------------------------------------------------------
 -----
 title
 -----
 Structure from the checkpoint file:  "Grambow2020_wb97xd3_007249_forward_mol2.chk"
 Charge =  0 Multiplicity = 1

                         Standard orientation:
 ---------------------------------------------------------------------
 Center     Atomic      Atomic             Coordinates (Angstroms)
 Number     Number       Type             X           Y           Z
 ---------------------------------------------------------------------
      1          6           0        1.312080    1.206233    0.559467
      2          6           0        0.572526    0.000410   -0.011494
      3          6           0        1.549277   -1.039396   -0.542405
      4          6           0       -0.427491   -0.600653    1.007418
      5          8           0       -1.722527   -0.234222    0.502863
      6          6           0       -1.487825    0.311347   -0.707753
      7          7           0       -0.303934    0.467167   -1.103696
      8          1           0        1.904538    1.687375   -0.219522
      9          1           0        1.980681    0.903975    1.369241
     10          1           0        0.605365    1.940754    0.950640
     11          1           0        2.179294   -1.426259    0.262427
     12          1           0        1.013179   -1.875435   -0.994788
     13          1           0        2.192946   -0.596482   -1.303280
     14          1           0       -0.377695   -1.691151    1.053590
     15          1           0       -0.323033   -0.192866    2.013192
     16          1           0       -2.378925    0.586051   -1.259922
 ---------------------------------------------------------------------

 SCF Done:  E(RHF) =  -324.261640693     A.U. after    2 cycles

 The electronic state is 1-A.
 Alpha  occ. eigenvalues --  -20.58149 -15.48367 -11.33520 -11.29484 -11.27477
 Alpha  occ. eigenvalues --  -11.22759 -11.22710  -1.52314  -1.23189  -1.08146
 Alpha  occ. eigenvalues --   -0.95578  -0.94621  -0.83401  -0.79024  -0.71580
 Alpha  occ. eigenvalues --   -0.68572  -0.63624  -0.59806  -0.59700  -0.57614
 Alpha  occ. eigenvalues --   -0.56150  -0.53545  -0.52240  -0.50596  -0.49022
 Alpha  occ. eigenvalues --   -0.46310  -0.39991
 Alpha virt. eigenvalues --    0.03654   0.04105   0.04430   0.04481   0.05747
 Alpha virt. eigenvalues --    0.05939   0.06443   0.07219   0.09284   0.10246
 Alpha virt. eigenvalues --    0.11383   0.12623   0.13035   0.14455   0.14990

 Mulliken charges:
               1
     1  C    0.019526
     2  C   -3.122008
     3  C    0.025004
     4  C    1.279626
     5  O   -1.321521
     6  C    0.702293
     7  N    0.999728
     8  H    0.192373
     9  H    0.246648
    10  H    0.145567
    11  H    0.256198
    12  H    0.165023
    13  H    0.214807
    14  H    0.092194
    15  H    0.114961
    16  H   -0.010418
 Sum of Mulliken charges =   0.00000

 Dipole moment (field-independent basis, Debye):
    X=              0.1980    Y=             -0.7592    Z=              1.5876  Tot=              1.7709

 Test job not archived.
 1\1\GINC-SE131\SP\RHF\Aug-CC-pVDZ\C5H9N1O1\OHZDE\09-Apr-2025\0\\#t hf
 aug-cc-pvdz iop(5/13=1,5/36=2,99/5=2) pseudo=read geom=check guess=(re
 ad,tcheck) scf=(maxcycle=1)\\title\\0,1\C,0,0.9151512,1.16073876,0.641
 81566\C,0,0.17896986,0.05216845,-0.10387465\C,0,1.15847274,-0.89008044
 ,-0.78932682\C,0,-0.81494985,-0.70166349,0.81446833\O,0,-2.11327963,-0
 .26906736,0.37496223\C,0,-1.88506844,0.45535019,-0.73924606\N,0,-0.703
 21754,0.67529899,-1.11005758\H,0,1.50285539,1.75759156,-0.05653845\H,0
 ,1.58780597,0.74212573,1.39442395\H,0,0.20654676,1.82381067,1.1420143\

 Normal termination of Gaussian 16 at Wed Apr  9 18:15:56 2025.
