 Gaussian 16, Revision C.01,

 ----------------------------------------------------------------------
 #t hf aug-cc-pvdz symm=none int=(grid=ultrafine) guess=(read,tcheck) s
 table=(opt,rrhf)
 ----------------------------------------------------------------------
 -----
 title
 -----
 Symbolic Z-matrix:
 Charge =  0 Multiplicity = 1

 SCF Done:  E(RHF) =  -286.805755917     A.U. after   15 cycles
 Normal termination of Gaussian 16 at Wed Apr  9 19:07:05 2025.
 Gaussian 16:  ES64L-G16RevC.01  3-Jul-2019

 ----------------------------------------------------------------------
 #t hf aug-cc-pvdz iop(5/13=1,5/36=2,99/5=2) pseudo=read geom=check gue
 ss=(read,tcheck) scf=(maxcycle=1)
 ----------------------------------------------------------------------
 -----
 title
 -----
 Structure from the checkpoint file:  "Grambow2020_wb97xd3_008575_reverse_mol2.chk"
 Charge =  0 Multiplicity = 1

                         Standard orientation:
 ---------------------------------------------------------------------
 Center     Atomic      Atomic             Coordinates (Angstroms)
 Number     Number       Type             X           Y           Z
 ---------------------------------------------------------------------
      1          6           0       -1.910012   -0.978733    0.059293
      2          6           0       -0.491073   -0.546721    0.082870
      3          6           0        0.080118    0.803445    0.397429
      4          6           0        1.584890    0.708079    0.211621
      5          6           0       -0.608529    1.957770   -0.327683
      6          6           0        1.770298   -0.586440   -0.107983
      7          7           0        0.514674   -1.309491   -0.180638
      8          1           0       -2.399449   -0.714499    0.998248
      9          1           0       -2.440545   -0.449841   -0.736467
     10          1           0       -2.019283   -2.051175   -0.103187
     11          1           0       -0.076221    0.930853    1.481679
     12          1           0       -0.470982    1.865742   -1.406555
     13          1           0       -0.146936    2.893211   -0.016813
     14          1           0       -1.679763    2.005804   -0.114147
     15          1           0        2.656683   -1.167109   -0.324383
     16          1           0        0.419626   -2.290941   -0.407190
 ---------------------------------------------------------------------

 SCF Done:  E(RHF) =  -287.109485651     A.U. after    2 cycles

 The electronic state is 1-A.
 Alpha  occ. eigenvalues --  -15.59309 -11.33359 -11.28292 -11.23791 -11.23023
 Alpha  occ. eigenvalues --  -11.21821 -11.15845  -1.33095  -1.08195  -1.05908
 Alpha  occ. eigenvalues --   -0.96414  -0.92888  -0.81360  -0.76906  -0.71640
 Alpha  occ. eigenvalues --   -0.66601  -0.63424  -0.60449  -0.59273  -0.58570
 Alpha  occ. eigenvalues --   -0.56839  -0.52110  -0.50638  -0.46840  -0.31092
 Alpha  occ. eigenvalues --   -0.29869
 Alpha virt. eigenvalues --    0.01692   0.03006   0.03662   0.04143   0.05450
 Alpha virt. eigenvalues --    0.06112   0.06555   0.07081   0.08338   0.09346
 Alpha virt. eigenvalues --    0.10483   0.11268   0.12115   0.12572   0.13589

 Mulliken charges:
               1
     1  C   -0.415650
     2  C   -0.850440
     3  C   -0.956391
     4  C   -0.296277
     5  C   -0.002116
     6  C    0.143694
     7  N    1.029380
     8  H    0.260854
     9  H    0.292575
    10  H    0.071595
    11  H    0.298183
    12  H    0.256418
    13  H    0.158239
    14  H    0.168145
    15  H   -0.203914
    16  H    0.045707
 Sum of Mulliken charges =   0.00000

 Dipole moment (field-independent basis, Debye):
    X=             -6.3467    Y=             -4.4920    Z=             -0.5168  Tot=              7.7927

 Test job not archived.
 1\1\GINC-SE222\SP\RHF\Aug-CC-pVDZ\C6H9N1\OHZDE\09-Apr-2025\0\\#t hf au
 g-cc-pvdz iop(5/13=1,5/36=2,99/5=2) pseudo=read geom=check guess=(read
 ,tcheck) scf=(maxcycle=1)\\title\\0,1\C,0,1.74460071,-0.48769929,-0.54
 909585\C,0,0.5938662,0.2158999,0.06842854\C,0,-0.72497505,-0.34090708,
 0.51427557\C,0,-1.55789303,0.82630758,1.01609024\C,0,-1.39988581,-1.24
 766086,-0.51274997\C,0,-0.71929779,1.87244605,0.89502313\N,0,0.5551303
 2,1.47917557,0.32419564\H,0,2.03073192,-1.34720713,0.05949249\H,0,1.45
 43398,-0.87385504,-1.52943178\H,0,2.61371244,0.15856449,-0.67342989\H,

 Normal termination of Gaussian 16 at Wed Apr  9 19:07:10 2025.
