 Gaussian 16, Revision C.01,

 ----------------------------------------------------------------------
 #t hf aug-cc-pvdz symm=none int=(grid=ultrafine) guess=(read,tcheck) s
 table=(opt,rrhf)
 ----------------------------------------------------------------------
 -----
 title
 -----
 Symbolic Z-matrix:
 Charge =  0 Multiplicity = 1

 SCF Done:  E(RHF) =  -270.012108029     A.U. after   12 cycles

 1\1\GINC-SE226\Stability\RHF\Aug-CC-pVDZ\C5H10O1\OHZDE\09-Apr-2025\0\\
 #t hf aug-cc-pvdz symm=none int=(grid=ultrafine) guess=(read,tcheck) s
 table=(opt,rrhf)\\title\\0,1\C,0,2.38236698,0.00026069,0.13305712\O,0,
 1.23099955,-0.70355235,0.52026655\C,0,0.10713236,-0.36383726,-0.237167
 76\C,0,-0.57238278,1.00375226,-0.00336741\C,0,-1.9282704,0.27165746,-0
 .10461934\C,0,-1.19007867,-1.05261688,0.18873259\H,0,2.25789428,1.0830
 7995,0.26138307\H,0,2.6378041,-0.19815888,-0.9165353\H,0,3.20185804,-0
 .33626674,0.76663127\H,0,0.31166502,-0.51807436,-1.30709464\H,0,-0.379

 Normal termination of Gaussian 16 at Wed Apr  9 16:58:14 2025.
 Gaussian 16:  ES64L-G16RevC.01  3-Jul-2019

 ----------------------------------------------------------------------
 #t hf aug-cc-pvdz iop(5/13=1,5/36=2,99/5=2) pseudo=read geom=check gue
 ss=(read,tcheck) scf=(maxcycle=1)
 ----------------------------------------------------------------------
 -----
 title
 -----
 Structure from the checkpoint file:  "Grambow2020_wb97xd3_006204_forward_mol2.chk"
 Charge =  0 Multiplicity = 1

                         Standard orientation:
 ---------------------------------------------------------------------
 Center     Atomic      Atomic             Coordinates (Angstroms)
 Number     Number       Type             X           Y           Z
 ---------------------------------------------------------------------
      1          6           0       -2.318132    0.245758    0.051962
      2          8           0       -1.230770   -0.575112   -0.286782
      3          6           0       -0.045270   -0.194048    0.346916
      4          6           0        0.686244    1.080642   -0.129274
      5          6           0        2.007091    0.292328    0.007007
      6          6           0        1.185752   -1.014517   -0.040356
      7          1           0       -2.147508    1.288093   -0.246172
      8          1           0       -2.515991    0.221220    1.132014
      9          1           0       -3.192222   -0.131861   -0.476814
     10          1           0       -0.188867   -0.174981    1.437504
     11          1           0        0.446171    1.274267   -1.176743
     12          1           0        0.567977    1.997758    0.447659
     13          1           0        2.472716    0.445421    0.981333
     14          1           0        2.760524    0.438748   -0.765304
     15          1           0        1.073270   -1.377099   -1.063233
     16          1           0        1.475981   -1.841646    0.606477
 ---------------------------------------------------------------------

 SCF Done:  E(RHF) =  -270.302563566     A.U. after    2 cycles

 The electronic state is 1-A.
 Alpha  occ. eigenvalues --  -20.53940 -11.27887 -11.27735 -11.22833 -11.22454
 Alpha  occ. eigenvalues --  -11.22255  -1.46481  -1.13279  -0.94776  -0.90167
 Alpha  occ. eigenvalues --   -0.86367  -0.76535  -0.68258  -0.67506  -0.63304
 Alpha  occ. eigenvalues --   -0.61804  -0.57777  -0.54627  -0.52171  -0.48350
 Alpha  occ. eigenvalues --   -0.47558  -0.46906  -0.44612  -0.40038
 Alpha virt. eigenvalues --    0.03657   0.03878   0.04033   0.04425   0.06103
 Alpha virt. eigenvalues --    0.06261   0.06786   0.07092   0.07964   0.09371
 Alpha virt. eigenvalues --    0.11888   0.12839   0.14053   0.14177   0.15307

 Mulliken charges:
               1
     1  C    0.066948
     2  O   -1.468400
     3  C    1.069899
     4  C   -0.153363
     5  C    0.018231
     6  C   -0.196672
     7  H    0.192320
     8  H    0.186615
     9  H   -0.026333
    10  H    0.058300
    11  H    0.055567
    12  H    0.001683
    13  H    0.036774
    14  H    0.030586
    15  H    0.065984
    16  H    0.061861
 Sum of Mulliken charges =  -0.00000

 Dipole moment (field-independent basis, Debye):
    X=              0.1190    Y=              1.0094    Z=              0.7184  Tot=              1.2447

 Test job not archived.
 1\1\GINC-SE226\SP\RHF\Aug-CC-pVDZ\C5H10O1\OHZDE\09-Apr-2025\0\\#t hf a
 ug-cc-pvdz iop(5/13=1,5/36=2,99/5=2) pseudo=read geom=check guess=(rea
 d,tcheck) scf=(maxcycle=1)\\title\\0,1\C,0,2.38236698,0.00026069,0.133
 05712\O,0,1.23099955,-0.70355235,0.52026655\C,0,0.10713236,-0.36383726
 ,-0.23716776\C,0,-0.57238278,1.00375226,-0.00336741\C,0,-1.9282704,0.2
 7165746,-0.10461934\C,0,-1.19007867,-1.05261688,0.18873259\H,0,2.25789
 428,1.08307995,0.26138307\H,0,2.6378041,-0.19815888,-0.9165353\H,0,3.2
 0185804,-0.33626674,0.76663127\H,0,0.31166502,-0.51807436,-1.30709464\

 Normal termination of Gaussian 16 at Wed Apr  9 16:58:19 2025.
