 Gaussian 16, Revision C.01,

 ----------------------------------------------------------------------
 #t hf aug-cc-pvdz symm=none int=(grid=ultrafine) guess=(read,tcheck) s
 table=(opt,rrhf)
 ----------------------------------------------------------------------
 -----
 title
 -----
 Symbolic Z-matrix:
 Charge =  0 Multiplicity = 1

 SCF Done:  E(RHF) =  -323.736404201     A.U. after   15 cycles
 Normal termination of Gaussian 16 at Wed Apr  9 18:48:55 2025.
 Gaussian 16:  ES64L-G16RevC.01  3-Jul-2019

 ----------------------------------------------------------------------
 #t hf aug-cc-pvdz iop(5/13=1,5/36=2,99/5=2) pseudo=read geom=check gue
 ss=(read,tcheck) scf=(maxcycle=1)
 ----------------------------------------------------------------------
 -----
 title
 -----
 Structure from the checkpoint file:  "Grambow2020_wb97xd3_008089_forward_mol1.chk"
 Charge =  0 Multiplicity = 1

                         Standard orientation:
 ---------------------------------------------------------------------
 Center     Atomic      Atomic             Coordinates (Angstroms)
 Number     Number       Type             X           Y           Z
 ---------------------------------------------------------------------
      1          6           0       -2.606901   -0.834925    0.003974
      2          6           0       -1.837498    0.397375    0.001410
      3          7           0       -1.512800    1.513226    0.000360
      4          8           0        0.045948   -0.796302   -0.015884
      5          6           0        1.051050   -0.057949   -0.004061
      6          6           0        2.326323   -0.035635   -0.767772
      7          6           0        2.314501   -0.047220    0.779540
      8          1           0       -2.358737   -1.407214   -0.887360
      9          1           0       -2.326017   -1.424167    0.874104
     10          1           0       -3.670581   -0.598084    0.025448
     11          1           0       -0.129373    1.585496    0.001220
     12          1           0        0.721613    1.306394    0.000718
     13          1           0        2.592304   -0.955495   -1.274214
     14          1           0        2.676615    0.867581   -1.249487
     15          1           0        2.572692   -0.974877    1.275821
     16          1           0        2.658656    0.848320    1.279757
 ---------------------------------------------------------------------

 SCF Done:  E(RHF) =  -324.075517715     A.U. after    2 cycles

 The electronic state is 1-A.
 Alpha  occ. eigenvalues --  -20.49557 -15.52204 -11.33514 -11.33063 -11.28273
 Alpha  occ. eigenvalues --  -11.23747 -11.23717  -1.42506  -1.26310  -1.13411
 Alpha  occ. eigenvalues --   -1.04600  -0.83904  -0.78766  -0.73640  -0.71086
 Alpha  occ. eigenvalues --   -0.65531  -0.65062  -0.63428  -0.62155  -0.57904
 Alpha  occ. eigenvalues --   -0.56678  -0.52845  -0.51239  -0.48865  -0.45558
 Alpha  occ. eigenvalues --   -0.39689  -0.35295
 Alpha virt. eigenvalues --    0.03361   0.04090   0.04337   0.04540   0.05862
 Alpha virt. eigenvalues --    0.05969   0.06777   0.07650   0.09392   0.10204
 Alpha virt. eigenvalues --    0.11858   0.12417   0.12796   0.13061   0.13437

 Mulliken charges:
               1
     1  C   -0.239721
     2  C   -1.292749
     3  N    0.828206
     4  O   -1.404346
     5  C    0.909771
     6  C    0.190013
     7  C    0.191937
     8  H    0.282237
     9  H    0.283335
    10  H    0.188537
    11  H    0.390447
    12  H    0.075111
    13  H   -0.108683
    14  H   -0.092320
    15  H   -0.107850
    16  H   -0.093924
 Sum of Mulliken charges =  -0.00000

 Dipole moment (field-independent basis, Debye):
    X=             -0.8014    Y=             -1.3559    Z=              0.0378  Tot=              1.5755

 Test job not archived.
 1\1\GINC-SE113\SP\RHF\Aug-CC-pVDZ\C5H9N1O1\OHZDE\09-Apr-2025\0\\#t hf
 aug-cc-pvdz iop(5/13=1,5/36=2,99/5=2) pseudo=read geom=check guess=(re
 ad,tcheck) scf=(maxcycle=1)\\title\\0,1\C,0,2.64553267,-0.3760485,-1.0
 4340897\C,0,2.03661703,0.22920127,0.12853233\N,0,1.85353467,0.77632731
 ,1.13733705\O,0,0.02459142,-0.35991712,-0.63121944\C,0,-0.87989538,0.0
 1735812,0.14020977\C,0,-2.09154897,-0.63065421,0.70770389\C,0,-2.17938
 279,0.71280304,-0.05509083\H,0,2.38532783,-1.43205755,-1.07011823\H,0,
 2.23914183,0.09574758,-1.93530765\H,0,3.72685455,-0.24720827,-0.997451

 Normal termination of Gaussian 16 at Wed Apr  9 18:49:01 2025.
