 Gaussian 16, Revision C.01,

 ----------------------------------------------------------------------
 #t hf aug-cc-pvdz symm=none int=(grid=ultrafine) guess=(read,tcheck) s
 table=(opt,rrhf)
 ----------------------------------------------------------------------
 -----
 title
 -----
 Symbolic Z-matrix:
 Charge =  0 Multiplicity = 1

 SCF Done:  E(RHF) =  -344.793750645     A.U. after   15 cycles

 1\1\GINC-SE232\Stability\RHF\Aug-CC-pVDZ\C5H10O2\OHZDE\09-Apr-2025\0\\
 #t hf aug-cc-pvdz symm=none int=(grid=ultrafine) guess=(read,tcheck) s
 table=(opt,rrhf)\\title\\0,1\C,0,2.3954141,0.33744058,-0.4347422\C,0,1
 .24084131,-0.41310012,0.11626021\C,0,0.42688406,0.05406698,1.19520478\
 O,0,-0.72820933,-0.47844063,1.38053062\C,0,-1.36746645,-0.52213233,-0.
 53746588\C,0,-2.57364868,0.34970653,-0.3538188\O,0,-0.37973977,-0.1189
 394,-1.18545094\H,0,2.14751959,0.5565541,-1.47555873\H,0,3.31659964,-0
 .244618,-0.42589945\H,0,2.54332944,1.28431274,0.08441018\H,0,1.1357978

 Normal termination of Gaussian 16 at Wed Apr  9 18:07:55 2025.
 Gaussian 16:  ES64L-G16RevC.01  3-Jul-2019

 ----------------------------------------------------------------------
 #t hf aug-cc-pvdz iop(5/13=1,5/36=2,99/5=2) pseudo=read geom=check gue
 ss=(read,tcheck) scf=(maxcycle=1)
 ----------------------------------------------------------------------
 -----
 title
 -----
 Structure from the checkpoint file:  "Grambow2020_wb97xd3_007114_forward_mol1.chk"
 Charge =  0 Multiplicity = 1

                         Standard orientation:
 ---------------------------------------------------------------------
 Center     Atomic      Atomic             Coordinates (Angstroms)
 Number     Number       Type             X           Y           Z
 ---------------------------------------------------------------------
      1          6           0       -2.505267   -0.626842    0.300181
      2          6           0       -1.363177    0.061300   -0.349468
      3          6           0       -0.618353    1.119580    0.258951
      4          8           0        0.538076    1.420305   -0.214744
      5          6           0        1.277625   -0.446772   -0.452142
      6          6           0        2.450996   -0.303236    0.470518
      7          8           0        0.315621   -1.183859   -0.153304
      8          1           0       -2.208689   -1.672229    0.409591
      9          1           0       -3.411228   -0.597924   -0.304676
     10          1           0       -2.703108   -0.225462    1.294020
     11          1           0       -1.220353   -0.050110   -1.417440
     12          1           0       -0.849949    1.294408    1.321898
     13          1           0       -1.591624    1.610002   -0.306586
     14          1           0        1.474081   -0.217764   -1.509083
     15          1           0        2.111201   -0.273452    1.504975
     16          1           0        3.096834   -1.177177    0.342975
     17          1           0        3.022322    0.593959    0.240467
 ---------------------------------------------------------------------

 SCF Done:  E(RHF) =  -345.152992696     A.U. after    2 cycles

 The electronic state is 1-A.
 Alpha  occ. eigenvalues --  -20.50550 -20.47788 -11.34361 -11.33311 -11.31213
 Alpha  occ. eigenvalues --  -11.26802 -11.21973  -1.44565  -1.39411  -1.11722
 Alpha  occ. eigenvalues --   -0.99777  -0.96322  -0.81224  -0.78903  -0.67333
 Alpha  occ. eigenvalues --   -0.65879  -0.65298  -0.63626  -0.60061  -0.59473
 Alpha  occ. eigenvalues --   -0.57278  -0.56529  -0.54054  -0.53075  -0.45154
 Alpha  occ. eigenvalues --   -0.40251  -0.38803  -0.37296
 Alpha virt. eigenvalues --    0.02886   0.03621   0.04383   0.04699   0.05755
 Alpha virt. eigenvalues --    0.06052   0.06857   0.07202   0.07903   0.08918
 Alpha virt. eigenvalues --    0.10381   0.11023   0.12927   0.13381   0.14115

 Mulliken charges:
               1
     1  C   -0.424655
     2  C   -0.215032
     3  C    0.914314
     4  O   -1.325295
     5  C    1.164750
     6  C   -0.505901
     7  O   -1.386652
     8  H    0.294288
     9  H    0.225288
    10  H    0.189691
    11  H   -0.080133
    12  H    0.098148
    13  H    0.389059
    14  H    0.085455
    15  H    0.164564
    16  H    0.201579
    17  H    0.210532
 Sum of Mulliken charges =  -0.00000

 Dipole moment (field-independent basis, Debye):
    X=             -3.1807    Y=             -0.7984    Z=             -0.0595  Tot=              3.2799

 Test job not archived.
 1\1\GINC-SE232\SP\RHF\Aug-CC-pVDZ\C5H10O2\OHZDE\09-Apr-2025\0\\#t hf a
 ug-cc-pvdz iop(5/13=1,5/36=2,99/5=2) pseudo=read geom=check guess=(rea
 d,tcheck) scf=(maxcycle=1)\\title\\0,1\C,0,2.3954141,0.33744058,-0.434
 7422\C,0,1.24084131,-0.41310012,0.11626021\C,0,0.42688406,0.05406698,1
 .19520478\O,0,-0.72820933,-0.47844063,1.38053062\C,0,-1.36746645,-0.52
 213233,-0.53746588\C,0,-2.57364868,0.34970653,-0.3538188\O,0,-0.379739
 77,-0.1189394,-1.18545094\H,0,2.14751959,0.5565541,-1.47555873\H,0,3.3
 1659964,-0.244618,-0.42589945\H,0,2.54332944,1.28431274,0.08441018\H,0

 Normal termination of Gaussian 16 at Wed Apr  9 18:08:01 2025.
