 Gaussian 16, Revision C.01,

 ----------------------------------------------------------------------
 #t hf aug-cc-pvdz symm=none int=(grid=ultrafine) guess=(read,tcheck) s
 table=(opt,rrhf)
 ----------------------------------------------------------------------
 -----
 title
 -----
 Symbolic Z-matrix:
 Charge =  0 Multiplicity = 1

 SCF Done:  E(RHF) =  -304.572942754     A.U. after   15 cycles
 Normal termination of Gaussian 16 at Wed Apr  9 15:55:46 2025.
 Gaussian 16:  ES64L-G16RevC.01  3-Jul-2019

 ----------------------------------------------------------------------
 #t hf aug-cc-pvdz iop(5/13=1,5/36=2,99/5=2) pseudo=read geom=check gue
 ss=(read,tcheck) scf=(maxcycle=1)
 ----------------------------------------------------------------------
 -----
 title
 -----
 Structure from the checkpoint file:  "Grambow2020_b97d3_007020_forward_mol1.chk"
 Charge =  0 Multiplicity = 1

                         Standard orientation:
 ---------------------------------------------------------------------
 Center     Atomic      Atomic             Coordinates (Angstroms)
 Number     Number       Type             X           Y           Z
 ---------------------------------------------------------------------
      1          8           0        1.370433   -1.116011   -0.396882
      2          6           0        1.186681    0.049070    0.378124
      3          6           0        0.652300    1.284118   -0.379576
      4          6           0       -0.176136    0.278481    0.867814
      5          6           0       -1.295149   -0.458996    0.315338
      6          8           0       -2.161098   -0.065983   -0.464467
      7          1           0        2.272821   -1.084106   -0.767479
      8          1           0        2.033362    0.258986    1.047217
      9          1           0        1.143681    2.237519   -0.162972
     10          1           0        0.370773    1.087668   -1.414203
     11          1           0       -0.359677    1.502299    0.286177
     12          1           0       -1.341810   -1.462450    0.811856
 ---------------------------------------------------------------------

 SCF Done:  E(RHF) =  -304.880295403     A.U. after    2 cycles

 The electronic state is 1-A.
 Alpha  occ. eigenvalues --  -20.58547 -20.52420 -11.34055 -11.34016 -11.31006
 Alpha  occ. eigenvalues --  -11.27484  -1.48462  -1.44505  -1.16836  -0.95025
 Alpha  occ. eigenvalues --   -0.88524  -0.77086  -0.74252  -0.67624  -0.66692
 Alpha  occ. eigenvalues --   -0.63254  -0.59337  -0.58325  -0.53029  -0.51306
 Alpha  occ. eigenvalues --   -0.48083  -0.41440  -0.35372
 Alpha virt. eigenvalues --    0.02203   0.03543   0.03951   0.05456   0.06679
 Alpha virt. eigenvalues --    0.06943   0.09704   0.10621   0.11018   0.11424
 Alpha virt. eigenvalues --    0.12896   0.13931   0.14866   0.15152   0.16037

 Mulliken charges:
               1
     1  O   -1.337829
     2  C    1.442394
     3  C   -0.502674
     4  C   -0.727718
     5  C    1.179694
     6  O   -1.221078
     7  H    0.323843
     8  H    0.055215
     9  H    0.071984
    10  H    0.109833
    11  H    0.394134
    12  H    0.212203
 Sum of Mulliken charges =   0.00000

 Dipole moment (field-independent basis, Debye):
    X=              5.1476    Y=              1.3121    Z=             -0.2530  Tot=              5.3183

 Test job not archived.
 1\1\GINC-SE454\SP\RHF\Aug-CC-pVDZ\C4H6O2\OHZDE\09-Apr-2025\0\\#t hf au
 g-cc-pvdz iop(5/13=1,5/36=2,99/5=2) pseudo=read geom=check guess=(read
 ,tcheck) scf=(maxcycle=1)\\title\\0,1\O,0,-1.35580219,1.03814067,0.377
 94854\C,0,-0.94482522,-0.21859993,-0.11552289\C,0,0.19321903,-0.192487
 65,-1.15916526\C,0,0.23002902,-0.80460946,0.53716662\C,0,1.0838228,0.0
 0167083,1.38701524\O,0,2.20124651,0.45315636,1.14217277\H,0,-2.0519060
 8,1.37519393,-0.2174484\H,0,-1.78719677,-0.87380433,-0.37959788\H,0,0.
 06489272,-0.83629804,-2.03460092\H,0,0.63098297,0.79280645,-1.31997867

 Normal termination of Gaussian 16 at Wed Apr  9 15:55:50 2025.
