 Gaussian 16, Revision C.01,

 ----------------------------------------------------------------------
 #t hf aug-cc-pvdz symm=none int=(grid=ultrafine) guess=(read,tcheck) s
 table=(opt,rrhf)
 ----------------------------------------------------------------------
 -----
 title
 -----
 Symbolic Z-matrix:
 Charge =  0 Multiplicity = 1

 SCF Done:  E(RHF) =  -295.856627465     A.U. after   15 cycles
 Normal termination of Gaussian 16 at Wed Apr  9 15:49:37 2025.
 Gaussian 16:  ES64L-G16RevC.01  3-Jul-2019

 ----------------------------------------------------------------------
 #t hf aug-cc-pvdz iop(5/13=1,5/36=2,99/5=2) pseudo=read geom=check gue
 ss=(read,tcheck) scf=(maxcycle=1)
 ----------------------------------------------------------------------
 -----
 title
 -----
 Structure from the checkpoint file:  "Grambow2020_b97d3_006784_reverse_mol2.chk"
 Charge =  0 Multiplicity = 1

                         Standard orientation:
 ---------------------------------------------------------------------
 Center     Atomic      Atomic             Coordinates (Angstroms)
 Number     Number       Type             X           Y           Z
 ---------------------------------------------------------------------
      1          7           0       -2.067403   -0.114122    0.027091
      2          6           0       -0.798063    0.023521   -0.041515
      3          7           0        0.090004   -1.104602   -0.138692
      4          7           0        1.386652   -0.586435    0.131701
      5          6           0        1.223268    0.786298    0.026054
      6          7           0       -0.001561    1.201376   -0.031164
      7          1           0       -2.482998    0.820567    0.091700
      8          1           0       -0.144155   -1.865268    0.498980
      9          1           0        2.115324   -1.012147   -0.447069
     10          1           0        2.106751    1.424413    0.026601
 ---------------------------------------------------------------------

 SCF Done:  E(RHF) =  -296.156830478     A.U. after    2 cycles

 The electronic state is 1-A.
 Alpha  occ. eigenvalues --  -15.58555 -15.56343 -15.51815 -15.46970 -11.36137
 Alpha  occ. eigenvalues --  -11.35142  -1.39329  -1.23188  -1.20302  -1.10991
 Alpha  occ. eigenvalues --   -0.89646  -0.86243  -0.79585  -0.73770  -0.69419
 Alpha  occ. eigenvalues --   -0.66978  -0.62997  -0.54115  -0.52122  -0.50764
 Alpha  occ. eigenvalues --   -0.47914  -0.39100
 Alpha virt. eigenvalues --    0.02398   0.04140   0.05113   0.06335   0.07111
 Alpha virt. eigenvalues --    0.09159   0.09910   0.10939   0.11967   0.12564
 Alpha virt. eigenvalues --    0.13487   0.14549   0.15636   0.16964   0.17416

 Mulliken charges:
               1
     1  N    0.680127
     2  C   -1.503518
     3  N    0.063704
     4  N    0.173537
     5  C   -0.442779
     6  N    0.454227
     7  H    0.175671
     8  H    0.195649
     9  H    0.182150
    10  H    0.021232
 Sum of Mulliken charges =   0.00000

 Dipole moment (field-independent basis, Debye):
    X=              5.2509    Y=             -0.3954    Z=              0.1645  Tot=              5.2684

 Test job not archived.
 1\1\GINC-SE057\SP\RHF\Aug-CC-pVDZ\C2H4N4\OHZDE\09-Apr-2025\0\\#t hf au
 g-cc-pvdz iop(5/13=1,5/36=2,99/5=2) pseudo=read geom=check guess=(read
 ,tcheck) scf=(maxcycle=1)\\title\\0,1\N,0,2.18693372,0.23717376,-0.052
 63871\C,0,0.91243596,0.18934466,0.03815437\N,0,0.20055322,-1.05440104,
 0.16887979\N,0,-1.16224955,-0.73570377,-0.08431319\C,0,-1.19952357,0.6
 478036,-0.00204102\N,0,-0.04773706,1.23804728,0.02565937\H,0,2.4603033
 2,1.22122558,-0.13893441\H,0,0.53267705,-1.7837277,-0.46186991\H,0,-1.
 81108013,-1.25304513,0.51447286\H,0,-2.16667395,1.15010476,0.00487786\

 Normal termination of Gaussian 16 at Wed Apr  9 15:49:40 2025.
