 Gaussian 16, Revision C.01,

 ----------------------------------------------------------------------
 #t hf aug-cc-pvdz symm=none int=(grid=ultrafine) guess=(read,tcheck) s
 table=(opt,rrhf)
 ----------------------------------------------------------------------
 -----
 title
 -----
 Symbolic Z-matrix:
 Charge =  0 Multiplicity = 1

 SCF Done:  E(RHF) =  -307.698978344     A.U. after   15 cycles

 1\1\GINC-SE253\Stability\RHF\Aug-CC-pVDZ\C6H10O1\OHZDE\09-Apr-2025\0\\
 #t hf aug-cc-pvdz symm=none int=(grid=ultrafine) guess=(read,tcheck) s
 table=(opt,rrhf)\\title\\0,1\C,0,1.86111991,-0.654935,0.08147068\C,0,0
 .63199966,0.13149827,0.49427539\C,0,0.36281243,1.43128087,-0.33545764\
 C,0,-1.16448169,1.64805494,-0.48238884\C,0,-1.4916014,0.52597481,0.037
 29073\C,0,-0.71153811,-0.6716515,0.42137176\O,0,-0.77055112,-1.7288563
 2,-0.50642513\H,0,1.795435,-0.98647216,-0.95672433\H,0,2.75145592,-0.0
 290247,0.17325889\H,0,2.0013096,-1.54073794,0.70284823\H,0,0.73338753,

 Normal termination of Gaussian 16 at Wed Apr  9 03:45:45 2025.
 Gaussian 16:  ES64L-G16RevC.01  3-Jul-2019

 ----------------------------------------------------------------------
 #t hf aug-cc-pvdz iop(5/13=1,5/36=2,99/5=2) pseudo=read geom=check gue
 ss=(read,tcheck) scf=(maxcycle=1)
 ----------------------------------------------------------------------
 -----
 title
 -----
 Structure from the checkpoint file:  "Grambow2020_wb97xd3_007814_forward_mol1.chk"
 Charge =  0 Multiplicity = 1

                         Standard orientation:
 ---------------------------------------------------------------------
 Center     Atomic      Atomic             Coordinates (Angstroms)
 Number     Number       Type             X           Y           Z
 ---------------------------------------------------------------------
      1          6           0       -2.112090   -0.136321   -0.050102
      2          6           0       -0.719068   -0.408342    0.483861
      3          6           0        0.079544   -1.521124   -0.273957
      4          6           0        1.585625   -1.157218   -0.296356
      5          6           0        1.430675    0.009557    0.204409
      6          6           0        0.234438    0.835155    0.483211
      7          8           0       -0.022695    1.832805   -0.476241
      8          1           0       -2.086047    0.189135   -1.091966
      9          1           0       -2.713069   -1.047078   -0.002854
     10          1           0       -2.621015    0.638446    0.525349
     11          1           0       -0.790864   -0.716769    1.530139
     12          1           0       -0.241411   -1.609309   -1.316187
     13          1           0       -0.072205   -2.500603    0.181044
     14          1           0        2.663040    1.073895   -0.067122
     15          1           0        2.756786    0.781118    0.655723
     16          1           0        0.230588    1.352888    1.441347
     17          1           0        0.061008    1.445591   -1.351940
 ---------------------------------------------------------------------

 SCF Done:  E(RHF) =  -308.022423440     A.U. after    2 cycles

 The electronic state is 1-A.
 Alpha  occ. eigenvalues --  -20.56608 -11.32163 -11.28359 -11.25227 -11.25124
 Alpha  occ. eigenvalues --  -11.23394 -11.21210  -1.47419  -1.16151  -1.03163
 Alpha  occ. eigenvalues --   -0.96803  -0.90825  -0.79791  -0.75603  -0.72344
 Alpha  occ. eigenvalues --   -0.66788  -0.63339  -0.60341  -0.58288  -0.56502
 Alpha  occ. eigenvalues --   -0.53775  -0.52261  -0.50621  -0.49142  -0.44468
 Alpha  occ. eigenvalues --   -0.39762  -0.35593
 Alpha virt. eigenvalues --    0.03183   0.03592   0.03616   0.04264   0.05660
 Alpha virt. eigenvalues --    0.05784   0.06767   0.07115   0.07552   0.09316
 Alpha virt. eigenvalues --    0.10684   0.11862   0.12648   0.12895   0.13366

 Mulliken charges:
               1
     1  C   -0.082613
     2  C   -0.980703
     3  C   -0.097876
     4  C   -0.627109
     5  C    0.520100
     6  C    1.114234
     7  O   -1.383692
     8  H    0.186814
     9  H    0.174785
    10  H    0.166086
    11  H    0.108303
    12  H    0.156345
    13  H    0.141478
    14  H    0.117456
    15  H    0.128086
    16  H    0.059932
    17  H    0.298374
 Sum of Mulliken charges =  -0.00000

 Dipole moment (field-independent basis, Debye):
    X=             -1.3678    Y=              1.3820    Z=              0.8366  Tot=              2.1168

 Test job not archived.
 1\1\GINC-SE253\SP\RHF\Aug-CC-pVDZ\C6H10O1\OHZDE\09-Apr-2025\0\\#t hf a
 ug-cc-pvdz iop(5/13=1,5/36=2,99/5=2) pseudo=read geom=check guess=(rea
 d,tcheck) scf=(maxcycle=1)\\title\\0,1\C,0,1.86111991,-0.654935,0.0814
 7068\C,0,0.63199966,0.13149827,0.49427539\C,0,0.36281243,1.43128087,-0
 .33545764\C,0,-1.16448169,1.64805494,-0.48238884\C,0,-1.4916014,0.5259
 7481,0.03729073\C,0,-0.71153811,-0.6716515,0.42137176\O,0,-0.77055112,
 -1.72885632,-0.50642513\H,0,1.795435,-0.98647216,-0.95672433\H,0,2.751
 45592,-0.0290247,0.17325889\H,0,2.0013096,-1.54073794,0.70284823\H,0,0

 Normal termination of Gaussian 16 at Wed Apr  9 03:45:52 2025.
