 Gaussian 16, Revision C.01,

 ----------------------------------------------------------------------
 #t hf aug-cc-pvdz symm=none int=(grid=ultrafine) guess=(read,tcheck) s
 table=(opt,rrhf)
 ----------------------------------------------------------------------
 -----
 title
 -----
 Symbolic Z-matrix:
 Charge =  0 Multiplicity = 1

 SCF Done:  E(RHF) =  -322.476605974     A.U. after   17 cycles
 Normal termination of Gaussian 16 at Wed Apr  9 18:09:15 2025.
 Gaussian 16:  ES64L-G16RevC.01  3-Jul-2019

 ----------------------------------------------------------------------
 #t hf aug-cc-pvdz iop(5/13=1,5/36=2,99/5=2) pseudo=read geom=check gue
 ss=(read,tcheck) scf=(maxcycle=1)
 ----------------------------------------------------------------------
 -----
 title
 -----
 Structure from the checkpoint file:  "Grambow2020_wb97xd3_007139_forward_mol1.chk"
 Charge =  0 Multiplicity = 1

                         Standard orientation:
 ---------------------------------------------------------------------
 Center     Atomic      Atomic             Coordinates (Angstroms)
 Number     Number       Type             X           Y           Z
 ---------------------------------------------------------------------
      1          7           0        2.284973   -0.431945   -0.147304
      2          6           0        1.099953   -0.064631    0.009884
      3          8           0       -0.502863   -1.539389    0.190893
      4          6           0       -1.544358   -0.848594   -0.133668
      5          6           0       -1.131483    0.796016   -0.204390
      6          6           0       -0.284112    1.349000    0.729979
      7          6           0        0.314692    1.008084   -0.587981
      8          1           0        2.603413   -1.079050    0.565387
      9          1           0       -2.368122   -0.832926    0.600477
     10          1           0       -1.921818   -0.994789   -1.158322
     11          1           0       -1.964093    1.339760   -0.626794
     12          1           0        0.472420   -0.232004    1.016581
     13          1           0       -0.189548    2.010870    1.574269
     14          1           0        0.667682    1.687622   -1.350550
 ---------------------------------------------------------------------

 SCF Done:  E(RHF) =  -322.808445400     A.U. after    2 cycles

 The electronic state is 1-A.
 Alpha  occ. eigenvalues --  -20.48674 -15.47368 -11.36080 -11.32781 -11.29899
 Alpha  occ. eigenvalues --  -11.29123 -11.28878  -1.39738  -1.26034  -1.19645
 Alpha  occ. eigenvalues --   -0.95416  -0.89020  -0.83445  -0.79108  -0.75215
 Alpha  occ. eigenvalues --   -0.69812  -0.64357  -0.61888  -0.59806  -0.56672
 Alpha  occ. eigenvalues --   -0.52736  -0.50028  -0.44827  -0.42966  -0.37442
 Alpha  occ. eigenvalues --   -0.34505
 Alpha virt. eigenvalues --    0.00326   0.01974   0.02926   0.03818   0.05135
 Alpha virt. eigenvalues --    0.05998   0.06084   0.08363   0.09549   0.10605
 Alpha virt. eigenvalues --    0.11408   0.12560   0.12880   0.13552   0.14531

 Mulliken charges:
               1
     1  N    0.785707
     2  C   -1.651230
     3  O   -1.152885
     4  C    0.605674
     5  C    0.072381
     6  C    0.143330
     7  C    0.782993
     8  H    0.228168
     9  H    0.118691
    10  H    0.118803
    11  H   -0.124735
    12  H    0.450099
    13  H   -0.237536
    14  H   -0.139461
 Sum of Mulliken charges =  -0.00000

 Dipole moment (field-independent basis, Debye):
    X=             -3.3291    Y=              5.1034    Z=              1.5033  Tot=              6.2759

 Test job not archived.
 1\1\GINC-SE226\SP\RHF\Aug-CC-pVDZ\C5H7N1O1\OHZDE\09-Apr-2025\0\\#t hf
 aug-cc-pvdz iop(5/13=1,5/36=2,99/5=2) pseudo=read geom=check guess=(re
 ad,tcheck) scf=(maxcycle=1)\\title\\0,1\N,0,1.53431946,-1.97987711,-0.
 11033231\C,0,0.70850245,-1.07523417,-0.36241507\O,0,1.3659903,0.808718
 26,-1.25411311\C,0,0.40571613,1.60997309,-0.9329999\C,0,-0.89277127,0.
 71332273,-0.30837312\C,0,-1.24966328,-0.49225133,-0.87059317\C,0,-0.43
 751614,-0.55597299,0.37365948\H,0,2.09220312,-2.25022624,-0.91267572\H
 ,0,-0.08238511,2.14546274,-1.76535279\H,0,0.60046315,2.28194744,-0.081

 Normal termination of Gaussian 16 at Wed Apr  9 18:09:19 2025.
