 Gaussian 16, Revision C.01,

 ----------------------------------------------------------------------
 #t hf aug-cc-pvdz symm=none int=(grid=ultrafine) guess=(read,tcheck) s
 table=(opt,rrhf)
 ----------------------------------------------------------------------
 -----
 title
 -----
 Symbolic Z-matrix:
 Charge =  0 Multiplicity = 1

 SCF Done:  E(RHF) =  -307.871429428     A.U. after   13 cycles

 1\1\GINC-SE334\Stability\RHF\Aug-CC-pVDZ\C6H10O1\OHZDE\09-Apr-2025\0\\
 #t hf aug-cc-pvdz symm=none int=(grid=ultrafine) guess=(read,tcheck) s
 table=(opt,rrhf)\\title\\0,1\C,0,1.81405142,-0.18127135,0.27274505\C,0
 ,0.85184462,0.935003,0.58385165\C,0,0.25791324,1.7497321,-0.52455588\C
 ,0,-0.62736107,0.84914971,0.29423833\C,0,-1.27347501,-0.33926252,-0.32
 367483\C,0,-1.17721902,-1.56918742,0.16539861\O,0,-1.77016783,-2.68391
 092,-0.32894362\H,0,1.53504851,-0.70638981,-0.64112524\H,0,2.82292207,
 0.21536534,0.1376034\H,0,1.85261563,-0.91630933,1.08055079\H,0,1.09566

 Normal termination of Gaussian 16 at Wed Apr  9 03:45:39 2025.
 Gaussian 16:  ES64L-G16RevC.01  3-Jul-2019

 ----------------------------------------------------------------------
 #t hf aug-cc-pvdz iop(5/13=1,5/36=2,99/5=2) pseudo=read geom=check gue
 ss=(read,tcheck) scf=(maxcycle=1)
 ----------------------------------------------------------------------
 -----
 title
 -----
 Structure from the checkpoint file:  "Grambow2020_wb97xd3_007822_reverse_mol2.chk"
 Charge =  0 Multiplicity = 1

                         Standard orientation:
 ---------------------------------------------------------------------
 Center     Atomic      Atomic             Coordinates (Angstroms)
 Number     Number       Type             X           Y           Z
 ---------------------------------------------------------------------
      1          6           0        1.307038    1.596847    0.226882
      2          6           0        1.625952    0.258187   -0.385475
      3          6           0        1.801955   -0.947489    0.486577
      4          6           0        0.628383   -0.873017   -0.452767
      5          6           0       -0.757750   -0.775431    0.077058
      6          6           0       -1.621248    0.165290   -0.284314
      7          8           0       -2.905583    0.286533    0.133244
      8          1           0        0.639528    1.495910    1.083033
      9          1           0        2.222685    2.083677    0.570380
     10          1           0        0.826862    2.264565   -0.492772
     11          1           0        2.292715    0.312502   -1.239674
     12          1           0        1.591233   -0.818706    1.542254
     13          1           0        2.596996   -1.648889    0.269167
     14          1           0        0.725192   -1.500595   -1.333777
     15          1           0       -1.082716   -1.551158    0.769625
     16          1           0       -1.359506    0.960517   -0.972930
     17          1           0       -3.114306   -0.436413    0.730974
 ---------------------------------------------------------------------

 SCF Done:  E(RHF) =  -308.199041609     A.U. after    2 cycles

 The electronic state is 1-A.
 Alpha  occ. eigenvalues --  -20.57600 -11.29673 -11.23662 -11.23515 -11.22582
 Alpha  occ. eigenvalues --  -11.22349 -11.22231  -1.49080  -1.15781  -1.03023
 Alpha  occ. eigenvalues --   -0.96555  -0.85199  -0.80545  -0.77276  -0.68455
 Alpha  occ. eigenvalues --   -0.68093  -0.65572  -0.58869  -0.57590  -0.56647
 Alpha  occ. eigenvalues --   -0.55361  -0.54267  -0.51407  -0.49956  -0.42814
 Alpha  occ. eigenvalues --   -0.40987  -0.33757
 Alpha virt. eigenvalues --    0.03285   0.03694   0.04043   0.04128   0.05778
 Alpha virt. eigenvalues --    0.06193   0.06491   0.06666   0.07456   0.09395
 Alpha virt. eigenvalues --    0.11998   0.12297   0.13394   0.14042   0.14604

 Mulliken charges:
               1
     1  C   -0.617647
     2  C    0.279467
     3  C    0.182007
     4  C    0.291278
     5  C    0.300475
     6  C    1.040440
     7  O   -1.392859
     8  H    0.227236
     9  H    0.106961
    10  H    0.208062
    11  H   -0.177047
    12  H   -0.091355
    13  H   -0.155560
    14  H   -0.151433
    15  H   -0.320265
    16  H   -0.074401
    17  H    0.344639
 Sum of Mulliken charges =  -0.00000

 Dipole moment (field-independent basis, Debye):
    X=              0.5017    Y=             -0.8000    Z=              0.4358  Tot=              1.0400

 Test job not archived.
 1\1\GINC-SE334\SP\RHF\Aug-CC-pVDZ\C6H10O1\OHZDE\09-Apr-2025\0\\#t hf a
 ug-cc-pvdz iop(5/13=1,5/36=2,99/5=2) pseudo=read geom=check guess=(rea
 d,tcheck) scf=(maxcycle=1)\\title\\0,1\C,0,1.81405142,-0.18127135,0.27
 274505\C,0,0.85184462,0.935003,0.58385165\C,0,0.25791324,1.7497321,-0.
 52455588\C,0,-0.62736107,0.84914971,0.29423833\C,0,-1.27347501,-0.3392
 6252,-0.32367483\C,0,-1.17721902,-1.56918742,0.16539861\O,0,-1.7701678
 3,-2.68391092,-0.32894362\H,0,1.53504851,-0.70638981,-0.64112524\H,0,2
 .82292207,0.21536534,0.1376034\H,0,1.85261563,-0.91630933,1.08055079\H

 Normal termination of Gaussian 16 at Wed Apr  9 03:45:44 2025.
