 Gaussian 16, Revision C.01,

 ----------------------------------------------------------------------
 #t hf aug-cc-pvdz symm=none int=(grid=ultrafine) guess=(read,tcheck) s
 table=(opt,rrhf)
 ----------------------------------------------------------------------
 -----
 title
 -----
 Symbolic Z-matrix:
 Charge =  0 Multiplicity = 1

 SCF Done:  E(RHF) =  -263.614273517     A.U. after   20 cycles
 Normal termination of Gaussian 16 at Wed Apr  9 15:51:42 2025.
 Gaussian 16:  ES64L-G16RevC.01  3-Jul-2019

 ----------------------------------------------------------------------
 #t hf aug-cc-pvdz iop(5/13=1,5/36=2,99/5=2) pseudo=read geom=check gue
 ss=(read,tcheck) scf=(maxcycle=1)
 ----------------------------------------------------------------------
 -----
 title
 -----
 Structure from the checkpoint file:  "Grambow2020_b97d3_006867_forward_mol1.chk"
 Charge =  0 Multiplicity = 1

                         Standard orientation:
 ---------------------------------------------------------------------
 Center     Atomic      Atomic             Coordinates (Angstroms)
 Number     Number       Type             X           Y           Z
 ---------------------------------------------------------------------
      1          6           0        2.278728   -0.232312   -0.317118
      2          6           0        0.885119    0.176406    0.061347
      3          6           0       -0.208506   -0.756162    0.458074
      4          7           0       -1.490540   -0.578690   -0.079357
      5          7           0       -2.041431    0.479003   -0.408210
      6          6           0        0.176260    1.233931    0.308534
      7          1           0        2.711793   -0.874789    0.464929
      8          1           0        2.258040   -0.823125   -1.245817
      9          1           0        2.930219    0.639545   -0.454189
     10          1           0       -0.091143   -1.510274    1.240234
     11          1           0       -1.919408   -1.518186   -0.293420
     12          1           0        0.044697    2.253463    0.636210
 ---------------------------------------------------------------------

 SCF Done:  E(RHF) =  -263.881801279     A.U. after    2 cycles

 The electronic state is 1-A.
 Alpha  occ. eigenvalues --  -15.60514 -15.49971 -11.28690 -11.28650 -11.27787
 Alpha  occ. eigenvalues --  -11.25351  -1.35376  -1.12972  -1.02943  -0.96787
 Alpha  occ. eigenvalues --   -0.84286  -0.76942  -0.72199  -0.64382  -0.62485
 Alpha  occ. eigenvalues --   -0.61996  -0.58585  -0.58005  -0.52291  -0.42113
 Alpha  occ. eigenvalues --   -0.38196  -0.29683
 Alpha virt. eigenvalues --    0.03252   0.03389   0.03895   0.04537   0.05956
 Alpha virt. eigenvalues --    0.06657   0.07073   0.09920   0.10365   0.11215
 Alpha virt. eigenvalues --    0.12524   0.13394   0.14374   0.14525   0.15368

 Mulliken charges:
               1
     1  C   -0.614184
     2  C    0.631281
     3  C   -0.586203
     4  N   -0.188365
     5  N    0.372309
     6  C   -0.062026
     7  H    0.211101
     8  H    0.256077
     9  H    0.168051
    10  H   -0.108135
    11  H    0.154049
    12  H   -0.233955
 Sum of Mulliken charges =   0.00000

 Dipole moment (field-independent basis, Debye):
    X=              3.1884    Y=             -1.6942    Z=              1.1746  Tot=              3.7968

 Test job not archived.
 1\1\GINC-SE229\SP\RHF\Aug-CC-pVDZ\C4H6N2\OHZDE\09-Apr-2025\0\\#t hf au
 g-cc-pvdz iop(5/13=1,5/36=2,99/5=2) pseudo=read geom=check guess=(read
 ,tcheck) scf=(maxcycle=1)\\title\\0,1\C,0,-1.63992894,-0.78952425,0.36
 008081\C,0,-0.45399566,0.12039961,0.22578845\C,0,0.61556147,-0.0047061
 2,-0.80546578\N,0,1.95733676,0.12286294,-0.42166264\N,0,2.4301562,0.82
 212735,0.48266547\C,0,0.02402405,1.23033358,0.69641216\H,0,-2.16926441
 ,-0.86818638,-0.6019658\H,0,-1.30697103,-1.80368606,0.62949777\H,0,-2.
 3437229,-0.42361199,1.11780571\H,0,0.40337219,-0.0791428,-1.8748905\H,

 Normal termination of Gaussian 16 at Wed Apr  9 15:51:48 2025.
