 Gaussian 16, Revision C.01,

 ----------------------------------------------------------------------
 #t hf aug-cc-pvdz symm=none int=(grid=ultrafine) guess=(read,tcheck) s
 table=(opt,rrhf)
 ----------------------------------------------------------------------
 -----
 title
 -----
 Symbolic Z-matrix:
 Charge =  0 Multiplicity = 1

 SCF Done:  E(RHF) =  -284.654299951     A.U. after   16 cycles
 Normal termination of Gaussian 16 at Wed Apr  9 17:05:20 2025.
 Gaussian 16:  ES64L-G16RevC.01  3-Jul-2019

 ----------------------------------------------------------------------
 #t hf aug-cc-pvdz iop(5/13=1,5/36=2,99/5=2) pseudo=read geom=check gue
 ss=(read,tcheck) scf=(maxcycle=1)
 ----------------------------------------------------------------------
 -----
 title
 -----
 Structure from the checkpoint file:  "Grambow2020_wb97xd3_006239_reverse_mol1.chk"
 Charge =  0 Multiplicity = 1

                         Standard orientation:
 ---------------------------------------------------------------------
 Center     Atomic      Atomic             Coordinates (Angstroms)
 Number     Number       Type             X           Y           Z
 ---------------------------------------------------------------------
      1          8           0       -2.459781   -0.394653    0.001844
      2          6           0       -1.429551    0.157581   -0.002274
      3          7           0       -0.119241   -0.002760   -0.007523
      4          6           0        0.446653    1.317960    0.002631
      5          6           0        2.110525   -0.160692   -0.001076
      6          6           0        0.985112   -1.078570    0.002812
      7          1           0       -0.824731    1.695960    0.002256
      8          1           0        0.811464    1.731468   -0.928500
      9          1           0        0.803990    1.717440    0.942877
     10          1           0        2.659625   -0.004725   -0.919842
     11          1           0        2.666528   -0.003386    0.913102
     12          1           0        0.857593   -1.681375    0.900960
     13          1           0        0.862023   -1.696517   -0.885511
 ---------------------------------------------------------------------

 SCF Done:  E(RHF) =  -284.949049928     A.U. after    2 cycles

 The electronic state is 1-A.
 Alpha  occ. eigenvalues --  -20.59805 -15.56203 -11.41640 -11.31091 -11.28722
 Alpha  occ. eigenvalues --  -11.22655  -1.54475  -1.30710  -1.05741  -0.96692
 Alpha  occ. eigenvalues --   -0.84742  -0.77599  -0.72341  -0.70976  -0.69664
 Alpha  occ. eigenvalues --   -0.62807  -0.60899  -0.58200  -0.56511  -0.53161
 Alpha  occ. eigenvalues --   -0.46312  -0.44244  -0.27740
 Alpha virt. eigenvalues --    0.02920   0.04271   0.04461   0.04521   0.05212
 Alpha virt. eigenvalues --    0.05762   0.06964   0.07121   0.08416   0.09763
 Alpha virt. eigenvalues --    0.12158   0.12877   0.14206   0.14616   0.15277

 Mulliken charges:
               1
     1  O   -0.900838
     2  C    0.307458
     3  N    0.663125
     4  C   -0.497268
     5  C    0.066790
     6  C   -0.084216
     7  H    0.398954
     8  H    0.091116
     9  H    0.091745
    10  H   -0.091544
    11  H   -0.090915
    12  H    0.022774
    13  H    0.022820
 Sum of Mulliken charges =   0.00000

 Dipole moment (field-independent basis, Debye):
    X=              1.4239    Y=              0.6667    Z=              0.0151  Tot=              1.5724

 Test job not archived.
 1\1\GINC-SE174\SP\RHF\Aug-CC-pVDZ\C4H7N1O1\OHZDE\09-Apr-2025\0\\#t hf
 aug-cc-pvdz iop(5/13=1,5/36=2,99/5=2) pseudo=read geom=check guess=(re
 ad,tcheck) scf=(maxcycle=1)\\title\\0,1\O,0,2.97194687,0.16533822,-0.8
 1958457\C,0,1.85145122,0.46880998,-0.68266273\N,0,0.66025777,0.0522977
 8,-0.29507416\C,0,-0.23347079,1.16158497,-0.483147\C,0,-1.40093088,-0.
 55426381,0.32171105\C,0,-0.09148581,-1.17825087,0.25054555\H,0,0.86307
 957,1.77428517,-0.90914701\H,0,-0.51016521,1.75468208,0.37868675\H,0,-
 0.85999055,1.17372412,-1.36556488\H,0,-1.78396891,-0.2423215,1.2839692

 Normal termination of Gaussian 16 at Wed Apr  9 17:05:25 2025.
