 Gaussian 16, Revision C.01,

 ----------------------------------------------------------------------
 #t hf aug-cc-pvdz symm=none int=(grid=ultrafine) guess=(read,tcheck) s
 table=(opt,rrhf)
 ----------------------------------------------------------------------
 -----
 title
 -----
 Symbolic Z-matrix:
 Charge =  0 Multiplicity = 1

 SCF Done:  E(RHF) =  -288.020872406     A.U. after   14 cycles

 1\1\GINC-SE128\Stability\RHF\Aug-CC-pVDZ\C6H11N1\OHZDE\09-Apr-2025\0\\
 #t hf aug-cc-pvdz symm=none int=(grid=ultrafine) guess=(read,tcheck) s
 table=(opt,rrhf)\\title\\0,1\C,0,2.27005618,-0.26593116,0.34226493\C,0
 ,1.38257647,0.90598267,0.6128375\C,0,1.51985372,2.10767001,0.06986593\
 C,0,-1.65743956,-1.4364219,-0.4219632\C,0,-2.86934847,-1.14181928,0.41
 864685\C,0,-1.12607753,-0.57598325,-1.24930065\N,0,-0.68885053,0.19905
 955,-2.08441081\H,0,1.69260333,-1.10156035,-0.06159578\H,0,2.7351805,-
 0.62115025,1.26518449\H,0,3.05884765,-0.01630348,-0.3684116\H,0,0.5633

 Normal termination of Gaussian 16 at Wed Apr  9 03:46:46 2025.
 Gaussian 16:  ES64L-G16RevC.01  3-Jul-2019

 ----------------------------------------------------------------------
 #t hf aug-cc-pvdz iop(5/13=1,5/36=2,99/5=2) pseudo=read geom=check gue
 ss=(read,tcheck) scf=(maxcycle=1)
 ----------------------------------------------------------------------
 -----
 title
 -----
 Structure from the checkpoint file:  "Grambow2020_wb97xd3_007875_reverse_mol2.chk"
 Charge =  0 Multiplicity = 1

                         Standard orientation:
 ---------------------------------------------------------------------
 Center     Atomic      Atomic             Coordinates (Angstroms)
 Number     Number       Type             X           Y           Z
 ---------------------------------------------------------------------
      1          6           0        2.080525   -1.032122   -0.898328
      2          6           0        1.859048   -0.504578    0.482562
      3          6           0        2.470639    0.550407    1.002830
      4          6           0       -2.004851   -0.342821   -0.435853
      5          6           0       -2.852590   -0.693851    0.755892
      6          6           0       -1.230644    0.708467   -0.486689
      7          7           0       -0.579377    1.737738   -0.562328
      8          1           0        1.146542   -1.029733   -1.466220
      9          1           0        2.427375   -2.067972   -0.866524
     10          1           0        2.816164   -0.437868   -1.441710
     11          1           0        1.130261   -1.039739    1.086996
     12          1           0        0.381823    1.642033   -0.233027
     13          1           0        3.207805    1.113707    0.439004
     14          1           0        2.263921    0.883099    2.012855
     15          1           0       -2.024010   -0.979812   -1.312659
     16          1           0       -3.910570   -0.726223    0.486170
     17          1           0       -2.584761   -1.674410    1.156239
     18          1           0       -2.731671    0.039744    1.552683
 ---------------------------------------------------------------------

 SCF Done:  E(RHF) =  -288.332963620     A.U. after    2 cycles

 The electronic state is 1-A.
 Alpha  occ. eigenvalues --  -15.51102 -11.30902 -11.25055 -11.24308 -11.23947
 Alpha  occ. eigenvalues --  -11.23690 -11.23481  -1.24225  -1.07805  -1.06326
 Alpha  occ. eigenvalues --   -0.94424  -0.92049  -0.77761  -0.76971  -0.68360
 Alpha  occ. eigenvalues --   -0.65789  -0.60438  -0.60285  -0.59317  -0.57964
 Alpha  occ. eigenvalues --   -0.56498  -0.54138  -0.53842  -0.50608  -0.48508
 Alpha  occ. eigenvalues --   -0.38059  -0.35080
 Alpha virt. eigenvalues --    0.03396   0.03839   0.04032   0.04171   0.05107
 Alpha virt. eigenvalues --    0.05502   0.06300   0.07368   0.07724   0.08450
 Alpha virt. eigenvalues --    0.09539   0.10881   0.11664   0.12186   0.12790

 Mulliken charges:
               1
     1  C   -0.618179
     2  C    0.380333
     3  C   -0.027616
     4  C    0.979286
     5  C   -0.528028
     6  C   -1.953517
     7  N    1.059873
     8  H    0.198057
     9  H    0.197635
    10  H    0.138402
    11  H   -0.158856
    12  H    0.173420
    13  H   -0.102627
    14  H   -0.105639
    15  H   -0.143122
    16  H    0.196330
    17  H    0.197238
    18  H    0.117011
 Sum of Mulliken charges =  -0.00000

 Dipole moment (field-independent basis, Debye):
    X=              0.3767    Y=             -2.3799    Z=              0.6191  Tot=              2.4878

 Test job not archived.
 1\1\GINC-SE128\SP\RHF\Aug-CC-pVDZ\C6H11N1\OHZDE\09-Apr-2025\0\\#t hf a
 ug-cc-pvdz iop(5/13=1,5/36=2,99/5=2) pseudo=read geom=check guess=(rea
 d,tcheck) scf=(maxcycle=1)\\title\\0,1\C,0,2.27005618,-0.26593116,0.34
 226493\C,0,1.38257647,0.90598267,0.6128375\C,0,1.51985372,2.10767001,0
 .06986593\C,0,-1.65743956,-1.4364219,-0.4219632\C,0,-2.86934847,-1.141
 81928,0.41864685\C,0,-1.12607753,-0.57598325,-1.24930065\N,0,-0.688850
 53,0.19905955,-2.08441081\H,0,1.69260333,-1.10156035,-0.06159578\H,0,2
 .7351805,-0.62115025,1.26518449\H,0,3.05884765,-0.01630348,-0.3684116\

 Normal termination of Gaussian 16 at Wed Apr  9 03:46:53 2025.
