 Gaussian 16, Revision C.01,

 ----------------------------------------------------------------------
 #t hf aug-cc-pvdz symm=none int=(grid=ultrafine) guess=(read,tcheck) s
 table=(opt,rrhf)
 ----------------------------------------------------------------------
 -----
 title
 -----
 Symbolic Z-matrix:
 Charge =  0 Multiplicity = 1

 SCF Done:  E(RHF) =  -284.650990727     A.U. after   15 cycles
 Normal termination of Gaussian 16 at Wed Apr  9 03:06:50 2025.
 Gaussian 16:  ES64L-G16RevC.01  3-Jul-2019

 ----------------------------------------------------------------------
 #t hf aug-cc-pvdz iop(5/13=1,5/36=2,99/5=2) pseudo=read geom=check gue
 ss=(read,tcheck) scf=(maxcycle=1)
 ----------------------------------------------------------------------
 -----
 title
 -----
 Structure from the checkpoint file:  "Grambow2020_b97d3_006554_reverse_mol1.chk"
 Charge =  0 Multiplicity = 1

                         Standard orientation:
 ---------------------------------------------------------------------
 Center     Atomic      Atomic             Coordinates (Angstroms)
 Number     Number       Type             X           Y           Z
 ---------------------------------------------------------------------
      1          8           0        2.061557   -0.219191   -0.272616
      2          6           0        0.205369    0.818441    0.706000
      3          6           0       -0.456224    1.094330   -0.603847
      4          7           0       -1.386700   -0.092708   -0.360334
      5          6           0       -0.527859   -1.240495   -0.430090
      6          6           0       -0.581354   -0.302663    0.946813
      7          1           0        2.395960   -0.666641    0.528503
      8          1           0        0.713177    1.495033    1.391718
      9          1           0        0.143628    1.009138   -1.517076
     10          1           0       -1.024915    2.035127   -0.580919
     11          1           0        1.246568   -0.805511   -0.544756
     12          1           0       -1.177543   -2.097835   -0.147585
     13          1           0       -0.922027   -0.784508    1.860121
 ---------------------------------------------------------------------

 SCF Done:  E(RHF) =  -284.946364333     A.U. after    2 cycles

 The electronic state is 1-A.
 Alpha  occ. eigenvalues --  -20.53034 -15.54431 -11.33789 -11.29324 -11.29002
 Alpha  occ. eigenvalues --  -11.24978  -1.39997  -1.31163  -1.04725  -0.96313
 Alpha  occ. eigenvalues --   -0.80846  -0.77056  -0.73885  -0.66803  -0.64592
 Alpha  occ. eigenvalues --   -0.61024  -0.56368  -0.55249  -0.52899  -0.50373
 Alpha  occ. eigenvalues --   -0.49304  -0.39492  -0.33588
 Alpha virt. eigenvalues --    0.02670   0.03667   0.04125   0.04457   0.05793
 Alpha virt. eigenvalues --    0.06172   0.06454   0.08784   0.09672   0.10202
 Alpha virt. eigenvalues --    0.12054   0.13045   0.13928   0.14244   0.15260

 Mulliken charges:
               1
     1  O   -1.069286
     2  C    0.814438
     3  C   -0.293281
     4  N    0.373820
     5  C   -0.585501
     6  C   -0.275655
     7  H    0.273298
     8  H   -0.170316
     9  H    0.047576
    10  H    0.078646
    11  H    0.933113
    12  H    0.050690
    13  H   -0.177541
 Sum of Mulliken charges =  -0.00000

 Dipole moment (field-independent basis, Debye):
    X=              0.2487    Y=              1.9356    Z=              3.2907  Tot=              3.8258

 Test job not archived.
 1\1\GINC-SE462\SP\RHF\Aug-CC-pVDZ\C4H7N1O1\OHZDE\09-Apr-2025\0\\#t hf
 aug-cc-pvdz iop(5/13=1,5/36=2,99/5=2) pseudo=read geom=check guess=(re
 ad,tcheck) scf=(maxcycle=1)\\title\\0,1\O,0,-0.76482074,-1.00809457,1.
 62682285\C,0,-0.97280347,0.17763874,-0.38080808\C,0,-0.18792479,1.3478
 5602,0.11323107\N,0,1.02001558,0.8440516,-0.67493476\C,0,1.40003854,-0
 .36968565,-0.009867\C,0,0.11396569,-0.34939003,-1.06998959\H,0,-1.0126
 2384,-1.88790724,1.28280075\H,0,-2.04368398,0.07104763,-0.54726599\H,0
 ,-0.01013803,1.4365813,1.19100053\H,0,-0.55487467,2.29211107,-0.314278

 Normal termination of Gaussian 16 at Wed Apr  9 03:06:54 2025.
