 Gaussian 16, Revision C.01,

 ----------------------------------------------------------------------
 #t hf aug-cc-pvdz symm=none int=(grid=ultrafine) guess=(read,tcheck) s
 table=(opt,rrhf)
 ----------------------------------------------------------------------
 -----
 title
 -----
 Symbolic Z-matrix:
 Charge =  0 Multiplicity = 1

 SCF Done:  E(RHF) =  -358.367644881     A.U. after   16 cycles
 Normal termination of Gaussian 16 at Wed Apr  9 17:43:38 2025.
 Gaussian 16:  ES64L-G16RevC.01  3-Jul-2019

 ----------------------------------------------------------------------
 #t hf aug-cc-pvdz iop(5/13=1,5/36=2,99/5=2) pseudo=read geom=check gue
 ss=(read,tcheck) scf=(maxcycle=1)
 ----------------------------------------------------------------------
 -----
 title
 -----
 Structure from the checkpoint file:  "Grambow2020_wb97xd3_006792_reverse_mol1.chk"
 Charge =  0 Multiplicity = 1

                         Standard orientation:
 ---------------------------------------------------------------------
 Center     Atomic      Atomic             Coordinates (Angstroms)
 Number     Number       Type             X           Y           Z
 ---------------------------------------------------------------------
      1          8           0       -2.299385   -1.128292    0.097596
      2          6           0       -1.734649   -0.091246    0.215416
      3          6           0       -0.653592    0.625996   -0.299288
      4          6           0        0.401356    1.505966    0.235078
      5          7           0        0.666946    0.344477   -0.602618
      6          6           0        1.430929   -0.760880   -0.242096
      7          8           0        2.431448   -0.686953    0.410136
      8          1           0       -2.468251    0.981126    0.596072
      9          1           0       -2.214866    1.267478   -0.287997
     10          1           0        0.673312    1.412224    1.281841
     11          1           0        0.585536    2.468639   -0.224944
     12          1           0        1.034883   -1.697866   -0.663164
 ---------------------------------------------------------------------

 SCF Done:  E(RHF) =  -358.726121228     A.U. after    2 cycles

 The electronic state is 1-A.
 Alpha  occ. eigenvalues --  -20.56167 -20.55805 -15.56574 -11.40590 -11.38876
 Alpha  occ. eigenvalues --  -11.33830 -11.32528  -1.51382  -1.50513  -1.35497
 Alpha  occ. eigenvalues --   -1.07509  -1.01546  -0.87327  -0.79619  -0.75172
 Alpha  occ. eigenvalues --   -0.71143  -0.70172  -0.68117  -0.60659  -0.59564
 Alpha  occ. eigenvalues --   -0.57978  -0.56391  -0.48747  -0.46590  -0.46203
 Alpha  occ. eigenvalues --   -0.36169
 Alpha virt. eigenvalues --    0.02461   0.03977   0.04081   0.05131   0.06463
 Alpha virt. eigenvalues --    0.06799   0.08548   0.09002   0.09552   0.09976
 Alpha virt. eigenvalues --    0.11708   0.12824   0.13839   0.14257   0.15046

 Mulliken charges:
               1
     1  O   -1.207007
     2  C    0.816666
     3  C   -0.764570
     4  C    0.209628
     5  N    0.659925
     6  C    0.750972
     7  O   -1.050212
     8  H    0.136728
     9  H    0.447167
    10  H   -0.062091
    11  H   -0.042113
    12  H    0.104908
 Sum of Mulliken charges =   0.00000

 Dipole moment (field-independent basis, Debye):
    X=             -1.4072    Y=              3.2032    Z=              0.1978  Tot=              3.5042

 Test job not archived.
 1\1\GINC-SE103\SP\RHF\Aug-CC-pVDZ\C4H5N1O2\OHZDE\09-Apr-2025\0\\#t hf
 aug-cc-pvdz iop(5/13=1,5/36=2,99/5=2) pseudo=read geom=check guess=(re
 ad,tcheck) scf=(maxcycle=1)\\title\\0,1\O,0,2.13978363,-1.47306844,-0.
 2471269\C,0,1.59669378,-0.4395802,-0.03445911\C,0,0.4379806,0.08504315
 ,0.54016604\C,0,-0.5148507,1.16752568,0.23495097\N,0,-0.91311482,-0.21
 006468,0.48982476\C,0,-1.59557608,-1.03683082,-0.39683413\O,0,-2.46881
 2,-0.65189371,-1.11877088\H,0,2.37755215,0.64847471,0.1641592\H,0,1.97
 320522,0.58163395,1.03583274\H,0,-0.60115219,1.50745607,-0.7924039\H,0

 Normal termination of Gaussian 16 at Wed Apr  9 17:43:42 2025.
