 Gaussian 16, Revision C.01,

 ----------------------------------------------------------------------
 #t hf aug-cc-pvdz symm=none int=(grid=ultrafine) guess=(read,tcheck) s
 table=(opt,rrhf)
 ----------------------------------------------------------------------
 -----
 title
 -----
 Symbolic Z-matrix:
 Charge =  0 Multiplicity = 1

 SCF Done:  E(RHF) =  -375.686228435     A.U. after   15 cycles
 Normal termination of Gaussian 16 at Wed Apr  9 03:46:29 2025.
 Gaussian 16:  ES64L-G16RevC.01  3-Jul-2019

 ----------------------------------------------------------------------
 #t hf aug-cc-pvdz iop(5/13=1,5/36=2,99/5=2) pseudo=read geom=check gue
 ss=(read,tcheck) scf=(maxcycle=1)
 ----------------------------------------------------------------------
 -----
 title
 -----
 Structure from the checkpoint file:  "Grambow2020_wb97xd3_007859_reverse_mol1.chk"
 Charge =  0 Multiplicity = 1

                         Standard orientation:
 ---------------------------------------------------------------------
 Center     Atomic      Atomic             Coordinates (Angstroms)
 Number     Number       Type             X           Y           Z
 ---------------------------------------------------------------------
      1          7           0        2.038605    0.028933    0.090509
      2          6           0        0.731380    0.073933   -0.129250
      3          8           0       -0.495673   -0.870730    1.098918
      4          6           0       -0.105216    1.319991    0.053134
      5          8           0       -1.392339    0.797408   -0.160953
      6          6           0       -1.119870   -0.614242   -0.041762
      7          7           0        0.043065   -0.730239   -1.023257
      8          1           0        2.528105   -0.841566   -0.019246
      9          1           0        2.446677    0.696180    0.720955
     10          1           0        0.136321    2.061381   -0.714264
     11          1           0        0.029285    1.747793    1.049646
     12          1           0       -2.026180   -1.160562   -0.311375
     13          1           0        0.380432   -1.685605   -0.992933
 ---------------------------------------------------------------------

 SCF Done:  E(RHF) =  -376.069265343     A.U. after    2 cycles

 The electronic state is 1-A.
 Alpha  occ. eigenvalues --  -20.54101 -20.46269 -15.57576 -15.51890 -11.40191
 Alpha  occ. eigenvalues --  -11.35385 -11.30828  -1.50786  -1.37284  -1.30428
 Alpha  occ. eigenvalues --   -1.20868  -1.01701  -0.87253  -0.85921  -0.81005
 Alpha  occ. eigenvalues --   -0.77625  -0.69682  -0.66278  -0.62844  -0.60519
 Alpha  occ. eigenvalues --   -0.57842  -0.56940  -0.53509  -0.49581  -0.43770
 Alpha  occ. eigenvalues --   -0.38809  -0.37407
 Alpha virt. eigenvalues --    0.01820   0.04094   0.04554   0.05301   0.05673
 Alpha virt. eigenvalues --    0.06749   0.09879   0.10902   0.11090   0.11398
 Alpha virt. eigenvalues --    0.12993   0.13828   0.14210   0.15001   0.16749

 Mulliken charges:
               1
     1  N    0.659022
     2  C   -2.352447
     3  O   -1.409002
     4  C    0.867505
     5  O   -1.418981
     6  C    1.875443
     7  N    0.703312
     8  H    0.199487
     9  H    0.231978
    10  H    0.125791
    11  H    0.123340
    12  H    0.152510
    13  H    0.242042
 Sum of Mulliken charges =  -0.00000

 Dipole moment (field-independent basis, Debye):
    X=              5.0242    Y=              0.5616    Z=             -0.7860  Tot=              5.1162

 Test job not archived.
 1\1\GINC-SE108\SP\RHF\Aug-CC-pVDZ\C3H6N2O2\OHZDE\09-Apr-2025\0\\#t hf
 aug-cc-pvdz iop(5/13=1,5/36=2,99/5=2) pseudo=read geom=check guess=(re
 ad,tcheck) scf=(maxcycle=1)\\title\\0,1\N,0,-1.24255442,-0.46945388,-1
 .22917723\C,0,-0.24543936,-0.17688313,-0.40496779\O,0,-0.46415732,1.28
 405201,0.90814836\C,0,0.1964564,-1.07728488,0.72632389\O,0,1.15134177,
 -0.25527111,1.34930079\C,0,0.82453701,1.01666702,0.75216322\N,0,0.8456
 7412,0.61661251,-0.7204921\H,0,-1.50502352,0.18992979,-1.94033722\H,0,
 -1.95876569,-1.10113395,-0.91737007\H,0,0.67121953,-1.98196352,0.33510

 Normal termination of Gaussian 16 at Wed Apr  9 03:46:34 2025.
