 Gaussian 16, Revision C.01,

 ----------------------------------------------------------------------
 #t hf aug-cc-pvdz symm=none int=(grid=ultrafine) guess=(read,tcheck) s
 table=(opt,rrhf)
 ----------------------------------------------------------------------
 -----
 title
 -----
 Symbolic Z-matrix:
 Charge =  0 Multiplicity = 1

 SCF Done:  E(RHF) =  -358.349789329     A.U. after   18 cycles
 Normal termination of Gaussian 16 at Wed Apr  9 17:42:21 2025.
 Gaussian 16:  ES64L-G16RevC.01  3-Jul-2019

 ----------------------------------------------------------------------
 #t hf aug-cc-pvdz iop(5/13=1,5/36=2,99/5=2) pseudo=read geom=check gue
 ss=(read,tcheck) scf=(maxcycle=1)
 ----------------------------------------------------------------------
 -----
 title
 -----
 Structure from the checkpoint file:  "Grambow2020_wb97xd3_006783_forward_mol1.chk"
 Charge =  0 Multiplicity = 1

                         Standard orientation:
 ---------------------------------------------------------------------
 Center     Atomic      Atomic             Coordinates (Angstroms)
 Number     Number       Type             X           Y           Z
 ---------------------------------------------------------------------
      1          8           0       -1.710176   -0.287114    0.428767
      2          6           0       -0.973401   -0.063444   -0.626986
      3          6           0        0.210713   -0.989738   -0.378060
      4          6           0        1.583375   -0.338916   -0.387039
      5          7           0        0.322141   -0.464928    0.986899
      6          6           0        0.657453    0.812427    0.538797
      7          8           0       -0.175138    1.262852   -0.399325
      8          1           0       -1.463415    0.072740   -1.594565
      9          1           0        0.067753   -2.058262   -0.473814
     10          1           0        1.870160    0.305816   -1.211930
     11          1           0        2.391917   -0.925537    0.032204
     12          1           0        1.092268    1.531855    1.224007
 ---------------------------------------------------------------------

 SCF Done:  E(RHF) =  -358.707083309     A.U. after    2 cycles

 The electronic state is 1-A.
 Alpha  occ. eigenvalues --  -20.56644 -20.46429 -15.65284 -11.38863 -11.34509
 Alpha  occ. eigenvalues --  -11.32260 -11.31689  -1.53576  -1.37780  -1.32020
 Alpha  occ. eigenvalues --   -1.03350  -0.97518  -0.85309  -0.82758  -0.78292
 Alpha  occ. eigenvalues --   -0.69156  -0.67522  -0.65288  -0.61508  -0.58604
 Alpha  occ. eigenvalues --   -0.56082  -0.54708  -0.52947  -0.43923  -0.38106
 Alpha  occ. eigenvalues --   -0.36534
 Alpha virt. eigenvalues --    0.00729   0.02679   0.03780   0.04095   0.04392
 Alpha virt. eigenvalues --    0.05717   0.08109   0.09521   0.09821   0.11029
 Alpha virt. eigenvalues --    0.12659   0.13298   0.14537   0.15084   0.15224

 Mulliken charges:
               1
     1  O   -1.463208
     2  C    1.630915
     3  C   -0.183182
     4  C    0.110414
     5  N    0.732667
     6  C    0.599459
     7  O   -1.445528
     8  H    0.118894
     9  H   -0.110204
    10  H    0.086940
    11  H   -0.052235
    12  H   -0.024933
 Sum of Mulliken charges =  -0.00000

 Dipole moment (field-independent basis, Debye):
    X=              5.7652    Y=             -0.6169    Z=             -2.2151  Tot=              6.2068

 Test job not archived.
 1\1\GINC-SE232\SP\RHF\Aug-CC-pVDZ\C4H5N1O2\OHZDE\09-Apr-2025\0\\#t hf
 aug-cc-pvdz iop(5/13=1,5/36=2,99/5=2) pseudo=read geom=check guess=(re
 ad,tcheck) scf=(maxcycle=1)\\title\\0,1\O,0,1.62406949,-1.33638961,0.0
 9955266\C,0,1.01051699,-0.54432009,-0.73929088\C,0,0.65717003,0.637554
 24,0.15537698\C,0,-0.81098921,1.02479549,0.20440173\N,0,0.11695047,-0.
 29156879,1.1532996\C,0,-0.90517632,-0.71342229,0.30349904\O,0,-0.46101
 969,-1.04870756,-0.90748129\H,0,1.39077031,-0.45900848,-1.76056319\H,0
 ,1.44876777,1.29624838,0.48831057\H,0,-1.36326397,1.1671452,-0.7192319

 Normal termination of Gaussian 16 at Wed Apr  9 17:42:26 2025.
