 Gaussian 16, Revision C.01,

 ----------------------------------------------------------------------
 #t hf aug-cc-pvdz symm=none int=(grid=ultrafine) guess=(read,tcheck) s
 table=(opt,rrhf)
 ----------------------------------------------------------------------
 -----
 title
 -----
 Symbolic Z-matrix:
 Charge =  0 Multiplicity = 1

 SCF Done:  E(RHF) =  -299.544710117     A.U. after   17 cycles
 Normal termination of Gaussian 16 at Wed Apr  9 16:33:42 2025.
 Gaussian 16:  ES64L-G16RevC.01  3-Jul-2019

 ----------------------------------------------------------------------
 #t hf aug-cc-pvdz iop(5/13=1,5/36=2,99/5=2) pseudo=read geom=check gue
 ss=(read,tcheck) scf=(maxcycle=1)
 ----------------------------------------------------------------------
 -----
 title
 -----
 Structure from the checkpoint file:  "Grambow2020_wb97xd3_006146_forward_mol1.chk"
 Charge =  0 Multiplicity = 1

                         Standard orientation:
 ---------------------------------------------------------------------
 Center     Atomic      Atomic             Coordinates (Angstroms)
 Number     Number       Type             X           Y           Z
 ---------------------------------------------------------------------
      1          7           0       -2.006672    0.109488   -0.093948
      2          6           0       -0.643351    0.170674    0.191628
      3          6           0        0.242703    1.284828    0.011893
      4          6           0        1.481706    0.549072   -0.084891
      5          7           0        1.363498   -0.751034   -0.076904
      6          8           0        0.078502   -1.067585    0.031609
      7          1           0       -2.437479   -0.759113    0.181383
      8          1           0       -2.213672    0.336509   -1.053041
      9          1           0       -0.436540    0.464983    1.286990
     10          1           0        2.475545    0.961676   -0.184021
 ---------------------------------------------------------------------

 SCF Done:  E(RHF) =  -299.843135596     A.U. after    2 cycles

 The electronic state is 1-A.
 Alpha  occ. eigenvalues --  -20.63583 -15.61861 -15.52707 -11.35844 -11.28758
 Alpha  occ. eigenvalues --  -11.27867  -1.59857  -1.24500  -1.19397  -1.07888
 Alpha  occ. eigenvalues --   -0.86068  -0.84463  -0.75901  -0.75565  -0.70124
 Alpha  occ. eigenvalues --   -0.64661  -0.60051  -0.57242  -0.51296  -0.47722
 Alpha  occ. eigenvalues --   -0.43677  -0.40313
 Alpha virt. eigenvalues --    0.01509   0.03816   0.04353   0.05227   0.06050
 Alpha virt. eigenvalues --    0.08582   0.10580   0.11311   0.11928   0.12042
 Alpha virt. eigenvalues --    0.12859   0.14103   0.15290   0.15804   0.17253

 Mulliken charges:
               1
     1  N    0.496802
     2  C   -0.264149
     3  C   -0.365692
     4  C   -0.472097
     5  N    1.250975
     6  O   -1.475791
     7  H    0.161894
     8  H    0.241654
     9  H    0.486474
    10  H   -0.060070
 Sum of Mulliken charges =  -0.00000

 Dipole moment (field-independent basis, Debye):
    X=             -1.2005    Y=             -0.6190    Z=             -0.2780  Tot=              1.3790

 Test job not archived.
 1\1\GINC-SE220\SP\RHF\Aug-CC-pVDZ\C3H4N2O1\OHZDE\09-Apr-2025\0\\#t hf
 aug-cc-pvdz iop(5/13=1,5/36=2,99/5=2) pseudo=read geom=check guess=(re
 ad,tcheck) scf=(maxcycle=1)\\title\\0,1\N,0,1.76210233,0.16256303,-0.3
 6746535\C,0,0.3878734,-0.04979659,-0.26577862\C,0,-0.6649562,0.9074851
 ,-0.44989739\C,0,-1.68134463,0.24977792,0.33763703\N,0,-1.29486717,-0.
 82891821,0.96322539\O,0,-0.01433091,-1.05109469,0.69108948\H,0,2.30847
 376,-0.67812309,-0.26453408\H,0,2.0891193,0.89260106,0.24437793\H,0,-0
 .07405595,-0.41982591,-1.25517561\H,0,-2.70435993,0.56976938,0.4748592

 Normal termination of Gaussian 16 at Wed Apr  9 16:33:45 2025.
