 Gaussian 16, Revision C.01,

 ----------------------------------------------------------------------
 #t hf aug-cc-pvdz symm=none int=(grid=ultrafine) guess=(read,tcheck) s
 table=(opt,rrhf)
 ----------------------------------------------------------------------
 -----
 title
 -----
 Symbolic Z-matrix:
 Charge =  0 Multiplicity = 1

 SCF Done:  E(RHF) =  -322.696364519     A.U. after   15 cycles
 Normal termination of Gaussian 16 at Wed Apr  9 03:33:21 2025.
 Gaussian 16:  ES64L-G16RevC.01  3-Jul-2019

 ----------------------------------------------------------------------
 #t hf aug-cc-pvdz iop(5/13=1,5/36=2,99/5=2) pseudo=read geom=check gue
 ss=(read,tcheck) scf=(maxcycle=1)
 ----------------------------------------------------------------------
 -----
 title
 -----
 Structure from the checkpoint file:  "Grambow2020_wb97xd3_007018_reverse_mol2.chk"
 Charge =  0 Multiplicity = 1

                         Standard orientation:
 ---------------------------------------------------------------------
 Center     Atomic      Atomic             Coordinates (Angstroms)
 Number     Number       Type             X           Y           Z
 ---------------------------------------------------------------------
      1          6           0       -1.394912   -1.265628    0.443416
      2          6           0        1.071904    1.110240    0.246136
      3          6           0        1.767902   -0.130022    0.125361
      4          6           0        0.983595   -1.154044   -0.250135
      5          7           0       -0.367002   -0.648161   -0.408951
      6          6           0       -0.261926    0.969936   -0.059527
      7          8           0       -1.296143    1.577726   -0.150096
      8          1           0       -1.036315   -1.238546    1.470596
      9          1           0       -1.572730   -2.297258    0.141056
     10          1           0       -2.306883   -0.675986    0.354945
     11          1           0        1.500770    2.053235    0.540229
     12          1           0        2.826534   -0.241213    0.317881
     13          1           0        1.195915   -2.197493   -0.412478
     14          1           0       -0.668519   -0.670319   -1.380308
 ---------------------------------------------------------------------

 SCF Done:  E(RHF) =  -323.030668900     A.U. after    2 cycles

 The electronic state is 1-A.
 Alpha  occ. eigenvalues --  -20.50761 -15.60262 -11.35545 -11.29534 -11.26536
 Alpha  occ. eigenvalues --  -11.25441 -11.20361  -1.45974  -1.30537  -1.10274
 Alpha  occ. eigenvalues --   -0.97921  -0.96054  -0.83090  -0.78779  -0.73583
 Alpha  occ. eigenvalues --   -0.70398  -0.64371  -0.63496  -0.59914  -0.58731
 Alpha  occ. eigenvalues --   -0.57091  -0.55736  -0.54257  -0.43920  -0.42550
 Alpha  occ. eigenvalues --   -0.27740
 Alpha virt. eigenvalues --    0.02625   0.03777   0.04321   0.04461   0.05564
 Alpha virt. eigenvalues --    0.05822   0.07022   0.09590   0.10172   0.11368
 Alpha virt. eigenvalues --    0.12549   0.13632   0.13955   0.14860   0.15250

 Mulliken charges:
               1
     1  C   -0.377496
     2  C    0.389974
     3  C    0.508103
     4  C   -0.758526
     5  N    0.637871
     6  C    0.755016
     7  O   -1.410269
     8  H    0.239931
     9  H    0.067091
    10  H    0.127424
    11  H   -0.196393
    12  H   -0.104017
    13  H   -0.296315
    14  H    0.417606
 Sum of Mulliken charges =  -0.00000

 Dipole moment (field-independent basis, Debye):
    X=              0.6337    Y=             -4.3112    Z=             -0.3677  Tot=              4.3730

 Test job not archived.
 1\1\GINC-SE459\SP\RHF\Aug-CC-pVDZ\C5H7N1O1\OHZDE\09-Apr-2025\0\\#t hf
 aug-cc-pvdz iop(5/13=1,5/36=2,99/5=2) pseudo=read geom=check guess=(re
 ad,tcheck) scf=(maxcycle=1)\\title\\0,1\C,0,-0.95164272,-0.81350203,1.
 22066966\C,0,0.22696961,0.69664232,-1.62523661\C,0,0.86155543,1.406565
 91,-0.56195825\C,0,0.88723227,0.72984712,0.59827794\N,0,0.23027808,-0.
 54637727,0.38634354\C,0,-0.21470857,-0.53867617,-1.2115626\O,0,-0.7722
 4577,-1.53571633,-1.5887599\H,0,-1.6198736,0.04124641,1.13525479\H,0,-
 0.66094499,-0.9528692,2.26152226\H,0,-1.44305927,-1.70642129,0.8354408

 Normal termination of Gaussian 16 at Wed Apr  9 03:33:26 2025.
