 Gaussian 16, Revision C.01,

 ----------------------------------------------------------------------
 #t hf aug-cc-pvdz symm=none int=(grid=ultrafine) guess=(read,tcheck) s
 table=(opt,rrhf)
 ----------------------------------------------------------------------
 -----
 title
 -----
 Symbolic Z-matrix:
 Charge =  0 Multiplicity = 1

 SCF Done:  E(RHF) =  -339.902660110     A.U. after   14 cycles
 Normal termination of Gaussian 16 at Wed Apr  9 03:33:25 2025.
 Gaussian 16:  ES64L-G16RevC.01  3-Jul-2019

 ----------------------------------------------------------------------
 #t hf aug-cc-pvdz iop(5/13=1,5/36=2,99/5=2) pseudo=read geom=check gue
 ss=(read,tcheck) scf=(maxcycle=1)
 ----------------------------------------------------------------------
 -----
 title
 -----
 Structure from the checkpoint file:  "Grambow2020_wb97xd3_007003_reverse_mol2.chk"
 Charge =  0 Multiplicity = 1

                         Standard orientation:
 ---------------------------------------------------------------------
 Center     Atomic      Atomic             Coordinates (Angstroms)
 Number     Number       Type             X           Y           Z
 ---------------------------------------------------------------------
      1          6           0       -1.460774   -0.316315    1.134095
      2          6           0       -0.595041   -0.012887   -0.069013
      3          8           0       -1.106750   -0.578906   -1.249204
      4          6           0       -0.173253    1.470368   -0.245660
      5          7           0        1.177354    1.067166    0.169060
      6          6           0        0.897433   -0.279901    0.118913
      7          7           0        1.525137   -1.372446    0.135758
      8          1           0       -1.491739   -1.393663    1.304406
      9          1           0       -2.476935    0.040604    0.959037
     10          1           0       -1.064536    0.160769    2.032411
     11          1           0       -0.728334   -1.459976   -1.329031
     12          1           0       -0.645126    2.196849    0.417546
     13          1           0       -0.247599    1.789952   -1.285953
     14          1           0        2.532729   -1.250671    0.192625
     15          1           0        2.047913    1.516760   -0.061141
 ---------------------------------------------------------------------

 SCF Done:  E(RHF) =  -340.255414645     A.U. after    2 cycles

 The electronic state is 1-A.
 Alpha  occ. eigenvalues --  -20.55422 -15.52466 -15.47345 -11.31797 -11.30413
 Alpha  occ. eigenvalues --  -11.27833 -11.23163  -1.46529  -1.29646  -1.18178
 Alpha  occ. eigenvalues --   -1.04085  -0.94179  -0.89886  -0.77667  -0.75301
 Alpha  occ. eigenvalues --   -0.70210  -0.67295  -0.63564  -0.61426  -0.58269
 Alpha  occ. eigenvalues --   -0.56850  -0.53374  -0.52099  -0.50124  -0.46033
 Alpha  occ. eigenvalues --   -0.43910  -0.41112
 Alpha virt. eigenvalues --    0.03109   0.04238   0.04533   0.05039   0.05719
 Alpha virt. eigenvalues --    0.06194   0.06616   0.07354   0.10290   0.12013
 Alpha virt. eigenvalues --    0.12317   0.13550   0.13735   0.14639   0.15007

 Mulliken charges:
               1
     1  C   -0.041078
     2  C    0.611748
     3  O   -1.425160
     4  C    0.019577
     5  N    0.758322
     6  C   -1.934763
     7  N    0.895398
     8  H    0.264852
     9  H    0.182131
    10  H    0.250245
    11  H    0.262371
    12  H    0.012368
    13  H    0.035468
    14  H    0.144730
    15  H   -0.036209
 Sum of Mulliken charges =  -0.00000

 Dipole moment (field-independent basis, Debye):
    X=              0.7011    Y=              2.6170    Z=              0.2667  Tot=              2.7224

 Test job not archived.
 1\1\GINC-SE402\SP\RHF\Aug-CC-pVDZ\C4H8N2O1\OHZDE\09-Apr-2025\0\\#t hf
 aug-cc-pvdz iop(5/13=1,5/36=2,99/5=2) pseudo=read geom=check guess=(re
 ad,tcheck) scf=(maxcycle=1)\\title\\0,1\C,0,1.16293968,1.25018731,-0.4
 1378593\C,0,0.01878323,0.48242222,0.21109323\O,0,-0.38574688,1.0353027
 2,1.43818418\C,0,-1.17485264,0.1591617,-0.72693248\N,0,-0.71508776,-1.
 23629606,-0.72272426\C,0,0.20978952,-1.03195512,0.27642749\N,0,0.92723
 653,-1.72145948,1.04960651\H,0,2.03614652,1.20791948,0.23918238\H,0,0.
 87752672,2.29439253,-0.55087572\H,0,1.43811513,0.82530608,-1.38091599\

 Normal termination of Gaussian 16 at Wed Apr  9 03:33:30 2025.
