 Gaussian 16, Revision C.01,

 ----------------------------------------------------------------------
 #t hf aug-cc-pvdz symm=none int=(grid=ultrafine) guess=(read,tcheck) s
 table=(opt,rrhf)
 ----------------------------------------------------------------------
 -----
 title
 -----
 Symbolic Z-matrix:
 Charge =  0 Multiplicity = 1

 SCF Done:  E(RHF) =  -284.709396774     A.U. after   16 cycles
 Normal termination of Gaussian 16 at Wed Apr  9 03:06:49 2025.
 Gaussian 16:  ES64L-G16RevC.01  3-Jul-2019

 ----------------------------------------------------------------------
 #t hf aug-cc-pvdz iop(5/13=1,5/36=2,99/5=2) pseudo=read geom=check gue
 ss=(read,tcheck) scf=(maxcycle=1)
 ----------------------------------------------------------------------
 -----
 title
 -----
 Structure from the checkpoint file:  "Grambow2020_b97d3_006542_forward_mol1.chk"
 Charge =  0 Multiplicity = 1

                         Standard orientation:
 ---------------------------------------------------------------------
 Center     Atomic      Atomic             Coordinates (Angstroms)
 Number     Number       Type             X           Y           Z
 ---------------------------------------------------------------------
      1          6           0        1.063993    1.160874    0.251767
      2          6           0        1.434879   -0.230158   -0.200754
      3          8           0        0.484277   -1.300092    0.057120
      4          6           0       -0.863163   -1.093627    0.078854
      5          7           0       -1.509634    0.008856    0.015791
      6          6           0       -1.155817    1.255255   -0.284328
      7          1           0        0.845350    1.265333    1.314225
      8          1           0        1.789141    1.906234   -0.096053
      9          1           0        1.625366   -0.238619   -1.284867
     10          1           0        2.351967   -0.574364    0.298900
     11          1           0       -1.380372   -2.038985    0.235156
     12          1           0       -1.433885    1.979305    0.499336
     13          1           0        0.016309    1.485776   -0.607427
 ---------------------------------------------------------------------

 SCF Done:  E(RHF) =  -285.001298185     A.U. after    2 cycles

 The electronic state is 1-A.
 Alpha  occ. eigenvalues --  -20.58638 -15.51009 -11.35054 -11.31714 -11.28408
 Alpha  occ. eigenvalues --  -11.27026  -1.50225  -1.24600  -1.06317  -0.96498
 Alpha  occ. eigenvalues --   -0.90236  -0.75419  -0.71913  -0.70822  -0.66861
 Alpha  occ. eigenvalues --   -0.60952  -0.60405  -0.58926  -0.54358  -0.52325
 Alpha  occ. eigenvalues --   -0.47406  -0.43284  -0.29742
 Alpha virt. eigenvalues --    0.03279   0.04103   0.04297   0.04523   0.05908
 Alpha virt. eigenvalues --    0.06350   0.07743   0.09195   0.09982   0.10894
 Alpha virt. eigenvalues --    0.12284   0.13416   0.14353   0.14494   0.15263

 Mulliken charges:
               1
     1  C   -0.632630
     2  C    0.547028
     3  O   -1.265804
     4  C    0.257954
     5  N    0.801243
     6  C   -0.867793
     7  H    0.123851
     8  H    0.066481
     9  H    0.160253
    10  H    0.051939
    11  H   -0.035613
    12  H    0.049997
    13  H    0.743095
 Sum of Mulliken charges =  -0.00000

 Dipole moment (field-independent basis, Debye):
    X=              2.8276    Y=              0.0873    Z=              0.7612  Tot=              2.9296

 Test job not archived.
 1\1\GINC-SE362\SP\RHF\Aug-CC-pVDZ\C4H7N1O1\OHZDE\09-Apr-2025\0\\#t hf
 aug-cc-pvdz iop(5/13=1,5/36=2,99/5=2) pseudo=read geom=check guess=(re
 ad,tcheck) scf=(maxcycle=1)\\title\\0,1\C,0,0.59907396,-0.98408394,0.4
 2498085\C,0,-0.80121978,-1.03024843,-0.13568385\O,0,-1.57742483,0.1993
 9247,-0.11589406\C,0,-1.00297189,1.43044171,-0.2308532\N,0,0.23819618,
 1.74139287,-0.2442969\C,0,1.354136,1.02664862,-0.35649147\H,0,0.679079
 2,-0.64927237,1.45892284\H,0,1.13500979,-1.92509248,0.25277512\H,0,-0.
 77981867,-1.36712991,-1.18340164\H,0,-1.42645063,-1.73866586,0.4268218

 Normal termination of Gaussian 16 at Wed Apr  9 03:06:52 2025.
