 Gaussian 16, Revision C.01,

 ----------------------------------------------------------------------
 #t hf aug-cc-pvdz symm=none int=(grid=ultrafine) guess=(read,tcheck) s
 table=(opt,rrhf)
 ----------------------------------------------------------------------
 -----
 title
 -----
 Symbolic Z-matrix:
 Charge =  0 Multiplicity = 1

 SCF Done:  E(RHF) =  -317.561418745     A.U. after   20 cycles
 Normal termination of Gaussian 16 at Wed Apr  9 19:14:46 2025.
 Gaussian 16:  ES64L-G16RevC.01  3-Jul-2019

 ----------------------------------------------------------------------
 #t hf aug-cc-pvdz iop(5/13=1,5/36=2,99/5=2) pseudo=read geom=check gue
 ss=(read,tcheck) scf=(maxcycle=1)
 ----------------------------------------------------------------------
 -----
 title
 -----
 Structure from the checkpoint file:  "Grambow2020_wb97xd3_008971_reverse_mol2.chk"
 Charge =  0 Multiplicity = 1

                         Standard orientation:
 ---------------------------------------------------------------------
 Center     Atomic      Atomic             Coordinates (Angstroms)
 Number     Number       Type             X           Y           Z
 ---------------------------------------------------------------------
      1          7           0        2.301379   -0.296041   -0.004432
      2          6           0        1.040861   -0.167558   -0.004046
      3          6           0       -0.073507   -1.189714    0.002226
      4          7           0       -1.361683   -0.996104    0.005302
      5          6           0       -1.884946    0.210210    0.001571
      6          7           0       -0.970017    1.225325   -0.005419
      7          6           0        0.196916    0.953707   -0.007702
      8          1           0        2.486867    2.019472    0.030560
      9          1           0        2.606748   -1.260775    0.002303
     10          1           0        0.299041   -2.209033    0.008937
     11          1           0       -2.939462    0.422168    0.004985
     12          1           0        2.083106    2.656033    0.032759
 ---------------------------------------------------------------------

 SCF Done:  E(RHF) =  -317.884311518     A.U. after    2 cycles

 The electronic state is 1-A.
 Alpha  occ. eigenvalues --  -15.60050 -15.54925 -15.47783 -11.38331 -11.35792
 Alpha  occ. eigenvalues --  -11.33379 -11.31399  -1.39240  -1.25858  -1.22992
 Alpha  occ. eigenvalues --   -1.07096  -0.95843  -0.91603  -0.78320  -0.76495
 Alpha  occ. eigenvalues --   -0.71852  -0.67995  -0.62714  -0.60583  -0.59287
 Alpha  occ. eigenvalues --   -0.52725  -0.52257  -0.51940  -0.46511  -0.31614
 Alpha virt. eigenvalues --    0.00426   0.03325   0.04396   0.05379   0.05472
 Alpha virt. eigenvalues --    0.06091   0.07600   0.07808   0.09075   0.09920
 Alpha virt. eigenvalues --    0.10384   0.11477   0.12396   0.12598   0.13948

 Mulliken charges:
               1
     1  N    0.961031
     2  C   -0.922013
     3  C   -0.439468
     4  N    0.843471
     5  C   -0.169570
     6  N    1.280129
     7  C   -1.565508
     8  H   -0.099793
     9  H    0.093086
    10  H   -0.121621
    11  H   -0.024198
    12  H    0.164453
 Sum of Mulliken charges =  -0.00000

 Dipole moment (field-independent basis, Debye):
    X=             -1.5796    Y=             -0.1680    Z=              0.0115  Tot=              1.5886

 Test job not archived.
 1\1\GINC-SE207\SP\RHF\Aug-CC-pVDZ\C4H5N3\OHZDE\09-Apr-2025\0\\#t hf au
 g-cc-pvdz iop(5/13=1,5/36=2,99/5=2) pseudo=read geom=check guess=(read
 ,tcheck) scf=(maxcycle=1)\\title\\0,1\N,0,-2.01495892,0.22418492,0.017
 11438\C,0,-0.74870596,0.19391245,0.05029144\C,0,0.27262096,1.24853713,
 0.41266829\N,0,1.57194433,1.15739675,0.43117732\C,0,2.19712123,0.04640
 991,0.10888587\N,0,1.37380644,-0.98667693,-0.24109761\C,0,0.18846214,-
 0.8124897,-0.22964484\H,0,-2.00112791,-2.00784481,-0.62715629\H,0,-2.4
 0242898,1.11987676,0.28471538\H,0,-0.18645034,2.19136928,0.6922584\H,0

 Normal termination of Gaussian 16 at Wed Apr  9 19:14:50 2025.
