 Gaussian 16, Revision C.01,

 ----------------------------------------------------------------------
 #t hf aug-cc-pvdz symm=none int=(grid=ultrafine) guess=(read,tcheck) s
 table=(opt,rrhf)
 ----------------------------------------------------------------------
 -----
 title
 -----
 Symbolic Z-matrix:
 Charge =  0 Multiplicity = 1

 SCF Done:  E(RHF) =  -322.638962566     A.U. after   15 cycles
 Normal termination of Gaussian 16 at Wed Apr  9 18:33:42 2025.
 Gaussian 16:  ES64L-G16RevC.01  3-Jul-2019

 ----------------------------------------------------------------------
 #t hf aug-cc-pvdz iop(5/13=1,5/36=2,99/5=2) pseudo=read geom=check gue
 ss=(read,tcheck) scf=(maxcycle=1)
 ----------------------------------------------------------------------
 -----
 title
 -----
 Structure from the checkpoint file:  "Grambow2020_wb97xd3_007715_reverse_mol2.chk"
 Charge =  0 Multiplicity = 1

                         Standard orientation:
 ---------------------------------------------------------------------
 Center     Atomic      Atomic             Coordinates (Angstroms)
 Number     Number       Type             X           Y           Z
 ---------------------------------------------------------------------
      1          6           0        2.549699   -0.317880   -0.151731
      2          7           0        1.232679   -0.796181    0.222119
      3          6           0        0.256148   -0.047546    0.202204
      4          8           0        0.159564    1.338220   -0.186407
      5          6           0       -1.167723    1.383530   -0.057690
      6          6           0       -2.101041   -1.043278   -0.321564
      7          6           0       -1.232117   -0.064273    0.443732
      8          1           0        3.216680   -0.445616    0.701312
      9          1           0        2.928388   -0.944248   -0.959546
     10          1           0        2.563656    0.727785   -0.466922
     11          1           0       -3.153188   -0.800187   -0.170818
     12          1           0       -1.892431   -1.003622   -1.391441
     13          1           0       -1.927473   -2.062728    0.022457
     14          1           0       -1.470705   -0.067195    1.511680
 ---------------------------------------------------------------------

 SCF Done:  E(RHF) =  -322.967427771     A.U. after    2 cycles

 The electronic state is 1-A.
 Alpha  occ. eigenvalues --  -20.62536 -15.51505 -11.35859 -11.32438 -11.27192
 Alpha  occ. eigenvalues --  -11.26894 -11.25245  -1.56864  -1.26134  -1.09351
 Alpha  occ. eigenvalues --   -0.98758  -0.93581  -0.84959  -0.74320  -0.71192
 Alpha  occ. eigenvalues --   -0.68134  -0.66916  -0.61467  -0.60003  -0.58885
 Alpha  occ. eigenvalues --   -0.54837  -0.54088  -0.51987  -0.46340  -0.45679
 Alpha  occ. eigenvalues --   -0.38697
 Alpha virt. eigenvalues --    0.03345   0.04053   0.04253   0.05572   0.05628
 Alpha virt. eigenvalues --    0.06054   0.06193   0.08219   0.09513   0.10543
 Alpha virt. eigenvalues --    0.11201   0.12699   0.13257   0.14085   0.14412

 Mulliken charges:
               1
     1  C   -0.287413
     2  N    0.845991
     3  C   -0.162677
     4  O   -1.219047
     5  C    0.533963
     6  C   -0.184558
     7  C   -0.679787
     8  H    0.120642
     9  H    0.115156
    10  H    0.077730
    11  H    0.166432
    12  H    0.213702
    13  H    0.240653
    14  H    0.219213
 Sum of Mulliken charges =  -0.00000

 Dipole moment (field-independent basis, Debye):
    X=              0.2930    Y=             -1.4986    Z=              0.3847  Tot=              1.5747

 Test job not archived.
 1\1\GINC-SE028\SP\RHF\Aug-CC-pVDZ\C5H7N1O1\OHZDE\09-Apr-2025\0\\#t hf
 aug-cc-pvdz iop(5/13=1,5/36=2,99/5=2) pseudo=read geom=check guess=(re
 ad,tcheck) scf=(maxcycle=1)\\title\\0,1\C,0,2.40002591,0.1600465,0.887
 70001\N,0,1.02586396,0.58662016,0.70661361\C,0,0.3313143,0.1234699,-0.
 19757546\O,0,0.64614641,-0.87833482,-1.1864951\C,0,-0.59037498,-0.9140
 1596,-1.68654913\C,0,-2.24670509,-0.093925,0.16118746\C,0,-1.07005378,
 0.20049122,-0.74874045\H,0,3.04655395,1.0324788,0.78908191\H,0,2.51350
 713,-0.21782463,1.90388974\H,0,2.71855811,-0.60682352,0.17819094\H,0,-

 Normal termination of Gaussian 16 at Wed Apr  9 18:33:47 2025.
