 Gaussian 16, Revision C.01,

 ----------------------------------------------------------------------
 #t hf aug-cc-pvdz symm=none int=(grid=ultrafine) guess=(read,tcheck) s
 table=(opt,rrhf)
 ----------------------------------------------------------------------
 -----
 title
 -----
 Symbolic Z-matrix:
 Charge =  0 Multiplicity = 1

 SCF Done:  E(RHF) =  -322.773551164     A.U. after   15 cycles
 Normal termination of Gaussian 16 at Wed Apr  9 18:36:45 2025.
 Gaussian 16:  ES64L-G16RevC.01  3-Jul-2019

 ----------------------------------------------------------------------
 #t hf aug-cc-pvdz iop(5/13=1,5/36=2,99/5=2) pseudo=read geom=check gue
 ss=(read,tcheck) scf=(maxcycle=1)
 ----------------------------------------------------------------------
 -----
 title
 -----
 Structure from the checkpoint file:  "Grambow2020_wb97xd3_007787_forward_mol2.chk"
 Charge =  0 Multiplicity = 1

                         Standard orientation:
 ---------------------------------------------------------------------
 Center     Atomic      Atomic             Coordinates (Angstroms)
 Number     Number       Type             X           Y           Z
 ---------------------------------------------------------------------
      1          6           0        2.544347   -0.360112   -0.001398
      2          6           0        1.095684   -0.017004    0.001593
      3          6           0        0.536946    1.190905    0.000990
      4          7           0       -0.864842    1.110070    0.000446
      5          6           0       -1.288944   -0.195497    0.000323
      6          8           0       -2.434849   -0.572919   -0.001432
      7          6           0       -0.013810   -1.033609    0.001595
      8          1           0        2.812927   -0.950902    0.878805
      9          1           0        3.163127    0.537978   -0.006846
     10          1           0        2.806578   -0.956944   -0.879432
     11          1           0        1.019875    2.157500   -0.000606
     12          1           0       -1.500622    1.886217   -0.003360
     13          1           0       -0.006432   -1.683221   -0.877722
     14          1           0       -0.008106   -1.685859    0.878881
 ---------------------------------------------------------------------

 SCF Done:  E(RHF) =  -323.106542502     A.U. after    2 cycles

 The electronic state is 1-A.
 Alpha  occ. eigenvalues --  -20.51080 -15.53414 -11.35737 -11.28260 -11.25202
 Alpha  occ. eigenvalues --  -11.24528 -11.24330  -1.46193  -1.28131  -1.09415
 Alpha  occ. eigenvalues --   -0.99927  -0.95537  -0.84161  -0.78046  -0.72224
 Alpha  occ. eigenvalues --   -0.65796  -0.64504  -0.62341  -0.58441  -0.58361
 Alpha  occ. eigenvalues --   -0.57415  -0.55298  -0.52656  -0.48055  -0.41774
 Alpha  occ. eigenvalues --   -0.33393
 Alpha virt. eigenvalues --    0.02969   0.03391   0.04192   0.04427   0.05811
 Alpha virt. eigenvalues --    0.07358   0.07505   0.08810   0.09978   0.11570
 Alpha virt. eigenvalues --    0.12060   0.12751   0.13289   0.14120   0.14983

 Mulliken charges:
               1
     1  C   -0.665551
     2  C    0.689216
     3  C   -0.282315
     4  N    0.628574
     5  C    0.711891
     6  O   -1.331299
     7  C   -0.660930
     8  H    0.231352
     9  H    0.124921
    10  H    0.230774
    11  H   -0.247668
    12  H    0.003490
    13  H    0.284823
    14  H    0.282720
 Sum of Mulliken charges =  -0.00000

 Dipole moment (field-independent basis, Debye):
    X=              3.6431    Y=              1.5769    Z=             -0.0058  Tot=              3.9697

 Test job not archived.
 1\1\GINC-SE232\SP\RHF\Aug-CC-pVDZ\C5H7N1O1\OHZDE\09-Apr-2025\0\\#t hf
 aug-cc-pvdz iop(5/13=1,5/36=2,99/5=2) pseudo=read geom=check guess=(re
 ad,tcheck) scf=(maxcycle=1)\\title\\0,1\C,0,-1.88027004,0.62609219,-0.
 32540168\C,0,-0.46109977,0.26433755,-0.05810991\C,0,0.52464889,1.05577
 599,0.35801115\N,0,1.72867051,0.34753991,0.50040928\C,0,1.5703011,-0.9
 7602507,0.17259161\O,0,2.42721705,-1.82483963,0.20011178\C,0,0.1033289
 ,-1.12099998,-0.22158398\H,0,-2.1524658,0.41933183,-1.36419142\H,0,-2.
 06125011,1.68429355,-0.13320313\H,0,-2.56053516,0.04659255,0.30494528\

 Normal termination of Gaussian 16 at Wed Apr  9 18:36:50 2025.
