 Gaussian 16, Revision C.01,

 ----------------------------------------------------------------------
 #t hf aug-cc-pvdz symm=none int=(grid=ultrafine) guess=(read,tcheck) s
 table=(opt,rrhf)
 ----------------------------------------------------------------------
 -----
 title
 -----
 Symbolic Z-matrix:
 Charge =  0 Multiplicity = 1

 SCF Done:  E(RHF) =  -267.537813570     A.U. after   16 cycles
 Normal termination of Gaussian 16 at Wed Apr  9 03:20:55 2025.
 Gaussian 16:  ES64L-G16RevC.01  3-Jul-2019

 ----------------------------------------------------------------------
 #t hf aug-cc-pvdz iop(5/13=1,5/36=2,99/5=2) pseudo=read geom=check gue
 ss=(read,tcheck) scf=(maxcycle=1)
 ----------------------------------------------------------------------
 -----
 title
 -----
 Structure from the checkpoint file:  "Grambow2020_wb97xd3_006077_forward_mol1.chk"
 Charge =  0 Multiplicity = 1

                         Standard orientation:
 ---------------------------------------------------------------------
 Center     Atomic      Atomic             Coordinates (Angstroms)
 Number     Number       Type             X           Y           Z
 ---------------------------------------------------------------------
      1          8           0       -0.482351   -1.339964   -0.118550
      2          6           0        0.694378   -1.058702    0.307077
      3          6           0        1.474976   -0.106151   -0.314300
      4          6           0        0.338849    1.533166    0.147877
      5          6           0       -0.950712    1.082967    0.046218
      6          6           0       -1.535411   -0.025973   -0.081245
      7          1           0        0.970830   -1.431253    1.299272
      8          1           0        1.330867    0.052874   -1.375134
      9          1           0        2.471634    0.082263    0.068436
     10          1           0        0.698674    1.831089    1.128746
     11          1           0        0.749539    2.130110   -0.660347
     12          1           0       -2.495218   -0.497211   -0.146338
 ---------------------------------------------------------------------

 SCF Done:  E(RHF) =  -267.812348701     A.U. after    2 cycles

 The electronic state is 1-A.
 Alpha  occ. eigenvalues --  -20.56354 -11.32258 -11.30103 -11.28555 -11.25109
 Alpha  occ. eigenvalues --  -11.21764  -1.47604  -1.08697  -1.03609  -0.93430
 Alpha  occ. eigenvalues --   -0.82086  -0.74579  -0.67571  -0.66889  -0.64106
 Alpha  occ. eigenvalues --   -0.61764  -0.59655  -0.55787  -0.47690  -0.43250
 Alpha  occ. eigenvalues --   -0.37260  -0.32317
 Alpha virt. eigenvalues --    0.03152   0.03794   0.04445   0.04636   0.05992
 Alpha virt. eigenvalues --    0.06695   0.07625   0.09464   0.11147   0.11888
 Alpha virt. eigenvalues --    0.12925   0.13618   0.13769   0.14934   0.15443

 Mulliken charges:
               1
     1  O   -1.424524
     2  C    1.239646
     3  C   -0.337573
     4  C   -0.354540
     5  C    0.205762
     6  C    0.539892
     7  H    0.064222
     8  H    0.032258
     9  H    0.009040
    10  H    0.115657
    11  H    0.194913
    12  H   -0.284753
 Sum of Mulliken charges =  -0.00000

 Dipole moment (field-independent basis, Debye):
    X=              2.4235    Y=              0.6644    Z=              0.5630  Tot=              2.5752

 Test job not archived.
 1\1\GINC-SE455\SP\RHF\Aug-CC-pVDZ\C5H6O1\OHZDE\09-Apr-2025\0\\#t hf au
 g-cc-pvdz iop(5/13=1,5/36=2,99/5=2) pseudo=read geom=check guess=(read
 ,tcheck) scf=(maxcycle=1)\\title\\0,1\O,0,0.20030828,-1.25962928,1.060
 85507\C,0,-0.92130414,-0.68509948,0.82240657\C,0,-1.02969072,0.6893108
 7,0.77716943\C,0,0.09478861,1.00456932,-0.9044701\C,0,1.10873269,0.089
 42352,-0.80245558\C,0,1.38483622,-0.90816752,-0.08381379\H,0,-1.733802
 16,-1.3115608,0.4389168\H,0,-0.3464533,1.2710823,1.38227549\H,0,-2.002
 96846,1.13011081,0.5934822\H,0,-0.61578703,0.88913786,-1.71816157\H,0,

 Normal termination of Gaussian 16 at Wed Apr  9 03:20:58 2025.
