 Gaussian 16, Revision C.01,

 ----------------------------------------------------------------------
 #t hf aug-cc-pvdz symm=none int=(grid=ultrafine) guess=(read,tcheck) s
 table=(opt,rrhf)
 ----------------------------------------------------------------------
 -----
 title
 -----
 Symbolic Z-matrix:
 Charge =  0 Multiplicity = 1

 SCF Done:  E(RHF) =  -267.456477501     A.U. after   17 cycles
 Normal termination of Gaussian 16 at Wed Apr  9 15:50:41 2025.
 Gaussian 16:  ES64L-G16RevC.01  3-Jul-2019

 ----------------------------------------------------------------------
 #t hf aug-cc-pvdz iop(5/13=1,5/36=2,99/5=2) pseudo=read geom=check gue
 ss=(read,tcheck) scf=(maxcycle=1)
 ----------------------------------------------------------------------
 -----
 title
 -----
 Structure from the checkpoint file:  "Grambow2020_b97d3_006836_forward_mol1.chk"
 Charge =  0 Multiplicity = 1

                         Standard orientation:
 ---------------------------------------------------------------------
 Center     Atomic      Atomic             Coordinates (Angstroms)
 Number     Number       Type             X           Y           Z
 ---------------------------------------------------------------------
      1          6           0       -2.946815   -0.039032    0.201672
      2          6           0       -1.653876    0.116840   -0.518801
      3          6           0       -0.435748   -0.115485   -0.116439
      4          6           0        0.940459   -0.052589   -0.055503
      5          6           0        2.278060   -0.598661   -0.028227
      6          8           0        1.931654    0.855430    0.144326
      7          1           0       -3.501085    0.912331    0.150484
      8          1           0       -3.578908   -0.770932   -0.326470
      9          1           0       -2.882849   -0.338161    1.264758
     10          1           0       -0.061511   -0.627497    0.950276
     11          1           0        2.798625   -0.819802   -0.963813
     12          1           0        2.680015   -1.065815    0.873945
 ---------------------------------------------------------------------

 SCF Done:  E(RHF) =  -267.728422881     A.U. after    2 cycles

 The electronic state is 1-A.
 Alpha  occ. eigenvalues --  -20.63076 -11.40918 -11.36056 -11.26063 -11.23223
 Alpha  occ. eigenvalues --  -11.22355  -1.56259  -1.09754  -1.00680  -0.97746
 Alpha  occ. eigenvalues --   -0.86726  -0.78340  -0.72979  -0.64792  -0.60001
 Alpha  occ. eigenvalues --   -0.58436  -0.55944  -0.54680  -0.53513  -0.50330
 Alpha  occ. eigenvalues --   -0.37573  -0.29436
 Alpha virt. eigenvalues --    0.02392   0.03482   0.04503   0.05626   0.06158
 Alpha virt. eigenvalues --    0.06741   0.07398   0.09025   0.10681   0.11381
 Alpha virt. eigenvalues --    0.12340   0.12932   0.13421   0.14246   0.15138

 Mulliken charges:
               1
     1  C   -0.616124
     2  C   -1.136200
     3  C    0.794195
     4  C    0.840100
     5  C    0.325719
     6  O   -1.216886
     7  H    0.216472
     8  H    0.251343
     9  H    0.079480
    10  H    0.340259
    11  H    0.086339
    12  H    0.035305
 Sum of Mulliken charges =  -0.00000

 Dipole moment (field-independent basis, Debye):
    X=              3.2076    Y=             -2.4285    Z=              1.9523  Tot=              4.4719

 Test job not archived.
 1\1\GINC-SE219\SP\RHF\Aug-CC-pVDZ\C5H6O1\OHZDE\09-Apr-2025\0\\#t hf au
 g-cc-pvdz iop(5/13=1,5/36=2,99/5=2) pseudo=read geom=check guess=(read
 ,tcheck) scf=(maxcycle=1)\\title\\0,1\C,0,-2.59453818,0.12896903,0.363
 87837\C,0,-1.33340851,-0.65169614,0.24065947\C,0,-0.0937694,-0.2479990
 9,0.23524372\C,0,1.26636614,-0.25048988,0.00799847\C,0,2.65823827,-0.1
 4196715,0.38086508\O,0,2.14746841,-0.30249921,-1.02537008\H,0,-3.25531
 321,-0.12430992,-0.48119712\H,0,-3.14162545,-0.19148167,1.26507876\H,0
 ,-2.48889427,1.22970672,0.39446948\H,0,0.34467109,0.89545138,0.4361941

 Normal termination of Gaussian 16 at Wed Apr  9 15:50:45 2025.
