 Gaussian 16, Revision C.01,

 ----------------------------------------------------------------------
 #t hf aug-cc-pvdz symm=none int=(grid=ultrafine) guess=(read,tcheck) s
 table=(opt,rrhf)
 ----------------------------------------------------------------------
 -----
 title
 -----
 Symbolic Z-matrix:
 Charge =  0 Multiplicity = 1

 SCF Done:  E(RHF) =  -338.756387207     A.U. after   14 cycles
 Normal termination of Gaussian 16 at Wed Apr  9 17:50:30 2025.
 Gaussian 16:  ES64L-G16RevC.01  3-Jul-2019

 ----------------------------------------------------------------------
 #t hf aug-cc-pvdz iop(5/13=1,5/36=2,99/5=2) pseudo=read geom=check gue
 ss=(read,tcheck) scf=(maxcycle=1)
 ----------------------------------------------------------------------
 -----
 title
 -----
 Structure from the checkpoint file:  "Grambow2020_wb97xd3_006841_reverse_mol2.chk"
 Charge =  0 Multiplicity = 1

                         Standard orientation:
 ---------------------------------------------------------------------
 Center     Atomic      Atomic             Coordinates (Angstroms)
 Number     Number       Type             X           Y           Z
 ---------------------------------------------------------------------
      1          7           0       -2.404008   -0.526069    0.051515
      2          6           0       -1.083130   -0.197834    0.003238
      3          6           0       -0.610467    1.233491    0.004253
      4          7           0        0.835802    1.194455   -0.004063
      5          6           0        1.139731   -0.044859   -0.001310
      6          8           0        2.423911   -0.441276   -0.006333
      7          6           0        0.015047   -0.978893    0.002435
      8          1           0       -3.073116    0.173781   -0.212467
      9          1           0       -2.673689   -1.471612   -0.150306
     10          1           0       -0.987328    1.773050   -0.871883
     11          1           0       -0.976833    1.762465    0.890245
     12          1           0        2.461174   -1.399021    0.005035
     13          1           0        0.068855   -2.058596    0.006179
 ---------------------------------------------------------------------

 SCF Done:  E(RHF) =  -339.104573445     A.U. after    2 cycles

 The electronic state is 1-A.
 Alpha  occ. eigenvalues --  -20.58170 -15.53595 -15.45312 -11.33060 -11.30395
 Alpha  occ. eigenvalues --  -11.26390 -11.22458  -1.50545  -1.26719  -1.22319
 Alpha  occ. eigenvalues --   -1.03510  -0.97233  -0.82971  -0.80553  -0.75563
 Alpha  occ. eigenvalues --   -0.71831  -0.68771  -0.64998  -0.61708  -0.57740
 Alpha  occ. eigenvalues --   -0.56000  -0.54110  -0.53752  -0.45088  -0.41697
 Alpha  occ. eigenvalues --   -0.34139
 Alpha virt. eigenvalues --    0.02168   0.03392   0.04485   0.05643   0.05845
 Alpha virt. eigenvalues --    0.07307   0.08957   0.10791   0.10989   0.12106
 Alpha virt. eigenvalues --    0.12793   0.13272   0.13740   0.14427   0.16097

 Mulliken charges:
               1
     1  N    0.795000
     2  C   -1.244138
     3  C   -0.280845
     4  N    0.965480
     5  C    0.068643
     6  O   -1.534502
     7  C    0.773356
     8  H    0.000945
     9  H    0.031919
    10  H    0.158098
    11  H    0.175660
    12  H    0.310526
    13  H   -0.220140
 Sum of Mulliken charges =  -0.00000

 Dipole moment (field-independent basis, Debye):
    X=             -4.1534    Y=             -3.7716    Z=             -0.6712  Tot=              5.6503

 Test job not archived.
 1\1\GINC-SE041\SP\RHF\Aug-CC-pVDZ\C4H6N2O1\OHZDE\09-Apr-2025\0\\#t hf
 aug-cc-pvdz iop(5/13=1,5/36=2,99/5=2) pseudo=read geom=check guess=(re
 ad,tcheck) scf=(maxcycle=1)\\title\\0,1\N,0,-1.97454847,0.4601735,-0.5
 1648867\C,0,-0.69521291,0.12710934,-0.18914082\C,0,-0.20002741,-1.2959
 923,-0.23007777\N,0,1.20132871,-1.2597623,0.12793934\C,0,1.46593166,-0
 .02798722,0.33040987\O,0,2.70169681,0.36401045,0.68468731\C,0,0.351275
 68,0.90209988,0.15769822\H,0,-2.6694202,-0.26366032,-0.49651107\H,0,-2
 .30817387,1.37815143,-0.28513896\H,0,-0.7607227,-1.92804764,0.46769574

 Normal termination of Gaussian 16 at Wed Apr  9 17:50:35 2025.
