 Gaussian 16, Revision C.01,

 ----------------------------------------------------------------------
 #t hf aug-cc-pvdz symm=none int=(grid=ultrafine) guess=(read,tcheck) s
 table=(opt,rrhf)
 ----------------------------------------------------------------------
 -----
 title
 -----
 Symbolic Z-matrix:
 Charge =  0 Multiplicity = 1

 SCF Done:  E(RHF) =  -339.866835201     A.U. after   14 cycles
 Normal termination of Gaussian 16 at Wed Apr  9 03:33:24 2025.
 Gaussian 16:  ES64L-G16RevC.01  3-Jul-2019

 ----------------------------------------------------------------------
 #t hf aug-cc-pvdz iop(5/13=1,5/36=2,99/5=2) pseudo=read geom=check gue
 ss=(read,tcheck) scf=(maxcycle=1)
 ----------------------------------------------------------------------
 -----
 title
 -----
 Structure from the checkpoint file:  "Grambow2020_wb97xd3_007004_reverse_mol2.chk"
 Charge =  0 Multiplicity = 1

                         Standard orientation:
 ---------------------------------------------------------------------
 Center     Atomic      Atomic             Coordinates (Angstroms)
 Number     Number       Type             X           Y           Z
 ---------------------------------------------------------------------
      1          6           0       -1.974775   -0.400492    0.963981
      2          6           0       -0.963612    0.043398   -0.049867
      3          8           0       -1.243568    1.342391   -0.461400
      4          6           0        1.788716   -0.613702    0.076560
      5          7           0        2.298474    0.724234    0.347470
      6          6           0        0.342805   -0.520877   -0.239054
      7          7           0       -0.492357   -0.920370   -1.092286
      8          1           0       -2.977273   -0.315132    0.540899
      9          1           0       -1.927822    0.229989    1.853321
     10          1           0       -1.799963   -1.436291    1.250563
     11          1           0       -0.537212    1.648932   -1.035236
     12          1           0        2.303522   -1.030926   -0.791481
     13          1           0        1.910382   -1.325330    0.906500
     14          1           0        3.298648    0.706361    0.487037
     15          1           0        1.876648    1.106265    1.183588
 ---------------------------------------------------------------------

 SCF Done:  E(RHF) =  -340.222453168     A.U. after    2 cycles

 The electronic state is 1-A.
 Alpha  occ. eigenvalues --  -20.55324 -15.51675 -15.51144 -11.33201 -11.29638
 Alpha  occ. eigenvalues --  -11.29203 -11.22990  -1.47341  -1.31512  -1.20920
 Alpha  occ. eigenvalues --   -1.00691  -0.97770  -0.82042  -0.77322  -0.72582
 Alpha  occ. eigenvalues --   -0.70239  -0.68452  -0.63426  -0.61475  -0.59570
 Alpha  occ. eigenvalues --   -0.58616  -0.55148  -0.53376  -0.51145  -0.46864
 Alpha  occ. eigenvalues --   -0.44554  -0.38926
 Alpha virt. eigenvalues --    0.02585   0.04138   0.04524   0.04994   0.05800
 Alpha virt. eigenvalues --    0.05873   0.06709   0.07834   0.10316   0.10530
 Alpha virt. eigenvalues --    0.11735   0.12165   0.13439   0.14063   0.14920

 Mulliken charges:
               1
     1  C   -0.306271
     2  C    0.608291
     3  O   -1.578197
     4  C   -0.631879
     5  N    0.195230
     6  C   -0.597176
     7  N    0.724523
     8  H    0.212628
     9  H    0.243739
    10  H    0.177970
    11  H    0.351613
    12  H    0.135733
    13  H    0.189122
    14  H    0.150811
    15  H    0.123864
 Sum of Mulliken charges =  -0.00000

 Dipole moment (field-independent basis, Debye):
    X=              3.2934    Y=             -0.1475    Z=              3.0594  Tot=              4.4975

 Test job not archived.
 1\1\GINC-SE453\SP\RHF\Aug-CC-pVDZ\C4H8N2O1\OHZDE\09-Apr-2025\0\\#t hf
 aug-cc-pvdz iop(5/13=1,5/36=2,99/5=2) pseudo=read geom=check guess=(re
 ad,tcheck) scf=(maxcycle=1)\\title\\0,1\C,0,1.07439575,1.97169798,-0.1
 095654\C,0,0.76104442,0.66094124,0.54702038\O,0,0.36078136,0.87320779,
 1.8622582\C,0,-0.52029852,-1.49506669,-0.7693617\N,0,-1.77457169,-1.46
 087448,-0.02845002\C,0,0.44005796,-0.56408504,-0.12914568\N,0,1.631038
 85,-0.52561531,0.27727775\H,0,1.83775275,2.49584422,0.46822705\H,0,0.1
 8543473,2.60331229,-0.14760895\H,0,1.44433089,1.81398757,-1.12141714\H

 Normal termination of Gaussian 16 at Wed Apr  9 03:33:28 2025.
