 Gaussian 16, Revision C.01,

 ----------------------------------------------------------------------
 #t hf aug-cc-pvdz symm=none int=(grid=ultrafine) guess=(read,tcheck) s
 table=(opt,rrhf)
 ----------------------------------------------------------------------
 -----
 title
 -----
 Symbolic Z-matrix:
 Charge =  0 Multiplicity = 1

 SCF Done:  E(RHF) =  -245.618300321     A.U. after   18 cycles
 Normal termination of Gaussian 16 at Wed Apr  9 16:23:39 2025.
 Gaussian 16:  ES64L-G16RevC.01  3-Jul-2019

 ----------------------------------------------------------------------
 #t hf aug-cc-pvdz iop(5/13=1,5/36=2,99/5=2) pseudo=read geom=check gue
 ss=(read,tcheck) scf=(maxcycle=1)
 ----------------------------------------------------------------------
 -----
 title
 -----
 Structure from the checkpoint file:  "Grambow2020_b97d3_007206_forward_mol1.chk"
 Charge =  0 Multiplicity = 1

                         Standard orientation:
 ---------------------------------------------------------------------
 Center     Atomic      Atomic             Coordinates (Angstroms)
 Number     Number       Type             X           Y           Z
 ---------------------------------------------------------------------
      1          8           0       -1.885774   -0.488144   -0.233621
      2          6           0       -1.049330    0.118283    0.362654
      3          6           0        0.638338    0.013862    0.494356
      4          6           0        1.409713   -0.943324   -0.175689
      5          7           0        0.736265    1.266632   -0.267063
      6          1           0       -0.808544    1.339973    0.265272
      7          1           0        0.884046    0.167859    1.548958
      8          1           0        2.157987   -1.562355    0.321286
      9          1           0        1.257660   -1.109515   -1.242466
     10          1           0        0.448864    1.069837   -1.242570
 ---------------------------------------------------------------------

 SCF Done:  E(RHF) =  -245.861210042     A.U. after    2 cycles

 The electronic state is 1-A.
 Alpha  occ. eigenvalues --  -20.57387 -15.52034 -11.36254 -11.34467 -11.30426
 Alpha  occ. eigenvalues --   -1.50389  -1.20284  -1.01830  -0.88135  -0.79463
 Alpha  occ. eigenvalues --   -0.70651  -0.68404  -0.64186  -0.62256  -0.58653
 Alpha  occ. eigenvalues --   -0.54566  -0.48719  -0.38508  -0.36968
 Alpha virt. eigenvalues --   -0.01659   0.02897   0.03972   0.04718   0.06542
 Alpha virt. eigenvalues --    0.06947   0.08693   0.10429   0.11162   0.12593
 Alpha virt. eigenvalues --    0.12831   0.14055   0.14127   0.15598   0.16144

 Mulliken charges:
               1
     1  O   -0.992436
     2  C    0.830320
     3  C   -0.398266
     4  C    0.079765
     5  N   -0.050251
     6  H    0.393770
     7  H   -0.019176
     8  H    0.035624
     9  H    0.009545
    10  H    0.111104
 Sum of Mulliken charges =   0.00000

 Dipole moment (field-independent basis, Debye):
    X=              2.2347    Y=             -3.2879    Z=              0.3782  Tot=              3.9934

 Test job not archived.
 1\1\GINC-SE087\SP\RHF\Aug-CC-pVDZ\C3H5N1O1\OHZDE\09-Apr-2025\0\\#t hf
 aug-cc-pvdz iop(5/13=1,5/36=2,99/5=2) pseudo=read geom=check guess=(re
 ad,tcheck) scf=(maxcycle=1)\\title\\0,1\O,0,1.34759348,-1.13260092,1.4
 97318\C,0,1.29861621,-0.45827571,0.51455564\C,0,0.07186832,-0.00553219
 ,-0.56552956\C,0,-1.25950039,-0.42124458,-0.44376746\N,0,0.15566258,1.
 35920036,-0.02769646\H,0,1.60332072,0.74993351,0.42867527\H,0,0.497459
 7,-0.06467664,-1.5713362\H,0,-1.82849592,-0.85322114,-1.26822961\H,0,-
 1.76594034,-0.33751546,0.51813749\H,0,-0.21722636,1.34428275,0.9385708

 Normal termination of Gaussian 16 at Wed Apr  9 16:23:42 2025.
