 Gaussian 16, Revision C.01,

 ----------------------------------------------------------------------
 #t hf aug-cc-pvdz symm=none int=(grid=ultrafine) guess=(read,tcheck) s
 table=(opt,rrhf)
 ----------------------------------------------------------------------
 -----
 title
 -----
 Symbolic Z-matrix:
 Charge =  0 Multiplicity = 1

 SCF Done:  E(RHF) =  -302.750915466     A.U. after   15 cycles
 Normal termination of Gaussian 16 at Wed Apr  9 19:20:07 2025.
 Gaussian 16:  ES64L-G16RevC.01  3-Jul-2019

 ----------------------------------------------------------------------
 #t hf aug-cc-pvdz iop(5/13=1,5/36=2,99/5=2) pseudo=read geom=check gue
 ss=(read,tcheck) scf=(maxcycle=1)
 ----------------------------------------------------------------------
 -----
 title
 -----
 Structure from the checkpoint file:  "Grambow2020_wb97xd3_009342_forward_mol1.chk"
 Charge =  0 Multiplicity = 1

                         Standard orientation:
 ---------------------------------------------------------------------
 Center     Atomic      Atomic             Coordinates (Angstroms)
 Number     Number       Type             X           Y           Z
 ---------------------------------------------------------------------
      1          6           0        2.123453   -0.456888    0.114700
      2          7           0        0.832678    0.091395   -0.209293
      3          6           0       -0.283257   -0.589632   -0.675419
      4          6           0       -1.433993    0.242840   -0.617640
      5          6           0       -1.321965   -1.254223    0.580122
      6          6           0       -0.837275    1.362515    0.112387
      7          7           0        0.448581    1.264458    0.313075
      8          1           0        2.137336   -0.905686    1.113760
      9          1           0        2.866224    0.337269    0.077099
     10          1           0        2.382030   -1.220500   -0.618884
     11          1           0       -0.116544   -1.434348   -1.331402
     12          1           0       -2.103684   -0.725407    1.112176
     13          1           0       -0.529084   -1.496757    1.291521
     14          1           0       -1.745027   -2.140627    0.123008
     15          1           0       -1.341842    2.267404    0.421348
 ---------------------------------------------------------------------

 SCF Done:  E(RHF) =  -303.066321467     A.U. after    2 cycles

 The electronic state is 1-A.
 Alpha  occ. eigenvalues --  -15.55856 -15.54986 -11.29941 -11.28414 -11.28093
 Alpha  occ. eigenvalues --  -11.25355 -11.22599  -1.38180  -1.14437  -1.10861
 Alpha  occ. eigenvalues --   -0.96839  -0.93588  -0.83823  -0.78993  -0.73276
 Alpha  occ. eigenvalues --   -0.68868  -0.64251  -0.60059  -0.59642  -0.58540
 Alpha  occ. eigenvalues --   -0.56931  -0.56094  -0.50712  -0.44300  -0.37714
 Alpha  occ. eigenvalues --   -0.35378
 Alpha virt. eigenvalues --    0.02960   0.03854   0.04001   0.04893   0.05374
 Alpha virt. eigenvalues --    0.05966   0.06773   0.07273   0.08632   0.10136
 Alpha virt. eigenvalues --    0.11211   0.12453   0.13191   0.13561   0.14050

 Mulliken charges:
               1
     1  C   -0.144359
     2  N    0.606413
     3  C   -0.895308
     4  C   -0.184943
     5  C   -0.148880
     6  C   -0.224367
     7  N    0.247858
     8  H    0.175320
     9  H    0.089133
    10  H    0.134743
    11  H   -0.106180
    12  H    0.195278
    13  H    0.211758
    14  H    0.138571
    15  H   -0.095036
 Sum of Mulliken charges =  -0.00000

 Dipole moment (field-independent basis, Debye):
    X=              1.4977    Y=             -3.0694    Z=              1.0884  Tot=              3.5845

 Test job not archived.
 1\1\GINC-SE048\SP\RHF\Aug-CC-pVDZ\C5H8N2\OHZDE\09-Apr-2025\0\\#t hf au
 g-cc-pvdz iop(5/13=1,5/36=2,99/5=2) pseudo=read geom=check guess=(read
 ,tcheck) scf=(maxcycle=1)\\title\\0,1\C,0,-1.9351852,-0.43590679,-0.63
 452525\N,0,-0.90437178,0.08630555,0.22361517\C,0,0.23180547,-0.5692680
 8,0.67716517\C,0,1.13422767,0.3536484,1.27248122\C,0,1.62359763,-0.464
 50407,-0.39470948\C,0,0.43589668,1.58608604,0.90354434\N,0,-0.72361241
 ,1.41004286,0.33094909\H,0,-1.64596182,-0.3972943,-1.69026774\H,0,-2.8
 4163132,0.15020151,-0.49799912\H,0,-2.13709813,-1.47167774,-0.36153691

 Normal termination of Gaussian 16 at Wed Apr  9 19:20:13 2025.
