 Gaussian 16, Revision C.01,

 ----------------------------------------------------------------------
 #t hf aug-cc-pvdz symm=none int=(grid=ultrafine) guess=(read,tcheck) s
 table=(opt,rrhf)
 ----------------------------------------------------------------------
 -----
 title
 -----
 Symbolic Z-matrix:
 Charge =  0 Multiplicity = 1

 SCF Done:  E(RHF) =  -324.890476797     A.U. after   18 cycles
 Normal termination of Gaussian 16 at Wed Apr  9 03:53:09 2025.
 Gaussian 16:  ES64L-G16RevC.01  3-Jul-2019

 ----------------------------------------------------------------------
 #t hf aug-cc-pvdz iop(5/13=1,5/36=2,99/5=2) pseudo=read geom=check gue
 ss=(read,tcheck) scf=(maxcycle=1)
 ----------------------------------------------------------------------
 -----
 title
 -----
 Structure from the checkpoint file:  "Grambow2020_wb97xd3_008238_reverse_mol1.chk"
 Charge =  0 Multiplicity = 1

                         Standard orientation:
 ---------------------------------------------------------------------
 Center     Atomic      Atomic             Coordinates (Angstroms)
 Number     Number       Type             X           Y           Z
 ---------------------------------------------------------------------
      1          6           0        2.566433    0.439062    0.087766
      2          6           0        1.518140   -0.626132   -0.214573
      3          6           0        0.337630   -0.612888    0.738151
      4          7           0       -2.039756   -0.082399    0.891773
      5          6           0       -1.095912   -0.164497   -0.067212
      6          8           0       -1.204437   -0.793225   -1.145987
      7          6           0       -0.751111    1.431106   -0.385665
      8          1           0        3.392914    0.380587   -0.622123
      9          1           0        2.152620    1.447880    0.027897
     10          1           0        2.982801    0.313628    1.089976
     11          1           0        1.144098   -0.540356   -1.237689
     12          1           0        1.979171   -1.615786   -0.165580
     13          1           0        0.073169   -1.604117    1.093061
     14          1           0        0.475392    0.055636    1.586370
     15          1           0       -1.675104    0.493021    1.648523
     16          1           0        0.067437    1.375277   -1.095033
     17          1           0       -0.486756    1.989314    0.507459
     18          1           0       -1.643036    1.827611   -0.858188
 ---------------------------------------------------------------------

 SCF Done:  E(RHF) =  -325.229653180     A.U. after    2 cycles

 The electronic state is 1-A.
 Alpha  occ. eigenvalues --  -20.45784 -15.57426 -11.33072 -11.29900 -11.29788
 Alpha  occ. eigenvalues --  -11.24392 -11.24023  -1.40689  -1.22445  -1.08643
 Alpha  occ. eigenvalues --   -0.99126  -0.95607  -0.83657  -0.80021  -0.69993
 Alpha  occ. eigenvalues --   -0.65761  -0.64264  -0.63900  -0.60419  -0.59653
 Alpha  occ. eigenvalues --   -0.57692  -0.55155  -0.53935  -0.51357  -0.49867
 Alpha  occ. eigenvalues --   -0.47317  -0.37743  -0.35499
 Alpha virt. eigenvalues --   -0.04968   0.02427   0.03310   0.03699   0.04452
 Alpha virt. eigenvalues --    0.05488   0.05895   0.06326   0.07009   0.08638
 Alpha virt. eigenvalues --    0.09170   0.09411   0.11567   0.13083   0.13622

 Mulliken charges:
               1
     1  C   -0.286264
     2  C   -0.144908
     3  C    0.014317
     4  N    1.042672
     5  C   -0.748437
     6  O   -1.527279
     7  C   -0.024252
     8  H    0.105448
     9  H    0.133656
    10  H    0.156618
    11  H    0.201146
    12  H    0.071961
    13  H    0.136257
    14  H    0.050368
    15  H    0.317449
    16  H    0.281346
    17  H    0.106967
    18  H    0.112934
 Sum of Mulliken charges =   0.00000

 Dipole moment (field-independent basis, Debye):
    X=              3.9430    Y=              3.2034    Z=              2.8471  Tot=              5.8237

 Test job not archived.
 1\1\GINC-SE132\SP\RHF\Aug-CC-pVDZ\C5H11N1O1\OHZDE\09-Apr-2025\0\\#t hf
  aug-cc-pvdz iop(5/13=1,5/36=2,99/5=2) pseudo=read geom=check guess=(r
 ead,tcheck) scf=(maxcycle=1)\\title\\0,1\C,0,-1.81257512,-0.17309403,-
 1.00679814\C,0,-1.091419,0.84473458,-0.12991461\C,0,-0.37813529,0.2324
 936,1.06081998\N,0,1.8331328,-0.26604641,1.96565888\C,0,1.31155616,0.4
 0413583,0.91873589\O,0,1.60375362,1.5759677,0.58368013\C,0,1.59152061,
 -0.62535926,-0.35719928\H,0,-2.31133477,0.32078108,-1.8421168\H,0,-1.1
 2535403,-0.91176493,-1.42468875\H,0,-2.57418351,-0.71551566,-0.4417747

 Normal termination of Gaussian 16 at Wed Apr  9 03:53:16 2025.
