 Gaussian 16, Revision C.01,

 ----------------------------------------------------------------------
 #t hf aug-cc-pvdz symm=none int=(grid=ultrafine) guess=(read,tcheck) s
 table=(opt,rrhf)
 ----------------------------------------------------------------------
 -----
 title
 -----
 Symbolic Z-matrix:
 Charge =  0 Multiplicity = 1

 SCF Done:  E(RHF) =  -301.548405355     A.U. after   16 cycles
 Normal termination of Gaussian 16 at Wed Apr  9 18:38:34 2025.
 Gaussian 16:  ES64L-G16RevC.01  3-Jul-2019

 ----------------------------------------------------------------------
 #t hf aug-cc-pvdz iop(5/13=1,5/36=2,99/5=2) pseudo=read geom=check gue
 ss=(read,tcheck) scf=(maxcycle=1)
 ----------------------------------------------------------------------
 -----
 title
 -----
 Structure from the checkpoint file:  "Grambow2020_wb97xd3_007932_reverse_mol1.chk"
 Charge =  0 Multiplicity = 1

                         Standard orientation:
 ---------------------------------------------------------------------
 Center     Atomic      Atomic             Coordinates (Angstroms)
 Number     Number       Type             X           Y           Z
 ---------------------------------------------------------------------
      1          6           0       -1.723671    0.363902   -0.057919
      2          6           0       -1.090292   -0.885061    0.529172
      3          6           0       -0.041243   -0.756724   -0.402948
      4          7           0        1.287742   -0.981324   -0.236548
      5          6           0        1.680688    0.206462    0.162604
      6          6           0        0.573789    1.116034    0.289198
      7          7           0       -0.374879    0.608045   -0.640307
      8          1           0       -2.057402    1.143066    0.623433
      9          1           0       -2.457654    0.202390   -0.845629
     10          1           0       -0.164748    0.156958    1.266484
     11          1           0       -1.495380   -1.738826    1.056457
     12          1           0        2.701916    0.398781    0.467787
     13          1           0        0.687602    2.182906    0.448808
 ---------------------------------------------------------------------

 SCF Done:  E(RHF) =  -301.863049381     A.U. after    2 cycles

 The electronic state is 1-A.
 Alpha  occ. eigenvalues --  -15.52747 -15.50904 -11.31303 -11.29959 -11.28826
 Alpha  occ. eigenvalues --  -11.28579 -11.27212  -1.37344  -1.22879  -1.06219
 Alpha  occ. eigenvalues --   -0.95272  -0.92365  -0.82963  -0.75438  -0.72886
 Alpha  occ. eigenvalues --   -0.71094  -0.64664  -0.60913  -0.58002  -0.55439
 Alpha  occ. eigenvalues --   -0.52272  -0.49844  -0.46284  -0.41186  -0.34837
 Alpha virt. eigenvalues --    0.03398   0.03896   0.04061   0.04706   0.05461
 Alpha virt. eigenvalues --    0.06428   0.07690   0.08786   0.09469   0.10078
 Alpha virt. eigenvalues --    0.11518   0.12685   0.13152   0.13916   0.14170

 Mulliken charges:
               1
     1  C   -0.046606
     2  C    0.311442
     3  C   -1.748311
     4  N    0.869935
     5  C    0.020012
     6  C   -0.489072
     7  N    0.614956
     8  H    0.006459
     9  H   -0.029808
    10  H    0.831452
    11  H   -0.105707
    12  H   -0.044623
    13  H   -0.190128
 Sum of Mulliken charges =  -0.00000

 Dipole moment (field-independent basis, Debye):
    X=             -1.4715    Y=              1.9382    Z=              1.9101  Tot=              3.0936

 Test job not archived.
 1\1\GINC-SE117\SP\RHF\Aug-CC-pVDZ\C5H6N2\OHZDE\09-Apr-2025\0\\#t hf au
 g-cc-pvdz iop(5/13=1,5/36=2,99/5=2) pseudo=read geom=check guess=(read
 ,tcheck) scf=(maxcycle=1)\\title\\0,1\C,0,-1.41085223,-0.61144915,0.25
 398515\C,0,-1.0896382,0.87060399,0.17592065\C,0,0.10324388,0.62024696,
 0.88315171\N,0,1.33426288,1.1675703,0.7117888\C,0,1.84292861,0.3360435
 3,-0.16820361\C,0,0.89068264,-0.66768427,-0.56105223\N,0,0.03587203,-0
 .76833755,0.57083655\H,0,-1.72099502,-1.12145421,-0.65509145\H,0,-2.02
 396127,-0.92373251,1.09771645\H,0,-0.14051912,0.412605,-0.99688438\H,0

 Normal termination of Gaussian 16 at Wed Apr  9 18:38:38 2025.
