 Gaussian 16, Revision C.01,

 ----------------------------------------------------------------------
 #t hf aug-cc-pvdz symm=none int=(grid=ultrafine) guess=(read,tcheck) s
 table=(opt,rrhf)
 ----------------------------------------------------------------------
 -----
 title
 -----
 Symbolic Z-matrix:
 Charge =  0 Multiplicity = 1

 SCF Done:  E(RHF) =  -224.687428413     A.U. after   16 cycles
 Normal termination of Gaussian 16 at Wed Apr  9 15:55:35 2025.
 Gaussian 16:  ES64L-G16RevC.01  3-Jul-2019

 ----------------------------------------------------------------------
 #t hf aug-cc-pvdz iop(5/13=1,5/36=2,99/5=2) pseudo=read geom=check gue
 ss=(read,tcheck) scf=(maxcycle=1)
 ----------------------------------------------------------------------
 -----
 title
 -----
 Structure from the checkpoint file:  "Grambow2020_b97d3_006882_reverse_mol1.chk"
 Charge =  0 Multiplicity = 1

                         Standard orientation:
 ---------------------------------------------------------------------
 Center     Atomic      Atomic             Coordinates (Angstroms)
 Number     Number       Type             X           Y           Z
 ---------------------------------------------------------------------
      1          7           0       -0.624904    0.901078    0.039920
      2          6           0        0.734362    0.877708    0.010241
      3          6           0        1.143129   -0.445289    0.014920
      4          6           0       -0.023709   -1.278129   -0.082967
      5          7           0       -1.125478   -0.394218   -0.093999
      6          1           0       -1.236966    1.705166   -0.071462
      7          1           0        1.295030    1.806940   -0.034092
      8          1           0        2.172192   -0.786869    0.044258
      9          1           0       -1.100277   -1.198997    0.786685
 ---------------------------------------------------------------------

 SCF Done:  E(RHF) =  -224.916204154     A.U. after    2 cycles

 The electronic state is 1-A.
 Alpha  occ. eigenvalues --  -15.58899 -15.57542 -11.31932 -11.25536 -11.23259
 Alpha  occ. eigenvalues --   -1.37089  -1.15114  -1.06094  -0.85728  -0.82868
 Alpha  occ. eigenvalues --   -0.78832  -0.68032  -0.62483  -0.61639  -0.53140
 Alpha  occ. eigenvalues --   -0.47933  -0.37861  -0.37209
 Alpha virt. eigenvalues --    0.02449   0.04341   0.04799   0.05837   0.07919
 Alpha virt. eigenvalues --    0.09416   0.10484   0.11357   0.12520   0.12875
 Alpha virt. eigenvalues --    0.13760   0.15447   0.15815   0.16133   0.17118

 Mulliken charges:
               1
     1  N    0.508404
     2  C   -0.289152
     3  C    0.561445
     4  C   -0.873239
     5  N   -0.202298
     6  H    0.033489
     7  H   -0.139190
     8  H   -0.038354
     9  H    0.438895
 Sum of Mulliken charges =  -0.00000

 Dipole moment (field-independent basis, Debye):
    X=              1.0344    Y=              4.2639    Z=              0.9660  Tot=              4.4927

 Test job not archived.
 1\1\GINC-SE092\SP\RHF\Aug-CC-pVDZ\C3H4N2\OHZDE\09-Apr-2025\0\\#t hf au
 g-cc-pvdz iop(5/13=1,5/36=2,99/5=2) pseudo=read geom=check guess=(read
 ,tcheck) scf=(maxcycle=1)\\title\\0,1\N,0,-0.86077397,-0.65565595,0.07
 789819\C,0,-0.66373201,0.68912264,0.03576053\C,0,0.69051474,0.92136971
 ,-0.13601886\C,0,1.34336546,-0.34326579,-0.33400402\N,0,0.32904667,-1.
 31986544,-0.22118956\H,0,-1.74567523,-1.15618769,0.07728611\H,0,-1.509
 29337,1.36687226,0.10970342\H,0,1.16475994,1.89659779,-0.15904077\H,0,
 1.23853276,-1.40906153,0.54613597\\Version=ES64L-G16RevC.01\State=1-A\

 Normal termination of Gaussian 16 at Wed Apr  9 15:55:38 2025.
