 Gaussian 16, Revision C.01,

 ----------------------------------------------------------------------
 #t hf aug-cc-pvdz symm=none int=(grid=ultrafine) guess=(read,tcheck) s
 table=(opt,rrhf)
 ----------------------------------------------------------------------
 -----
 title
 -----
 Symbolic Z-matrix:
 Charge =  0 Multiplicity = 1

 SCF Done:  E(RHF) =  -301.923253584     A.U. after   15 cycles
 Normal termination of Gaussian 16 at Wed Apr  9 03:15:01 2025.
 Gaussian 16:  ES64L-G16RevC.01  3-Jul-2019

 ----------------------------------------------------------------------
 #t hf aug-cc-pvdz iop(5/13=1,5/36=2,99/5=2) pseudo=read geom=check gue
 ss=(read,tcheck) scf=(maxcycle=1)
 ----------------------------------------------------------------------
 -----
 title
 -----
 Structure from the checkpoint file:  "Grambow2020_b97d3_006944_forward_mol1.chk"
 Charge =  0 Multiplicity = 1

                         Standard orientation:
 ---------------------------------------------------------------------
 Center     Atomic      Atomic             Coordinates (Angstroms)
 Number     Number       Type             X           Y           Z
 ---------------------------------------------------------------------
      1          6           0       -2.499262   -0.027058   -0.037363
      2          7           0       -1.169578   -0.625480   -0.071033
      3          6           0       -0.039865    0.147093    0.018592
      4          8           0       -0.010413    1.364937    0.036983
      5          7           0        1.183687   -0.647373    0.123378
      6          6           0        2.735677   -0.008875   -0.039248
      7          1           0       -2.900877    0.032770    0.986226
      8          1           0       -3.183017   -0.616592   -0.660687
      9          1           0       -2.420396    0.986232   -0.441362
     10          1           0       -1.097557   -1.617861    0.125744
     11          1           0        1.138037   -1.583268   -0.283642
     12          1           0        1.787911   -0.699728    1.022933
     13          1           0        2.989578   -0.239523   -1.086978
     14          1           0        2.491567    1.061479    0.023600
 ---------------------------------------------------------------------

 SCF Done:  E(RHF) =  -302.234603825     A.U. after    2 cycles

 The electronic state is 1-A.
 Alpha  occ. eigenvalues --  -20.53930 -15.57895 -15.55863 -11.41958 -11.29281
 Alpha  occ. eigenvalues --  -11.21548  -1.48873  -1.28566  -1.23128  -0.99769
 Alpha  occ. eigenvalues --   -0.88923  -0.84224  -0.80837  -0.75185  -0.69422
 Alpha  occ. eigenvalues --   -0.65904  -0.64815  -0.58533  -0.57809  -0.52541
 Alpha  occ. eigenvalues --   -0.50567  -0.47332  -0.44611  -0.31471
 Alpha virt. eigenvalues --    0.01679   0.03706   0.04385   0.05007   0.05880
 Alpha virt. eigenvalues --    0.06430   0.06904   0.08489   0.09445   0.11687
 Alpha virt. eigenvalues --    0.12174   0.12710   0.13473   0.14706   0.15688

 Mulliken charges:
               1
     1  C   -0.367444
     2  N    0.525044
     3  C    0.108816
     4  O   -1.160381
     5  N    0.127520
     6  C   -0.493287
     7  H    0.169047
     8  H    0.113152
     9  H    0.123473
    10  H    0.104380
    11  H    0.125487
    12  H    0.550988
    13  H    0.063649
    14  H    0.009557
 Sum of Mulliken charges =  -0.00000

 Dipole moment (field-independent basis, Debye):
    X=             -4.7577    Y=             -3.9232    Z=             -0.2454  Tot=              6.1715

 Test job not archived.
 1\1\GINC-SE435\SP\RHF\Aug-CC-pVDZ\C3H8N2O1\OHZDE\09-Apr-2025\0\\#t hf
 aug-cc-pvdz iop(5/13=1,5/36=2,99/5=2) pseudo=read geom=check guess=(re
 ad,tcheck) scf=(maxcycle=1)\\title\\0,1\C,0,-2.40404234,0.30398087,0.2
 3842556\N,0,-1.05323594,-0.16025547,0.5335705\C,0,0.00897738,0.1933832
 ,-0.25876439\O,0,-0.05862751,0.82100671,-1.30081444\N,0,1.29403736,-0.
 24047501,0.2886145\C,0,2.74126917,-0.21311823,-0.57600682\H,0,-2.63689
 369,1.25203934,0.74790847\H,0,-3.12977478,-0.45953279,0.54496246\H,0,-
 2.47521834,0.46123673,-0.84157255\H,0,-0.86920535,-0.49974624,1.471444

 Normal termination of Gaussian 16 at Wed Apr  9 03:15:05 2025.
