 Gaussian 16, Revision C.01,

 ----------------------------------------------------------------------
 #t hf aug-cc-pvdz symm=none int=(grid=ultrafine) guess=(read,tcheck) s
 table=(opt,rrhf)
 ----------------------------------------------------------------------
 -----
 title
 -----
 Symbolic Z-matrix:
 Charge =  0 Multiplicity = 1

 SCF Done:  E(RHF) =  -358.342886517     A.U. after   18 cycles
 Normal termination of Gaussian 16 at Wed Apr  9 03:40:16 2025.
 Gaussian 16:  ES64L-G16RevC.01  3-Jul-2019

 ----------------------------------------------------------------------
 #t hf aug-cc-pvdz iop(5/13=1,5/36=2,99/5=2) pseudo=read geom=check gue
 ss=(read,tcheck) scf=(maxcycle=1)
 ----------------------------------------------------------------------
 -----
 title
 -----
 Structure from the checkpoint file:  "Grambow2020_wb97xd3_007447_forward_mol1.chk"
 Charge =  0 Multiplicity = 1

                         Standard orientation:
 ---------------------------------------------------------------------
 Center     Atomic      Atomic             Coordinates (Angstroms)
 Number     Number       Type             X           Y           Z
 ---------------------------------------------------------------------
      1          8           0        2.499089    0.152294   -0.646197
      2          6           0        1.768759   -0.021948    0.543156
      3          6           0        0.330497   -0.276754    0.318330
      4          7           0       -0.491065   -1.106496    0.071724
      5          8           0       -1.662283   -1.248349   -0.194204
      6          6           0       -2.097006    0.985925   -0.143397
      7          6           0       -1.001677    1.439993    0.139444
      8          1           0        2.080749    0.835973   -1.174356
      9          1           0        2.200190   -0.883478    1.054077
     10          1           0        1.865003    0.842417    1.209325
     11          1           0       -3.103953    0.742781   -0.387840
     12          1           0       -0.302424    2.212922    0.374739
 ---------------------------------------------------------------------

 SCF Done:  E(RHF) =  -358.700194812     A.U. after    2 cycles

 The electronic state is 1-A.
 Alpha  occ. eigenvalues --  -20.58397 -20.57101 -15.64175 -11.34999 -11.32128
 Alpha  occ. eigenvalues --  -11.27506 -11.25219  -1.56537  -1.49027  -1.22708
 Alpha  occ. eigenvalues --   -1.04632  -1.01305  -0.78910  -0.78635  -0.74044
 Alpha  occ. eigenvalues --   -0.71814  -0.69344  -0.69165  -0.66444  -0.64177
 Alpha  occ. eigenvalues --   -0.56879  -0.49265  -0.42608  -0.42177  -0.39463
 Alpha  occ. eigenvalues --   -0.38601
 Alpha virt. eigenvalues --    0.02853   0.03650   0.04120   0.04720   0.05827
 Alpha virt. eigenvalues --    0.07622   0.08320   0.10359   0.11177   0.11978
 Alpha virt. eigenvalues --    0.12517   0.12996   0.13245   0.13942   0.14909

 Mulliken charges:
               1
     1  O   -1.059034
     2  C    0.886817
     3  C   -0.858986
     4  N    1.625725
     5  O   -1.300220
     6  C    0.205894
     7  C    0.364032
     8  H    0.330011
     9  H    0.125371
    10  H    0.141829
    11  H   -0.209065
    12  H   -0.252375
 Sum of Mulliken charges =  -0.00000

 Dipole moment (field-independent basis, Debye):
    X=              1.5585    Y=              3.2009    Z=              1.0439  Tot=              3.7100

 Test job not archived.
 1\1\GINC-SE150\SP\RHF\Aug-CC-pVDZ\C4H5N1O2\OHZDE\09-Apr-2025\0\\#t hf
 aug-cc-pvdz iop(5/13=1,5/36=2,99/5=2) pseudo=read geom=check guess=(re
 ad,tcheck) scf=(maxcycle=1)\\title\\0,1\O,0,-2.2164296,-0.00356497,-1.
 03368593\C,0,-1.66679183,-0.06043751,0.25974555\C,0,-0.2881613,0.46636
 182,0.33676442\N,0,0.38119967,1.44851161,0.44441368\O,0,1.52544012,1.8
 3864668,0.41123094\C,0,2.37173921,-0.22448234,-0.04791882\C,0,1.359462
 97,-0.90334008,-0.06716566\H,0,-1.61999747,-0.43777671,-1.64777589\H,0
 ,-2.30816912,0.54503807,0.90118159\H,0,-1.66766035,-1.08139616,0.65700

 Normal termination of Gaussian 16 at Wed Apr  9 03:40:20 2025.
