 Gaussian 16, Revision C.01,

 ----------------------------------------------------------------------
 #t hf aug-cc-pvdz symm=none int=(grid=ultrafine) guess=(read,tcheck) s
 table=(opt,rrhf)
 ----------------------------------------------------------------------
 -----
 title
 -----
 Symbolic Z-matrix:
 Charge =  0 Multiplicity = 1

 SCF Done:  E(RHF) =  -284.809895600     A.U. after   14 cycles
 Normal termination of Gaussian 16 at Wed Apr  9 16:23:51 2025.
 Gaussian 16:  ES64L-G16RevC.01  3-Jul-2019

 ----------------------------------------------------------------------
 #t hf aug-cc-pvdz iop(5/13=1,5/36=2,99/5=2) pseudo=read geom=check gue
 ss=(read,tcheck) scf=(maxcycle=1)
 ----------------------------------------------------------------------
 -----
 title
 -----
 Structure from the checkpoint file:  "Grambow2020_b97d3_007209_reverse_mol2.chk"
 Charge =  0 Multiplicity = 1

                         Standard orientation:
 ---------------------------------------------------------------------
 Center     Atomic      Atomic             Coordinates (Angstroms)
 Number     Number       Type             X           Y           Z
 ---------------------------------------------------------------------
      1          6           0        2.649564   -0.185421    0.001084
      2          6           0        1.289098    0.483071    0.000864
      3          8           0        0.278004   -0.583646   -0.002771
      4          6           0       -2.359165   -0.456440    0.002227
      5          6           0       -0.965280   -0.124694   -0.002186
      6          7           0       -1.630739    0.953991   -0.000799
      7          1           0        2.777347   -0.809942   -0.892450
      8          1           0        3.436310    0.581247    0.004648
      9          1           0        2.774489   -0.815730    0.890913
     10          1           0        1.132034    1.107741   -0.889066
     11          1           0        1.128544    1.102960    0.893413
     12          1           0       -2.868703   -0.735769    0.929793
     13          1           0       -2.874177   -0.738368   -0.921421
 ---------------------------------------------------------------------

 SCF Done:  E(RHF) =  -285.104159575     A.U. after    2 cycles

 The electronic state is 1-A.
 Alpha  occ. eigenvalues --  -20.60719 -15.50967 -11.35080 -11.31488 -11.28367
 Alpha  occ. eigenvalues --  -11.24778  -1.52638  -1.28716  -1.05068  -0.90262
 Alpha  occ. eigenvalues --   -0.87202  -0.78680  -0.69656  -0.68791  -0.64233
 Alpha  occ. eigenvalues --   -0.64042  -0.56720  -0.56581  -0.55364  -0.51746
 Alpha  occ. eigenvalues --   -0.50331  -0.43312  -0.41845
 Alpha virt. eigenvalues --    0.03466   0.04175   0.04498   0.04522   0.05742
 Alpha virt. eigenvalues --    0.06394   0.07734   0.09295   0.10113   0.12347
 Alpha virt. eigenvalues --    0.12790   0.13141   0.13892   0.15373   0.15840

 Mulliken charges:
               1
     1  C   -0.637117
     2  C    0.329317
     3  O   -1.364068
     4  C    0.218405
     5  C    0.174978
     6  N    0.410096
     7  H    0.190923
     8  H    0.186075
     9  H    0.190902
    10  H    0.170338
    11  H    0.170391
    12  H   -0.020167
    13  H   -0.020073
 Sum of Mulliken charges =  -0.00000

 Dipole moment (field-independent basis, Debye):
    X=              2.1256    Y=             -1.5700    Z=              0.0057  Tot=              2.6426

 Test job not archived.
 1\1\GINC-SE168\SP\RHF\Aug-CC-pVDZ\C4H7N1O1\OHZDE\09-Apr-2025\0\\#t hf
 aug-cc-pvdz iop(5/13=1,5/36=2,99/5=2) pseudo=read geom=check guess=(re
 ad,tcheck) scf=(maxcycle=1)\\title\\0,1\C,0,-2.09483762,-0.88325249,-0
 .05528072\C,0,-0.77317262,-0.48387938,-0.68094087\O,0,0.0222142,0.1779
 378,0.36288332\C,0,2.44762552,1.21782143,0.27988286\C,0,1.21231526,0.5
 7739388,-0.06195311\N,0,1.94856893,0.59741454,-1.09342197\H,0,-2.63389
 995,-0.00124263,0.31381226\H,0,-2.72097029,-1.38420481,-0.80612526\H,0
 ,-1.93689348,-1.5744043,0.78260606\H,0,-0.90247549,0.22175239,-1.51293

 Normal termination of Gaussian 16 at Wed Apr  9 16:23:55 2025.
