 Gaussian 16, Revision C.01,

 ----------------------------------------------------------------------
 #t hf aug-cc-pvdz symm=none int=(grid=ultrafine) guess=(read,tcheck) s
 table=(opt,rrhf)
 ----------------------------------------------------------------------
 -----
 title
 -----
 Symbolic Z-matrix:
 Charge =  0 Multiplicity = 1

 SCF Done:  E(RHF) =  -305.697922709     A.U. after   16 cycles
 Normal termination of Gaussian 16 at Wed Apr  9 17:00:40 2025.
 Gaussian 16:  ES64L-G16RevC.01  3-Jul-2019

 ----------------------------------------------------------------------
 #t hf aug-cc-pvdz iop(5/13=1,5/36=2,99/5=2) pseudo=read geom=check gue
 ss=(read,tcheck) scf=(maxcycle=1)
 ----------------------------------------------------------------------
 -----
 title
 -----
 Structure from the checkpoint file:  "Grambow2020_wb97xd3_006220_forward_mol1.chk"
 Charge =  0 Multiplicity = 1

                         Standard orientation:
 ---------------------------------------------------------------------
 Center     Atomic      Atomic             Coordinates (Angstroms)
 Number     Number       Type             X           Y           Z
 ---------------------------------------------------------------------
      1          6           0        1.885869   -1.013149   -0.055197
      2          8           0        0.621153   -0.456206   -0.363540
      3          6           0       -0.167174   -0.190139    0.731567
      4          6           0        1.011758    2.138901   -0.051153
      5          6           0       -1.480923   -0.084917    0.563828
      6          8           0       -2.112936   -0.262854   -0.620310
      7          1           0        1.772977   -1.995755    0.412701
      8          1           0        2.443145   -0.343635    0.606083
      9          1           0        2.423044   -1.118723   -0.995420
     10          1           0        0.322101   -0.046944    1.686166
     11          1           0        1.085416    1.962194   -1.141285
     12          1           0       -0.016967    2.531038    0.063993
     13          1           0       -2.141596    0.170729    1.379347
     14          1           0       -1.451028   -0.510593   -1.275056
 ---------------------------------------------------------------------

 SCF Done:  E(RHF) =  -306.008771320     A.U. after    2 cycles

 The electronic state is 1-A.
 Alpha  occ. eigenvalues --  -20.57682 -20.57525 -11.29688 -11.29500 -11.28810
 Alpha  occ. eigenvalues --  -11.28642  -1.50823  -1.48241  -1.04098  -0.93917
 Alpha  occ. eigenvalues --   -0.88115  -0.82024  -0.74233  -0.70212  -0.65983
 Alpha  occ. eigenvalues --   -0.61646  -0.60454  -0.57620  -0.55588  -0.54771
 Alpha  occ. eigenvalues --   -0.51479  -0.49140  -0.38681  -0.32945
 Alpha virt. eigenvalues --    0.03518   0.03687   0.04030   0.04651   0.05993
 Alpha virt. eigenvalues --    0.06428   0.07432   0.07705   0.08162   0.11392
 Alpha virt. eigenvalues --    0.12457   0.12800   0.13816   0.15051   0.15592

 Mulliken charges:
               1
     1  C    0.124039
     2  O   -1.562728
     3  C    0.939108
     4  C   -0.406463
     5  C    1.206744
     6  O   -1.453729
     7  H    0.177499
     8  H    0.211488
     9  H    0.020177
    10  H   -0.094428
    11  H    0.203419
    12  H    0.197367
    13  H   -0.005145
    14  H    0.442653
 Sum of Mulliken charges =  -0.00000

 Dipole moment (field-independent basis, Debye):
    X=              0.8798    Y=             -0.7199    Z=             -0.3245  Tot=              1.1822

 Test job not archived.
 1\1\GINC-SE114\SP\RHF\Aug-CC-pVDZ\C4H8O2\OHZDE\09-Apr-2025\0\\#t hf au
 g-cc-pvdz iop(5/13=1,5/36=2,99/5=2) pseudo=read geom=check guess=(read
 ,tcheck) scf=(maxcycle=1)\\title\\0,1\C,0,1.48048115,-0.60605148,-1.06
 317631\O,0,0.53000629,0.25295194,-0.46028389\C,0,-0.72590433,-0.291157
 06,-0.32558883\C,0,0.55249942,-0.50395085,2.07177688\C,0,-1.76531771,0
 .5248203,-0.18795286\O,0,-1.67959792,1.8759002,-0.21079404\H,0,1.19759
 792,-0.83341952,-2.09539141\H,0,1.57424755,-1.53068506,-0.48667178\H,0
 ,2.43262545,-0.07966295,-1.05561625\H,0,-0.81224273,-1.36975018,-0.307

 Normal termination of Gaussian 16 at Wed Apr  9 17:00:44 2025.
