 Gaussian 16, Revision C.01,

 ----------------------------------------------------------------------
 #t hf aug-cc-pvdz symm=none int=(grid=ultrafine) guess=(read,tcheck) s
 table=(opt,rrhf)
 ----------------------------------------------------------------------
 -----
 title
 -----
 Symbolic Z-matrix:
 Charge =  0 Multiplicity = 1

 SCF Done:  E(RHF) =  -343.529376906     A.U. after   15 cycles
 Normal termination of Gaussian 16 at Wed Apr  9 03:58:45 2025.
 Gaussian 16:  ES64L-G16RevC.01  3-Jul-2019

 ----------------------------------------------------------------------
 #t hf aug-cc-pvdz iop(5/13=1,5/36=2,99/5=2) pseudo=read geom=check gue
 ss=(read,tcheck) scf=(maxcycle=1)
 ----------------------------------------------------------------------
 -----
 title
 -----
 Structure from the checkpoint file:  "Grambow2020_wb97xd3_008655_reverse_mol1.chk"
 Charge =  0 Multiplicity = 1

                         Standard orientation:
 ---------------------------------------------------------------------
 Center     Atomic      Atomic             Coordinates (Angstroms)
 Number     Number       Type             X           Y           Z
 ---------------------------------------------------------------------
      1          6           0        2.322091    0.717544   -0.231501
      2          6           0        1.344989   -0.396543   -0.436562
      3          8           0        0.841223   -1.051109    0.746352
      4          6           0       -0.041516   -0.311913    0.008133
      5          6           0       -1.996195   -0.702452   -0.513327
      6          8           0       -2.010498    0.670297   -0.267509
      7          6           0       -0.882804    0.831629    0.557463
      8          1           0        2.382062    1.331463   -1.131973
      9          1           0        2.024820    1.350158    0.604987
     10          1           0        3.315903    0.317714   -0.024533
     11          1           0        1.565364   -1.092348   -1.242635
     12          1           0       -0.780084   -0.921328   -0.866699
     13          1           0       -2.062966   -1.234304    0.459421
     14          1           0       -1.111830    0.630861    1.612889
     15          1           0       -0.458454    1.834695    0.452566
 ---------------------------------------------------------------------

 SCF Done:  E(RHF) =  -343.880206058     A.U. after    2 cycles

 The electronic state is 1-A.
 Alpha  occ. eigenvalues --  -20.59838 -20.56517 -11.35234 -11.32995 -11.31724
 Alpha  occ. eigenvalues --  -11.30320 -11.26045  -1.55292  -1.50223  -1.05498
 Alpha  occ. eigenvalues --   -1.01382  -0.95234  -0.88986  -0.78433  -0.73069
 Alpha  occ. eigenvalues --   -0.69887  -0.67254  -0.65289  -0.61961  -0.59716
 Alpha  occ. eigenvalues --   -0.57748  -0.55747  -0.52617  -0.50155  -0.48432
 Alpha  occ. eigenvalues --   -0.42849  -0.33779
 Alpha virt. eigenvalues --    0.02943   0.03507   0.04124   0.04481   0.05888
 Alpha virt. eigenvalues --    0.06828   0.06942   0.08310   0.09688   0.10988
 Alpha virt. eigenvalues --    0.11597   0.12587   0.13458   0.13874   0.13909

 Mulliken charges:
               1
     1  C   -0.553075
     2  C    0.358442
     3  O   -1.375564
     4  C    0.413188
     5  C   -0.102183
     6  O   -1.161688
     7  C    0.604509
     8  H    0.286756
     9  H    0.168598
    10  H    0.227260
    11  H   -0.105622
    12  H    0.538642
    13  H    0.311755
    14  H    0.250020
    15  H    0.138961
 Sum of Mulliken charges =  -0.00000

 Dipole moment (field-independent basis, Debye):
    X=              3.7729    Y=              1.3931    Z=              0.7174  Tot=              4.0854

 Test job not archived.
 1\1\GINC-SE009\SP\RHF\Aug-CC-pVDZ\C5H8O2\OHZDE\09-Apr-2025\0\\#t hf au
 g-cc-pvdz iop(5/13=1,5/36=2,99/5=2) pseudo=read geom=check guess=(read
 ,tcheck) scf=(maxcycle=1)\\title\\0,1\C,0,2.00099877,-0.41262587,0.569
 88952\C,0,0.96577975,0.65886626,0.4350105\O,0,0.59924014,1.04970238,-0
 .90454831\C,0,-0.34593058,0.40896715,-0.15174235\C,0,-2.36515589,0.770
 68991,0.04086417\O,0,-2.29729175,-0.62211924,0.06425477\C,0,-1.0654911
 3,-0.86577121,-0.56946611\H,0,1.96372879,-0.84314593,1.57219052\H,0,1.
 83978386,-1.20691158,-0.15908503\H,0,2.99833701,0.00108783,0.41330039\

 Normal termination of Gaussian 16 at Wed Apr  9 03:58:50 2025.
