 Gaussian 16, Revision C.01,

 ----------------------------------------------------------------------
 #t hf aug-cc-pvdz symm=none int=(grid=ultrafine) guess=(read,tcheck) s
 table=(opt,rrhf)
 ----------------------------------------------------------------------
 -----
 title
 -----
 Symbolic Z-matrix:
 Charge =  0 Multiplicity = 1

 SCF Done:  E(RHF) =  -289.111921268     A.U. after   16 cycles

 1\1\GINC-SE393\Stability\RHF\Aug-CC-pVDZ\C6H13N1\OHZDE\09-Apr-2025\0\\
 #t hf aug-cc-pvdz symm=none int=(grid=ultrafine) guess=(read,tcheck) s
 table=(opt,rrhf)\\title\\0,1\C,0,-1.86216732,1.67325456,0.37301346\C,0
 ,-0.74715672,0.77072842,0.78983024\N,0,-0.42997013,-0.3531895,0.079510
 66\C,0,-1.19495597,-1.57623753,-0.03499653\C,0,0.89098156,-0.17265398,
 -0.12273873\C,0,1.86483887,-1.23314467,0.30345008\C,0,1.40147835,0.903
 45018,-1.03531467\H,0,-2.65151133,1.10819188,-0.13405405\H,0,-2.305615
 4,2.18022794,1.23253658\H,0,-1.54014611,2.45312221,-0.33005363\H,0,-0.

 Normal termination of Gaussian 16 at Wed Apr  9 04:05:20 2025.
 Gaussian 16:  ES64L-G16RevC.01  3-Jul-2019

 ----------------------------------------------------------------------
 #t hf aug-cc-pvdz iop(5/13=1,5/36=2,99/5=2) pseudo=read geom=check gue
 ss=(read,tcheck) scf=(maxcycle=1)
 ----------------------------------------------------------------------
 -----
 title
 -----
 Structure from the checkpoint file:  "Grambow2020_wb97xd3_009135_forward_mol1.chk"
 Charge =  0 Multiplicity = 1

                         Standard orientation:
 ---------------------------------------------------------------------
 Center     Atomic      Atomic             Coordinates (Angstroms)
 Number     Number       Type             X           Y           Z
 ---------------------------------------------------------------------
      1          6           0        2.449069   -0.579452    0.108025
      2          6           0        1.113538   -0.196962    0.657203
      3          7           0        0.203041    0.497756   -0.088931
      4          6           0        0.272336    1.879624   -0.512960
      5          6           0       -0.888638   -0.284441    0.032791
      6          6           0       -2.174917    0.300204    0.541075
      7          6           0       -0.955268   -1.638090   -0.611099
      8          1           0        2.794001    0.157375   -0.625178
      9          1           0        3.198941   -0.648845    0.898800
     10          1           0        2.436391   -1.547936   -0.409733
     11          1           0        0.851720   -0.427116    1.680846
     12          1           0       -0.201490    2.012095   -1.487876
     13          1           0       -0.209460    2.546259    0.210152
     14          1           0        1.322660    2.163738   -0.584188
     15          1           0       -2.794585   -0.468365    1.007478
     16          1           0       -1.997970    1.086186    1.278639
     17          1           0       -2.771162    0.735924   -0.271557
     18          1           0       -0.002269   -1.899142   -1.068888
     19          1           0       -1.727793   -1.650567   -1.394240
     20          1           0       -1.216995   -2.429198    0.098050
 ---------------------------------------------------------------------

 SCF Done:  E(RHF) =  -289.430491182     A.U. after    2 cycles

 The electronic state is 1-A.
 Alpha  occ. eigenvalues --  -15.52140 -11.26738 -11.26184 -11.23669 -11.22915
 Alpha  occ. eigenvalues --  -11.22210 -11.21705  -1.27448  -1.04172  -1.00657
 Alpha  occ. eigenvalues --   -0.95833  -0.93872  -0.82716  -0.74629  -0.67400
 Alpha  occ. eigenvalues --   -0.65804  -0.64029  -0.58420  -0.57148  -0.56616
 Alpha  occ. eigenvalues --   -0.56510  -0.54681  -0.53998  -0.52699  -0.52247
 Alpha  occ. eigenvalues --   -0.50565  -0.38965  -0.24395
 Alpha virt. eigenvalues --    0.03584   0.04103   0.04222   0.04407   0.05312
 Alpha virt. eigenvalues --    0.05448   0.05701   0.06117   0.06351   0.08909
 Alpha virt. eigenvalues --    0.09229   0.09806   0.10472   0.10747   0.11925

 Mulliken charges:
               1
     1  C   -0.489985
     2  C   -0.265004
     3  N    1.588519
     4  C    0.047698
     5  C   -1.748451
     6  C   -0.206443
     7  C   -0.507877
     8  H    0.139127
     9  H    0.175356
    10  H    0.199221
    11  H   -0.280056
    12  H    0.150295
    13  H    0.162608
    14  H    0.076716
    15  H    0.143225
    16  H    0.124678
    17  H    0.255808
    18  H    0.041014
    19  H    0.197158
    20  H    0.196392
 Sum of Mulliken charges =  -0.00000

 Dipole moment (field-independent basis, Debye):
    X=             -0.7300    Y=              0.7365    Z=             -0.3839  Tot=              1.1058

 Test job not archived.
 1\1\GINC-SE393\SP\RHF\Aug-CC-pVDZ\C6H13N1\OHZDE\09-Apr-2025\0\\#t hf a
 ug-cc-pvdz iop(5/13=1,5/36=2,99/5=2) pseudo=read geom=check guess=(rea
 d,tcheck) scf=(maxcycle=1)\\title\\0,1\C,0,-1.86216732,1.67325456,0.37
 301346\C,0,-0.74715672,0.77072842,0.78983024\N,0,-0.42997013,-0.353189
 5,0.07951066\C,0,-1.19495597,-1.57623753,-0.03499653\C,0,0.89098156,-0
 .17265398,-0.12273873\C,0,1.86483887,-1.23314467,0.30345008\C,0,1.4014
 7835,0.90345018,-1.03531467\H,0,-2.65151133,1.10819188,-0.13405405\H,0
 ,-2.3056154,2.18022794,1.23253658\H,0,-1.54014611,2.45312221,-0.330053

 Normal termination of Gaussian 16 at Wed Apr  9 04:05:28 2025.
