 Gaussian 16, Revision C.01,

 ----------------------------------------------------------------------
 #t hf aug-cc-pvdz symm=none int=(grid=ultrafine) guess=(read,tcheck) s
 table=(opt,rrhf)
 ----------------------------------------------------------------------
 -----
 title
 -----
 Symbolic Z-matrix:
 Charge =  0 Multiplicity = 1

 SCF Done:  E(RHF) =  -318.785830424     A.U. after   16 cycles
 Normal termination of Gaussian 16 at Wed Apr  9 17:59:05 2025.
 Gaussian 16:  ES64L-G16RevC.01  3-Jul-2019

 ----------------------------------------------------------------------
 #t hf aug-cc-pvdz iop(5/13=1,5/36=2,99/5=2) pseudo=read geom=check gue
 ss=(read,tcheck) scf=(maxcycle=1)
 ----------------------------------------------------------------------
 -----
 title
 -----
 Structure from the checkpoint file:  "Grambow2020_wb97xd3_006917_reverse_mol1.chk"
 Charge =  0 Multiplicity = 1

                         Standard orientation:
 ---------------------------------------------------------------------
 Center     Atomic      Atomic             Coordinates (Angstroms)
 Number     Number       Type             X           Y           Z
 ---------------------------------------------------------------------
      1          7           0        2.469939   -0.596926   -0.105353
      2          6           0        1.237731    0.016130    0.023332
      3          6           0        0.070485   -0.854914    0.046437
      4          6           0       -1.082794   -0.177797   -0.025885
      5          7           0       -2.471515   -0.512878    0.025186
      6          6           0       -1.514218    1.114806   -0.199870
      7          7           0        1.041401    1.286249    0.062301
      8          1           0        3.276368   -0.053372    0.147778
      9          1           0        2.527418   -1.567437    0.147641
     10          1           0        0.134331   -1.933713    0.057398
     11          1           0       -2.790581   -0.971810    0.863598
     12          1           0       -2.904932   -0.825191   -0.826115
     13          1           0       -1.689074    1.707713    0.697410
     14          1           0        1.900462    1.819342   -0.026736
 ---------------------------------------------------------------------

 SCF Done:  E(RHF) =  -319.114931657     A.U. after    2 cycles

 The electronic state is 1-A.
 Alpha  occ. eigenvalues --  -15.54586 -15.51418 -15.44804 -11.31355 -11.29450
 Alpha  occ. eigenvalues --  -11.26276 -11.21848  -1.26425  -1.24840  -1.14092
 Alpha  occ. eigenvalues --   -1.04265  -0.95992  -0.83049  -0.76131  -0.75629
 Alpha  occ. eigenvalues --   -0.73948  -0.71213  -0.65344  -0.61308  -0.57064
 Alpha  occ. eigenvalues --   -0.55272  -0.50238  -0.45928  -0.44303  -0.39595
 Alpha  occ. eigenvalues --   -0.31100
 Alpha virt. eigenvalues --    0.02587   0.03166   0.04610   0.05338   0.05984
 Alpha virt. eigenvalues --    0.06284   0.08195   0.10060   0.11117   0.11228
 Alpha virt. eigenvalues --    0.12351   0.12589   0.12981   0.13953   0.14978

 Mulliken charges:
               1
     1  N    0.709320
     2  C   -2.366993
     3  C    0.951493
     4  C   -0.822009
     5  N    0.641919
     6  C   -0.506313
     7  N    1.003874
     8  H    0.035279
     9  H    0.063105
    10  H   -0.282247
    11  H    0.232441
    12  H    0.317066
    13  H    0.045657
    14  H   -0.022592
 Sum of Mulliken charges =  -0.00000

 Dipole moment (field-independent basis, Debye):
    X=              0.2777    Y=             -3.8926    Z=              1.8828  Tot=              4.3330

 Test job not archived.
 1\1\GINC-SE232\SP\RHF\Aug-CC-pVDZ\C4H7N3\OHZDE\09-Apr-2025\0\\#t hf au
 g-cc-pvdz iop(5/13=1,5/36=2,99/5=2) pseudo=read geom=check guess=(read
 ,tcheck) scf=(maxcycle=1)\\title\\0,1\N,0,-2.45347171,-0.51384563,0.08
 21385\C,0,-1.22461359,0.11160447,-0.01508746\C,0,-0.04673669,-0.743583
 65,0.03945309\C,0,1.09398256,-0.0486654,0.13752978\N,0,2.48766472,-0.3
 6608567,0.15569207\C,0,1.50162931,1.25472392,0.28658736\N,0,-1.0425559
 7,1.38236674,-0.0877709\H,0,-3.25515374,0.01004375,-0.22232892\H,0,-2.
 48818614,-1.49276585,-0.14082118\H,0,-0.0966977,-1.82294564,0.06149462

 Normal termination of Gaussian 16 at Wed Apr  9 17:59:10 2025.
