 Gaussian 16, Revision C.01,

 ----------------------------------------------------------------------
 #t hf aug-cc-pvdz symm=none int=(grid=ultrafine) guess=(read,tcheck) s
 table=(opt,rrhf)
 ----------------------------------------------------------------------
 -----
 title
 -----
 Symbolic Z-matrix:
 Charge =  0 Multiplicity = 1

 SCF Done:  E(RHF) =  -317.649338147     A.U. after   14 cycles
 Normal termination of Gaussian 16 at Wed Apr  9 18:41:19 2025.
 Gaussian 16:  ES64L-G16RevC.01  3-Jul-2019

 ----------------------------------------------------------------------
 #t hf aug-cc-pvdz iop(5/13=1,5/36=2,99/5=2) pseudo=read geom=check gue
 ss=(read,tcheck) scf=(maxcycle=1)
 ----------------------------------------------------------------------
 -----
 title
 -----
 Structure from the checkpoint file:  "Grambow2020_wb97xd3_007978_reverse_mol2.chk"
 Charge =  0 Multiplicity = 1

                         Standard orientation:
 ---------------------------------------------------------------------
 Center     Atomic      Atomic             Coordinates (Angstroms)
 Number     Number       Type             X           Y           Z
 ---------------------------------------------------------------------
      1          7           0       -1.885666   -0.023822    0.239923
      2          6           0       -0.521765   -0.009218   -0.069353
      3          7           0       -0.045218    1.249763   -0.720227
      4          6           0        0.985214    1.268030    0.032024
      5          6           0        0.765391    0.010562    0.837062
      6          6           0        1.023610   -1.240286    0.032419
      7          7           0       -0.009050   -1.255629   -0.717070
      8          1           0       -2.170901   -0.852674    0.738160
      9          1           0       -2.193857    0.816153    0.705033
     10          1           0        1.778714    2.010406    0.013530
     11          1           0        0.807227    0.012267    1.922823
     12          1           0        1.843655   -1.952874    0.009160
 ---------------------------------------------------------------------

 SCF Done:  E(RHF) =  -317.973075853     A.U. after    2 cycles

 The electronic state is 1-A.
 Alpha  occ. eigenvalues --  -15.51186 -15.51114 -15.50450 -11.33974 -11.30321
 Alpha  occ. eigenvalues --  -11.30300 -11.26144  -1.34917  -1.23540  -1.19471
 Alpha  occ. eigenvalues --   -0.98846  -0.90901  -0.83159  -0.75766  -0.73172
 Alpha  occ. eigenvalues --   -0.69499  -0.68222  -0.67018  -0.60941  -0.56159
 Alpha  occ. eigenvalues --   -0.49863  -0.49133  -0.45825  -0.45310  -0.40153
 Alpha virt. eigenvalues --    0.02779   0.03765   0.03897   0.04151   0.05942
 Alpha virt. eigenvalues --    0.06266   0.08665   0.09049   0.11523   0.12167
 Alpha virt. eigenvalues --    0.12312   0.12854   0.13880   0.14503   0.15321

 Mulliken charges:
               1
     1  N    0.762753
     2  C   -3.174113
     3  N    0.829048
     4  C   -0.192754
     5  C    0.976187
     6  C   -0.179137
     7  N    0.832194
     8  H    0.199995
     9  H    0.204234
    10  H   -0.073908
    11  H   -0.109663
    12  H   -0.074833
 Sum of Mulliken charges =  -0.00000

 Dipole moment (field-independent basis, Debye):
    X=              2.7224    Y=              0.0757    Z=              5.0908  Tot=              5.7735

 Test job not archived.
 1\1\GINC-SE174\SP\RHF\Aug-CC-pVDZ\C4H5N3\OHZDE\09-Apr-2025\0\\#t hf au
 g-cc-pvdz iop(5/13=1,5/36=2,99/5=2) pseudo=read geom=check guess=(read
 ,tcheck) scf=(maxcycle=1)\\title\\0,1\N,0,1.91145945,-0.19076568,-0.00
 331261\C,0,0.5458367,-0.10836508,-0.29378733\N,0,-0.0860979,-1.4058767
 5,-0.68480052\C,0,-1.08967371,-1.16168364,0.06433947\C,0,-0.70841244,0
 .19325298,0.6087839\C,0,-0.850059,1.28782422,-0.4210696\N,0,0.15548761
 ,1.04105515,-1.16694992\H,0,2.30122959,0.68007788,0.32273258\H,0,2.138
 27178,-0.95562628,0.61346221\H,0,-1.96069631,-1.79816451,0.19593495\H,

 Normal termination of Gaussian 16 at Wed Apr  9 18:41:24 2025.
