 Gaussian 16, Revision C.01,

 ----------------------------------------------------------------------
 #t hf aug-cc-pvdz symm=none int=(grid=ultrafine) guess=(read,tcheck) s
 table=(opt,rrhf)
 ----------------------------------------------------------------------
 -----
 title
 -----
 Symbolic Z-matrix:
 Charge =  0 Multiplicity = 1

 SCF Done:  E(RHF) =  -322.591724929     A.U. after   16 cycles
 Normal termination of Gaussian 16 at Wed Apr  9 04:04:46 2025.
 Gaussian 16:  ES64L-G16RevC.01  3-Jul-2019

 ----------------------------------------------------------------------
 #t hf aug-cc-pvdz iop(5/13=1,5/36=2,99/5=2) pseudo=read geom=check gue
 ss=(read,tcheck) scf=(maxcycle=1)
 ----------------------------------------------------------------------
 -----
 title
 -----
 Structure from the checkpoint file:  "Grambow2020_wb97xd3_009161_reverse_mol1.chk"
 Charge =  0 Multiplicity = 1

                         Standard orientation:
 ---------------------------------------------------------------------
 Center     Atomic      Atomic             Coordinates (Angstroms)
 Number     Number       Type             X           Y           Z
 ---------------------------------------------------------------------
      1          6           0        2.047070   -1.259170    0.013624
      2          7           0        0.676712   -0.804647   -0.089870
      3          6           0       -2.600573   -0.988054    0.234078
      4          6           0       -1.928363    0.130986   -0.024477
      5          6           0       -0.907407    0.982852   -0.084183
      6          6           0        0.451857    0.434277   -0.037906
      7          8           0        1.460250    1.345322    0.068179
      8          1           0        2.534433   -0.891902    0.922488
      9          1           0        2.649094   -0.921723   -0.836336
     10          1           0        2.059427   -2.348285    0.028387
     11          1           0       -3.006739   -1.507825   -0.640348
     12          1           0       -3.055101    0.462447    0.013046
     13          1           0       -1.076847    2.044683   -0.193114
     14          1           0        1.101243    2.227212    0.182711
 ---------------------------------------------------------------------

 SCF Done:  E(RHF) =  -322.921184478     A.U. after    2 cycles

 The electronic state is 1-A.
 Alpha  occ. eigenvalues --  -20.58888 -15.46470 -11.34028 -11.31283 -11.30195
 Alpha  occ. eigenvalues --  -11.25180 -11.23833  -1.50982  -1.21726  -1.13743
 Alpha  occ. eigenvalues --   -1.01881  -0.93520  -0.81325  -0.77201  -0.70263
 Alpha  occ. eigenvalues --   -0.68935  -0.64846  -0.62660  -0.58542  -0.56823
 Alpha  occ. eigenvalues --   -0.55160  -0.52930  -0.49866  -0.43968  -0.41631
 Alpha  occ. eigenvalues --   -0.32914
 Alpha virt. eigenvalues --    0.02554   0.03563   0.04360   0.05407   0.05790
 Alpha virt. eigenvalues --    0.06422   0.07263   0.07659   0.09276   0.09845
 Alpha virt. eigenvalues --    0.10568   0.12348   0.12964   0.13625   0.14398

 Mulliken charges:
               1
     1  C   -0.304733
     2  N    0.913833
     3  C   -0.557773
     4  C    0.012362
     5  C    0.884410
     6  C   -0.157157
     7  O   -1.521650
     8  H    0.156656
     9  H    0.144970
    10  H    0.013975
    11  H    0.109904
    12  H    0.210133
    13  H   -0.304807
    14  H    0.399876
 Sum of Mulliken charges =  -0.00000

 Dipole moment (field-independent basis, Debye):
    X=             -1.7835    Y=              3.0585    Z=             -1.1582  Tot=              3.7251

 Test job not archived.
 1\1\GINC-SE342\SP\RHF\Aug-CC-pVDZ\C5H7N1O1\OHZDE\09-Apr-2025\0\\#t hf
 aug-cc-pvdz iop(5/13=1,5/36=2,99/5=2) pseudo=read geom=check guess=(re
 ad,tcheck) scf=(maxcycle=1)\\title\\0,1\C,0,-2.13344332,0.67169257,0.6
 8366714\N,0,-0.92100583,-0.02942695,0.31813669\C,0,0.88845973,-2.45810
 905,-0.98819746\C,0,1.36592594,-1.26837031,-0.63110596\C,0,1.3766974,0
 .02840265,-0.33134771\C,0,0.11726517,0.64843482,0.09299384\O,0,0.13473
 384,2.00486597,0.22679157\H,0,-2.4100252,1.42842994,-0.05747624\H,0,-2
 .02891759,1.18313982,1.64607616\H,0,-2.94757074,-0.04719806,0.76694156

 Normal termination of Gaussian 16 at Wed Apr  9 04:04:51 2025.
