 Gaussian 16, Revision C.01,

 ----------------------------------------------------------------------
 #t hf aug-cc-pvdz symm=none int=(grid=ultrafine) guess=(read,tcheck) s
 table=(opt,rrhf)
 ----------------------------------------------------------------------
 -----
 title
 -----
 Symbolic Z-matrix:
 Charge =  0 Multiplicity = 1

 SCF Done:  E(RHF) =  -344.925255585     A.U. after   12 cycles

 1\1\GINC-SE340\Stability\RHF\Aug-CC-pVDZ\C5H10O2\OHZDE\09-Apr-2025\0\\
 #t hf aug-cc-pvdz symm=none int=(grid=ultrafine) guess=(read,tcheck) s
 table=(opt,rrhf)\\title\\0,1\C,0,2.19112331,0.41978715,-0.63908662\C,0
 ,1.00786832,-0.38940222,-0.17016544\C,0,0.60704545,-0.17906428,1.29639
 96\O,0,-0.80902885,-0.1880435,1.28159648\C,0,-1.22469579,-0.413704,-0.
 05210856\C,0,-2.47575387,0.36018096,-0.35950044\O,0,-0.16303073,0.0100
 2816,-0.86137699\H,0,2.37836558,0.24807558,-1.69927938\H,0,3.08741877,
 0.13774576,-0.08309685\H,0,2.00375176,1.48378599,-0.48543111\H,0,1.182

 Normal termination of Gaussian 16 at Wed Apr  9 18:06:11 2025.
 Gaussian 16:  ES64L-G16RevC.01  3-Jul-2019

 ----------------------------------------------------------------------
 #t hf aug-cc-pvdz iop(5/13=1,5/36=2,99/5=2) pseudo=read geom=check gue
 ss=(read,tcheck) scf=(maxcycle=1)
 ----------------------------------------------------------------------
 -----
 title
 -----
 Structure from the checkpoint file:  "Grambow2020_wb97xd3_007101_forward_mol2.chk"
 Charge =  0 Multiplicity = 1

                         Standard orientation:
 ---------------------------------------------------------------------
 Center     Atomic      Atomic             Coordinates (Angstroms)
 Number     Number       Type             X           Y           Z
 ---------------------------------------------------------------------
      1          6           0        2.340343   -0.661679   -0.298518
      2          6           0        1.124772   -0.096725    0.392844
      3          6           0        0.656648    1.273711   -0.115565
      4          8           0       -0.757054    1.190232   -0.108899
      5          6           0       -1.111010   -0.088043    0.384253
      6          6           0       -2.334965   -0.609660   -0.314592
      7          8           0       -0.005798   -0.912804    0.139566
      8          1           0        2.576095   -1.653480    0.087880
      9          1           0        3.204799   -0.015568   -0.133367
     10          1           0        2.160518   -0.738835   -1.372073
     11          1           0        1.293699   -0.048984    1.478507
     12          1           0        0.998893    1.459760   -1.138325
     13          1           0        0.994485    2.092071    0.526303
     14          1           0       -1.273799   -0.012689    1.473718
     15          1           0       -2.139191   -0.684697   -1.384151
     16          1           0       -2.596746   -1.593041    0.076290
     17          1           0       -3.170660    0.070422   -0.150653
 ---------------------------------------------------------------------

 SCF Done:  E(RHF) =  -345.286495679     A.U. after    2 cycles

 The electronic state is 1-A.
 Alpha  occ. eigenvalues --  -20.54990 -20.54390 -11.33430 -11.29213 -11.28437
 Alpha  occ. eigenvalues --  -11.23297 -11.22348  -1.52693  -1.42347  -1.08003
 Alpha  occ. eigenvalues --   -0.99618  -0.92759  -0.83625  -0.81949  -0.72535
 Alpha  occ. eigenvalues --   -0.67469  -0.66411  -0.62216  -0.59159  -0.57868
 Alpha  occ. eigenvalues --   -0.55281  -0.54418  -0.53342  -0.52248  -0.50174
 Alpha  occ. eigenvalues --   -0.47925  -0.43353  -0.41417
 Alpha virt. eigenvalues --    0.03592   0.03944   0.04237   0.04429   0.06074
 Alpha virt. eigenvalues --    0.06211   0.06510   0.06912   0.07482   0.09339
 Alpha virt. eigenvalues --    0.11708   0.12405   0.13583   0.14269   0.14916

 Mulliken charges:
               1
     1  C   -0.429515
     2  C    0.053940
     3  C    0.754444
     4  O   -1.475874
     5  C    1.589436
     6  C   -0.422334
     7  O   -1.522471
     8  H    0.169244
     9  H    0.216472
    10  H    0.220757
    11  H    0.068998
    12  H    0.042896
    13  H    0.087951
    14  H    0.056730
    15  H    0.213799
    16  H    0.193792
    17  H    0.181736
 Sum of Mulliken charges =  -0.00000

 Dipole moment (field-independent basis, Debye):
    X=              1.1768    Y=              0.1239    Z=              0.6708  Tot=              1.3602

 Test job not archived.
 1\1\GINC-SE340\SP\RHF\Aug-CC-pVDZ\C5H10O2\OHZDE\09-Apr-2025\0\\#t hf a
 ug-cc-pvdz iop(5/13=1,5/36=2,99/5=2) pseudo=read geom=check guess=(rea
 d,tcheck) scf=(maxcycle=1)\\title\\0,1\C,0,2.19112331,0.41978715,-0.63
 908662\C,0,1.00786832,-0.38940222,-0.17016544\C,0,0.60704545,-0.179064
 28,1.2963996\O,0,-0.80902885,-0.1880435,1.28159648\C,0,-1.22469579,-0.
 413704,-0.05210856\C,0,-2.47575387,0.36018096,-0.35950044\O,0,-0.16303
 073,0.01002816,-0.86137699\H,0,2.37836558,0.24807558,-1.69927938\H,0,3
 .08741877,0.13774576,-0.08309685\H,0,2.00375176,1.48378599,-0.48543111

 Normal termination of Gaussian 16 at Wed Apr  9 18:06:16 2025.
