 Gaussian 16, Revision C.01,

 ----------------------------------------------------------------------
 #t hf aug-cc-pvdz symm=none int=(grid=ultrafine) guess=(read,tcheck) s
 table=(opt,rrhf)
 ----------------------------------------------------------------------
 -----
 title
 -----
 Symbolic Z-matrix:
 Charge =  0 Multiplicity = 1

 SCF Done:  E(RHF) =  -344.835566486     A.U. after   15 cycles

 1\1\GINC-SE460\Stability\RHF\Aug-CC-pVDZ\C5H10O2\OHZDE\09-Apr-2025\0\\
 #t hf aug-cc-pvdz symm=none int=(grid=ultrafine) guess=(read,tcheck) s
 table=(opt,rrhf)\\title\\0,1\C,0,-3.07703634,-0.85215268,0.07176588\C,
 0,0.17262299,-0.56045716,-1.17676292\O,0,0.0046212,0.60609275,-1.71693
 609\C,0,0.51580852,-0.45011137,0.30079494\C,0,1.98742286,-0.06768226,0
 .48100741\C,0,2.27195856,1.39858719,0.35647618\O,0,1.47438803,2.227335
 37,-0.00699879\H,0,-4.11781284,-1.10351155,-0.12678011\H,0,-2.84539445
 ,-1.06991278,1.11402684\H,0,-2.92024753,0.20806297,-0.12430864\H,0,-2.

 Normal termination of Gaussian 16 at Wed Apr  9 03:34:29 2025.
 Gaussian 16:  ES64L-G16RevC.01  3-Jul-2019

 ----------------------------------------------------------------------
 #t hf aug-cc-pvdz iop(5/13=1,5/36=2,99/5=2) pseudo=read geom=check gue
 ss=(read,tcheck) scf=(maxcycle=1)
 ----------------------------------------------------------------------
 -----
 title
 -----
 Structure from the checkpoint file:  "Grambow2020_wb97xd3_007089_reverse_mol2.chk"
 Charge =  0 Multiplicity = 1

                         Standard orientation:
 ---------------------------------------------------------------------
 Center     Atomic      Atomic             Coordinates (Angstroms)
 Number     Number       Type             X           Y           Z
 ---------------------------------------------------------------------
      1          6           0       -3.565419    0.142810   -0.631765
      2          6           0       -0.586495   -0.103496    1.176423
      3          8           0       -0.314840   -1.320730    0.822310
      4          6           0       -0.108486    0.901945    0.140215
      5          6           0        1.402059    1.119815    0.263356
      6          6           0        2.240859    0.086188   -0.425444
      7          8           0        1.816987   -0.931752   -0.914509
      8          1           0       -4.631852   -0.072568   -0.678123
      9          1           0       -3.356592    1.055012   -1.190033
     10          1           0       -3.012209   -0.688216   -1.068159
     11          1           0       -3.263772    0.269509    0.407791
     12          1           0        0.184344   -1.388051   -0.024320
     13          1           0       -0.353166    0.575471   -0.879150
     14          1           0       -0.617788    1.846763    0.324491
     15          1           0        1.715516    1.137788    1.316270
     16          1           0        1.699230    2.094786   -0.135460
     17          1           0        3.324000    0.305790   -0.472428
 ---------------------------------------------------------------------

 SCF Done:  E(RHF) =  -345.190198851     A.U. after    2 cycles

 The electronic state is 1-A.
 Alpha  occ. eigenvalues --  -20.59890 -20.57834 -11.37250 -11.30036 -11.27919
 Alpha  occ. eigenvalues --  -11.24916 -11.21597  -1.52671  -1.51056  -1.10126
 Alpha  occ. eigenvalues --   -0.96754  -0.94303  -0.85442  -0.79748  -0.72859
 Alpha  occ. eigenvalues --   -0.70788  -0.67453  -0.62309  -0.59689  -0.58239
 Alpha  occ. eigenvalues --   -0.55941  -0.54815  -0.54630  -0.54558  -0.52651
 Alpha  occ. eigenvalues --   -0.51673  -0.45021  -0.34843
 Alpha virt. eigenvalues --    0.02450   0.03457   0.04238   0.04546   0.05721
 Alpha virt. eigenvalues --    0.06137   0.06901   0.07971   0.08677   0.09043
 Alpha virt. eigenvalues --    0.09272   0.11426   0.11538   0.12475   0.13182

 Mulliken charges:
               1
     1  C   -0.277921
     2  C    0.550642
     3  O   -1.057718
     4  C   -0.232731
     5  C   -0.512777
     6  C    1.062177
     7  O   -1.172580
     8  H    0.018584
     9  H    0.082134
    10  H    0.084429
    11  H    0.120080
    12  H    0.557280
    13  H    0.154561
    14  H    0.065394
    15  H    0.257242
    16  H    0.186580
    17  H    0.114624
 Sum of Mulliken charges =  -0.00000

 Dipole moment (field-independent basis, Debye):
    X=              2.7696    Y=              2.8279    Z=             -1.9123  Tot=              4.3960

 Test job not archived.
 1\1\GINC-SE460\SP\RHF\Aug-CC-pVDZ\C5H10O2\OHZDE\09-Apr-2025\0\\#t hf a
 ug-cc-pvdz iop(5/13=1,5/36=2,99/5=2) pseudo=read geom=check guess=(rea
 d,tcheck) scf=(maxcycle=1)\\title\\0,1\C,0,-3.07703634,-0.85215268,0.0
 7176588\C,0,0.17262299,-0.56045716,-1.17676292\O,0,0.0046212,0.6060927
 5,-1.71693609\C,0,0.51580852,-0.45011137,0.30079494\C,0,1.98742286,-0.
 06768226,0.48100741\C,0,2.27195856,1.39858719,0.35647618\O,0,1.4743880
 3,2.22733537,-0.00699879\H,0,-4.11781284,-1.10351155,-0.12678011\H,0,-
 2.84539445,-1.06991278,1.11402684\H,0,-2.92024753,0.20806297,-0.124308

 Normal termination of Gaussian 16 at Wed Apr  9 03:34:35 2025.
