 Gaussian 16, Revision C.01,

 ----------------------------------------------------------------------
 #t hf aug-cc-pvdz symm=none int=(grid=ultrafine) guess=(read,tcheck) s
 table=(opt,rrhf)
 ----------------------------------------------------------------------
 -----
 title
 -----
 Symbolic Z-matrix:
 Charge =  0 Multiplicity = 1

 SCF Done:  E(RHF) =  -318.778071459     A.U. after   15 cycles
 Normal termination of Gaussian 16 at Wed Apr  9 18:00:06 2025.
 Gaussian 16:  ES64L-G16RevC.01  3-Jul-2019

 ----------------------------------------------------------------------
 #t hf aug-cc-pvdz iop(5/13=1,5/36=2,99/5=2) pseudo=read geom=check gue
 ss=(read,tcheck) scf=(maxcycle=1)
 ----------------------------------------------------------------------
 -----
 title
 -----
 Structure from the checkpoint file:  "Grambow2020_wb97xd3_006923_reverse_mol1.chk"
 Charge =  0 Multiplicity = 1

                         Standard orientation:
 ---------------------------------------------------------------------
 Center     Atomic      Atomic             Coordinates (Angstroms)
 Number     Number       Type             X           Y           Z
 ---------------------------------------------------------------------
      1          7           0       -2.469009   -0.444333    0.037228
      2          6           0       -1.110747   -0.145156   -0.018312
      3          6           0        0.000764   -0.966685    0.037684
      4          6           0        1.183705   -0.003719    0.013751
      5          7           0        2.508831   -0.485752   -0.018086
      6          6           0        0.712794    1.312651   -0.005178
      7          7           0       -0.654749    1.130525   -0.009410
      8          1           0       -3.017503    0.026508   -0.667067
      9          1           0       -2.654754   -1.433752    0.020647
     10          1           0        0.043906   -2.042530   -0.024374
     11          1           0        3.140092    0.252879    0.260606
     12          1           0        2.766381   -0.789829   -0.947068
     13          1           0        0.593344   -0.511600    1.067922
     14          1           0       -1.286066    1.912700    0.053540
 ---------------------------------------------------------------------

 SCF Done:  E(RHF) =  -319.110496035     A.U. after    2 cycles

 The electronic state is 1-A.
 Alpha  occ. eigenvalues --  -15.55136 -15.53535 -15.49024 -11.32215 -11.26453
 Alpha  occ. eigenvalues --  -11.26221 -11.20610  -1.32042  -1.22011  -1.19111
 Alpha  occ. eigenvalues --   -1.07065  -0.96698  -0.83937  -0.81354  -0.76643
 Alpha  occ. eigenvalues --   -0.72093  -0.69760  -0.67289  -0.63562  -0.62188
 Alpha  occ. eigenvalues --   -0.59161  -0.52448  -0.47347  -0.45123  -0.33688
 Alpha  occ. eigenvalues --   -0.28719
 Alpha virt. eigenvalues --    0.02152   0.03877   0.04278   0.05317   0.05970
 Alpha virt. eigenvalues --    0.06660   0.07313   0.10628   0.10943   0.11360
 Alpha virt. eigenvalues --    0.11862   0.12806   0.13529   0.13979   0.15217

 Mulliken charges:
               1
     1  N    0.648553
     2  C   -1.803897
     3  C    0.172854
     4  C   -1.318010
     5  N    0.766691
     6  C   -0.710992
     7  N    0.912775
     8  H    0.131153
     9  H    0.194927
    10  H   -0.166053
    11  H    0.140632
    12  H    0.227070
    13  H    0.848135
    14  H   -0.043838
 Sum of Mulliken charges =  -0.00000

 Dipole moment (field-independent basis, Debye):
    X=             -3.3128    Y=             -3.0761    Z=             -1.3077  Tot=              4.7061

 Test job not archived.
 1\1\GINC-SE103\SP\RHF\Aug-CC-pVDZ\C4H7N3\OHZDE\09-Apr-2025\0\\#t hf au
 g-cc-pvdz iop(5/13=1,5/36=2,99/5=2) pseudo=read geom=check guess=(read
 ,tcheck) scf=(maxcycle=1)\\title\\0,1\N,0,-2.45378717,-0.2470845,0.218
 47976\C,0,-1.09700915,-0.00646606,0.02169576\C,0,0.01710592,-0.7235222
 1,0.41929059\C,0,1.19730478,0.12806636,-0.03804335\N,0,2.52315531,-0.3
 2297444,0.12931696\C,0,0.72295465,1.3042751,-0.62666215\N,0,-0.6440911
 2,1.1426868,-0.53480021\H,0,-3.01162473,-0.13104681,-0.61453928\H,0,-2
 .63726768,-1.1430961,0.63945815\H,0,0.06217896,-1.71781147,0.83463562\

 Normal termination of Gaussian 16 at Wed Apr  9 18:00:11 2025.
