 Gaussian 16, Revision C.01,

 ----------------------------------------------------------------------
 #t hf aug-cc-pvdz symm=none int=(grid=ultrafine) guess=(read,tcheck) s
 table=(opt,rrhf)
 ----------------------------------------------------------------------
 -----
 title
 -----
 Symbolic Z-matrix:
 Charge =  0 Multiplicity = 1

 SCF Done:  E(RHF) =  -325.048444593     A.U. after   13 cycles
 Normal termination of Gaussian 16 at Wed Apr  9 18:51:03 2025.
 Gaussian 16:  ES64L-G16RevC.01  3-Jul-2019

 ----------------------------------------------------------------------
 #t hf aug-cc-pvdz iop(5/13=1,5/36=2,99/5=2) pseudo=read geom=check gue
 ss=(read,tcheck) scf=(maxcycle=1)
 ----------------------------------------------------------------------
 -----
 title
 -----
 Structure from the checkpoint file:  "Grambow2020_wb97xd3_008121_reverse_mol2.chk"
 Charge =  0 Multiplicity = 1

                         Standard orientation:
 ---------------------------------------------------------------------
 Center     Atomic      Atomic             Coordinates (Angstroms)
 Number     Number       Type             X           Y           Z
 ---------------------------------------------------------------------
      1          6           0        2.516569   -0.164669    0.010137
      2          7           0        1.286062   -0.190439   -0.753220
      3          6           0        0.107238    0.151010   -0.027163
      4          8           0       -0.077951    1.526636    0.119902
      5          6           0       -1.126111   -0.651653   -0.244976
      6          6           0       -0.406488   -0.725677    1.089007
      7          6           0       -2.476985    0.001537   -0.353588
      8          1           0        3.346576   -0.471338   -0.626594
      9          1           0        2.502340   -0.809813    0.901439
     10          1           0        2.726218    0.856497    0.337071
     11          1           0        1.169199   -1.054750   -1.257578
     12          1           0       -0.995587   -1.522247   -0.881423
     13          1           0        0.143448   -1.628035    1.326316
     14          1           0       -0.891355   -0.247596    1.932102
     15          1           0        0.408548    1.820537    0.891731
     16          1           0       -3.263588   -0.680895   -0.024932
     17          1           0       -2.522390    0.901546    0.259087
     18          1           0       -2.687575    0.292798   -1.384402
 ---------------------------------------------------------------------

 SCF Done:  E(RHF) =  -325.396441319     A.U. after    2 cycles

 The electronic state is 1-A.
 Alpha  occ. eigenvalues --  -20.54761 -15.48561 -11.31110 -11.25449 -11.23619
 Alpha  occ. eigenvalues --  -11.22786 -11.21982  -1.46209  -1.21689  -1.12300
 Alpha  occ. eigenvalues --   -0.96467  -0.92579  -0.81689  -0.79301  -0.72396
 Alpha  occ. eigenvalues --   -0.68047  -0.65886  -0.60720  -0.60067  -0.59017
 Alpha  occ. eigenvalues --   -0.56963  -0.54219  -0.53148  -0.50672  -0.49200
 Alpha  occ. eigenvalues --   -0.44556  -0.41499  -0.38074
 Alpha virt. eigenvalues --    0.03466   0.03893   0.04173   0.04493   0.05367
 Alpha virt. eigenvalues --    0.05794   0.05929   0.06928   0.08052   0.09012
 Alpha virt. eigenvalues --    0.09486   0.11942   0.13325   0.13508   0.14102

 Mulliken charges:
               1
     1  C   -0.399127
     2  N    0.530281
     3  C    0.475172
     4  O   -1.535100
     5  C    0.145073
     6  C    0.329482
     7  C   -0.599159
     8  H    0.038122
     9  H    0.164295
    10  H    0.142179
    11  H    0.334055
    12  H   -0.242558
    13  H   -0.134601
    14  H   -0.110897
    15  H    0.255952
    16  H    0.207190
    17  H    0.192440
    18  H    0.207202
 Sum of Mulliken charges =  -0.00000

 Dipole moment (field-independent basis, Debye):
    X=              0.7183    Y=             -1.6384    Z=              1.4821  Tot=              2.3231

 Test job not archived.
 1\1\GINC-SE112\SP\RHF\Aug-CC-pVDZ\C5H11N1O1\OHZDE\09-Apr-2025\0\\#t hf
  aug-cc-pvdz iop(5/13=1,5/36=2,99/5=2) pseudo=read geom=check guess=(r
 ead,tcheck) scf=(maxcycle=1)\\title\\0,1\C,0,2.53411808,-0.2936211,-0.
 09165407\N,0,1.4166998,0.60801161,-0.28128402\C,0,0.17726779,0.1729985
 1,0.27364298\O,0,0.06579872,0.41203546,1.64430163\C,0,-1.06677919,0.35
 455337,-0.52149632\C,0,-0.53686775,-1.04372688,-0.26293793\C,0,-2.3450
 4026,0.8220652,0.11943575\H,0,3.41904863,0.11562766,-0.57929826\H,0,2.
 35912054,-1.3086742,-0.47879115\H,0,2.76578705,-0.37470378,0.97294616\

 Normal termination of Gaussian 16 at Wed Apr  9 18:51:10 2025.
