 Gaussian 16, Revision C.01,

 ----------------------------------------------------------------------
 #t hf aug-cc-pvdz symm=none int=(grid=ultrafine) guess=(read,tcheck) s
 table=(opt,rrhf)
 ----------------------------------------------------------------------
 -----
 title
 -----
 Symbolic Z-matrix:
 Charge =  0 Multiplicity = 1

 SCF Done:  E(RHF) =  -323.701827849     A.U. after   16 cycles
 Normal termination of Gaussian 16 at Wed Apr  9 17:54:08 2025.
 Gaussian 16:  ES64L-G16RevC.01  3-Jul-2019

 ----------------------------------------------------------------------
 #t hf aug-cc-pvdz iop(5/13=1,5/36=2,99/5=2) pseudo=read geom=check gue
 ss=(read,tcheck) scf=(maxcycle=1)
 ----------------------------------------------------------------------
 -----
 title
 -----
 Structure from the checkpoint file:  "Grambow2020_wb97xd3_006869_reverse_mol1.chk"
 Charge =  0 Multiplicity = 1

                         Standard orientation:
 ---------------------------------------------------------------------
 Center     Atomic      Atomic             Coordinates (Angstroms)
 Number     Number       Type             X           Y           Z
 ---------------------------------------------------------------------
      1          6           0        2.213198    0.287105   -0.884368
      2          7           0        1.185075    0.286584   -0.053444
      3          6           0        1.006510   -0.145524    1.198263
      4          6           0        0.101268   -0.661928    0.128756
      5          6           0       -1.301464   -0.181387   -0.102218
      6          8           0       -2.158303   -0.985577   -0.373449
      7          6           0       -1.594835    1.287051    0.069213
      8          1           0        2.834391   -1.147917    0.233462
      9          1           0        3.055661    0.918995   -0.633743
     10          1           0        2.021055    0.055816   -1.924370
     11          1           0        2.367542   -1.124649    0.953743
     12          1           0        0.856906    0.399145    2.116311
     13          1           0        0.279437   -1.684123   -0.209794
     14          1           0       -2.619890    1.482239   -0.235605
     15          1           0       -1.469342    1.569663    1.116686
     16          1           0       -0.902922    1.897454   -0.512871
 ---------------------------------------------------------------------

 SCF Done:  E(RHF) =  -324.042337153     A.U. after    2 cycles

 The electronic state is 1-A.
 Alpha  occ. eigenvalues --  -20.54029 -15.58753 -11.34464 -11.31657 -11.29965
 Alpha  occ. eigenvalues --  -11.28223 -11.24725  -1.47908  -1.36739  -1.09472
 Alpha  occ. eigenvalues --   -1.02511  -0.92448  -0.82302  -0.77971  -0.73852
 Alpha  occ. eigenvalues --   -0.71150  -0.68543  -0.63130  -0.61682  -0.61281
 Alpha  occ. eigenvalues --   -0.56004  -0.54839  -0.53549  -0.49309  -0.46110
 Alpha  occ. eigenvalues --   -0.42070  -0.31325
 Alpha virt. eigenvalues --    0.02995   0.03856   0.04107   0.04647   0.05607
 Alpha virt. eigenvalues --    0.05911   0.06630   0.06903   0.07637   0.09002
 Alpha virt. eigenvalues --    0.10568   0.10701   0.12209   0.13298   0.13971

 Mulliken charges:
               1
     1  C   -0.216024
     2  N    1.232571
     3  C   -0.064330
     4  C   -0.211854
     5  C    0.964896
     6  O   -1.360583
     7  C   -0.627393
     8  H   -0.115997
     9  H    0.007135
    10  H   -0.017362
    11  H    0.348155
    12  H   -0.274634
    13  H   -0.310087
    14  H    0.089020
    15  H    0.273241
    16  H    0.283247
 Sum of Mulliken charges =   0.00000

 Dipole moment (field-independent basis, Debye):
    X=              1.7898    Y=              2.9825    Z=             -0.1182  Tot=              3.4803

 Test job not archived.
 1\1\GINC-SE454\SP\RHF\Aug-CC-pVDZ\C5H9N1O1\OHZDE\09-Apr-2025\0\\#t hf
 aug-cc-pvdz iop(5/13=1,5/36=2,99/5=2) pseudo=read geom=check guess=(re
 ad,tcheck) scf=(maxcycle=1)\\title\\0,1\C,0,0.97332135,0.16631013,-1.8
 8090708\N,0,0.60938155,0.14677761,-0.61022356\C,0,1.17501192,-0.317359
 7,0.50781529\C,0,-0.18904514,-0.80336185,0.14294364\C,0,-1.46139365,-0
 .31334071,0.76978848\O,0,-2.3321319,-1.10797008,1.02442652\C,0,-1.5778
 5998,1.1508801,1.10780782\H,0,2.09933367,-1.29897032,-1.35198311\H,0,1
 .81751096,0.78927334,-2.14756095\H,0,0.21462516,-0.03728458,-2.6258541

 Normal termination of Gaussian 16 at Wed Apr  9 17:54:13 2025.
