 Gaussian 16, Revision C.01,

 ----------------------------------------------------------------------
 #t hf aug-cc-pvdz symm=none int=(grid=ultrafine) guess=(read,tcheck) s
 table=(opt,rrhf)
 ----------------------------------------------------------------------
 -----
 title
 -----
 Symbolic Z-matrix:
 Charge =  0 Multiplicity = 1

 SCF Done:  E(RHF) =  -343.534200823     A.U. after   17 cycles
 Normal termination of Gaussian 16 at Wed Apr  9 18:31:34 2025.
 Gaussian 16:  ES64L-G16RevC.01  3-Jul-2019

 ----------------------------------------------------------------------
 #t hf aug-cc-pvdz iop(5/13=1,5/36=2,99/5=2) pseudo=read geom=check gue
 ss=(read,tcheck) scf=(maxcycle=1)
 ----------------------------------------------------------------------
 -----
 title
 -----
 Structure from the checkpoint file:  "Grambow2020_wb97xd3_007672_reverse_mol2.chk"
 Charge =  0 Multiplicity = 1

                         Standard orientation:
 ---------------------------------------------------------------------
 Center     Atomic      Atomic             Coordinates (Angstroms)
 Number     Number       Type             X           Y           Z
 ---------------------------------------------------------------------
      1          6           0        0.805446    1.742750   -0.295528
      2          6           0       -0.006729    0.738210    0.544483
      3          6           0       -1.394365    0.725616    0.005890
      4          8           0       -1.456577   -0.405333   -0.771013
      5          6           0       -0.405824   -1.244807   -0.727415
      6          6           0        0.458602   -0.707832    0.360035
      7          8           0        1.828239   -0.895933    0.171851
      8          1           0        0.386401    2.743262   -0.203631
      9          1           0        0.814307    1.462026   -1.349822
     10          1           0        1.834184    1.743471    0.059017
     11          1           0       -0.032504    1.082715    1.579422
     12          1           0       -2.537750   -0.330379    2.118179
     13          1           0       -2.220629   -0.901292    2.481274
     14          1           0        0.095265   -1.291186    1.232108
     15          1           0        1.944655   -1.622114   -0.448035
 ---------------------------------------------------------------------

 SCF Done:  E(RHF) =  -343.880564585     A.U. after    2 cycles

 The electronic state is 1-A.
 Alpha  occ. eigenvalues --  -20.64632 -20.57717 -11.33975 -11.33929 -11.31529
 Alpha  occ. eigenvalues --  -11.26534 -11.25629  -1.58111  -1.48658  -1.12132
 Alpha  occ. eigenvalues --   -1.02079  -0.95076  -0.83324  -0.80667  -0.72224
 Alpha  occ. eigenvalues --   -0.67077  -0.66899  -0.62685  -0.61224  -0.59586
 Alpha  occ. eigenvalues --   -0.56180  -0.55913  -0.55050  -0.52870  -0.46916
 Alpha  occ. eigenvalues --   -0.41283  -0.39282
 Alpha virt. eigenvalues --    0.03329   0.03671   0.04085   0.04317   0.05519
 Alpha virt. eigenvalues --    0.06129   0.06624   0.07337   0.08302   0.08981
 Alpha virt. eigenvalues --    0.10319   0.11364   0.13145   0.13654   0.14382

 Mulliken charges:
               1
     1  C   -0.072297
     2  C   -1.039253
     3  C    0.662447
     4  O   -1.129305
     5  C    0.328994
     6  C    1.292662
     7  O   -1.362371
     8  H    0.168621
     9  H    0.174122
    10  H    0.239209
    11  H    0.098764
    12  H    0.038629
    13  H   -0.011619
    14  H    0.297213
    15  H    0.314185
 Sum of Mulliken charges =   0.00000

 Dipole moment (field-independent basis, Debye):
    X=              1.7974    Y=              0.2998    Z=              1.2639  Tot=              2.2176

 Test job not archived.
 1\1\GINC-SE220\SP\RHF\Aug-CC-pVDZ\C5H8O2\OHZDE\09-Apr-2025\0\\#t hf au
 g-cc-pvdz iop(5/13=1,5/36=2,99/5=2) pseudo=read geom=check guess=(read
 ,tcheck) scf=(maxcycle=1)\\title\\0,1\C,0,1.73605449,-0.60452084,0.168
 03781\C,0,0.44211139,0.21321472,0.34514255\C,0,0.45724249,1.29824871,-
 0.67380164\O,0,-0.37440778,0.85136769,-1.67137318\C,0,-1.07387376,-0.2
 7390131,-1.43639231\C,0,-0.81856197,-0.58174016,-0.00175855\O,0,-0.797
 9401,-1.94033246,0.31526377\H,0,2.60958835,0.02227341,0.33872764\H,0,1
 .80131583,-1.03119061,-0.83401757\H,0,1.73068393,-1.42598786,0.8815971

 Normal termination of Gaussian 16 at Wed Apr  9 18:31:39 2025.
