 Gaussian 16, Revision C.01,

 ----------------------------------------------------------------------
 #t hf aug-cc-pvdz symm=none int=(grid=ultrafine) guess=(read,tcheck) s
 table=(opt,rrhf)
 ----------------------------------------------------------------------
 -----
 title
 -----
 Symbolic Z-matrix:
 Charge =  0 Multiplicity = 1

 SCF Done:  E(RHF) =  -307.747276813     A.U. after   15 cycles

 1\1\GINC-SE362\Stability\RHF\Aug-CC-pVDZ\C6H10O1\OHZDE\09-Apr-2025\0\\
 #t hf aug-cc-pvdz symm=none int=(grid=ultrafine) guess=(read,tcheck) s
 table=(opt,rrhf)\\title\\0,1\C,0,2.16553058,0.03199345,0.04878861\C,0,
 0.68513374,-0.154336,0.01547857\C,0,0.03957224,-1.24334738,0.40604805\
 C,0,-1.44060001,-1.30342869,0.28288097\C,0,-1.61460709,0.7956099,-0.11
 591016\C,0,-0.15877807,0.99972183,-0.48915653\O,0,0.21587017,2.2257267
 4,0.13236634\H,0,2.42029148,0.91150651,0.64210556\H,0,2.5521325,0.2070
 4123,-0.95904126\H,0,2.66841234,-0.83987478,0.46677734\H,0,0.55491028,

 Normal termination of Gaussian 16 at Wed Apr  9 18:34:34 2025.
 Gaussian 16:  ES64L-G16RevC.01  3-Jul-2019

 ----------------------------------------------------------------------
 #t hf aug-cc-pvdz iop(5/13=1,5/36=2,99/5=2) pseudo=read geom=check gue
 ss=(read,tcheck) scf=(maxcycle=1)
 ----------------------------------------------------------------------
 -----
 title
 -----
 Structure from the checkpoint file:  "Grambow2020_wb97xd3_007730_forward_mol1.chk"
 Charge =  0 Multiplicity = 1

                         Standard orientation:
 ---------------------------------------------------------------------
 Center     Atomic      Atomic             Coordinates (Angstroms)
 Number     Number       Type             X           Y           Z
 ---------------------------------------------------------------------
      1          6           0       -1.684039   -1.374170    0.084924
      2          6           0       -0.362413   -0.680844    0.087538
      3          6           0        0.803217   -1.249446   -0.183087
      4          6           0        2.049143   -0.442186   -0.107663
      5          6           0        0.984005    1.414335    0.011028
      6          6           0       -0.345073    0.800918    0.408123
      7          8           0       -1.321934    1.506587   -0.351820
      8          1           0       -2.366934   -0.878659   -0.606881
      9          1           0       -2.144808   -1.323680    1.075361
     10          1           0       -1.584805   -2.421789   -0.198635
     11          1           0        0.890086   -2.299450   -0.441205
     12          1           0        2.512672   -0.193518   -1.056169
     13          1           0        2.803355   -0.898711    0.547606
     14          1           0        1.881039    0.479482    0.578655
     15          1           0        1.447280    1.984988    0.835306
     16          1           0       -0.653988    0.948683    1.452110
     17          1           0       -0.877458    1.738316   -1.176763
 ---------------------------------------------------------------------

 SCF Done:  E(RHF) =  -308.070159653     A.U. after    2 cycles

 The electronic state is 1-A.
 Alpha  occ. eigenvalues --  -20.54007 -11.29122 -11.28394 -11.26057 -11.24570
 Alpha  occ. eigenvalues --  -11.24103 -11.22994  -1.44516  -1.13596  -1.02343
 Alpha  occ. eigenvalues --   -0.97661  -0.91355  -0.81974  -0.74549  -0.68020
 Alpha  occ. eigenvalues --   -0.64451  -0.62883  -0.61956  -0.60801  -0.56615
 Alpha  occ. eigenvalues --   -0.54112  -0.53176  -0.52241  -0.50046  -0.43246
 Alpha  occ. eigenvalues --   -0.36721  -0.34984
 Alpha virt. eigenvalues --    0.03019   0.03577   0.03829   0.04596   0.05600
 Alpha virt. eigenvalues --    0.05824   0.06429   0.07733   0.08420   0.09064
 Alpha virt. eigenvalues --    0.11161   0.11869   0.12496   0.12724   0.13794

 Mulliken charges:
               1
     1  C   -0.643271
     2  C    0.221388
     3  C    0.405530
     4  C   -0.714313
     5  C   -0.653597
     6  C    0.830987
     7  O   -1.298809
     8  H    0.274119
     9  H    0.253829
    10  H    0.097858
    11  H   -0.214631
    12  H    0.265189
    13  H    0.199186
    14  H    0.439439
    15  H    0.132095
    16  H    0.120928
    17  H    0.284076
 Sum of Mulliken charges =  -0.00000

 Dipole moment (field-independent basis, Debye):
    X=              1.8882    Y=             -2.2492    Z=              1.0083  Tot=              3.1049

 Test job not archived.
 1\1\GINC-SE362\SP\RHF\Aug-CC-pVDZ\C6H10O1\OHZDE\09-Apr-2025\0\\#t hf a
 ug-cc-pvdz iop(5/13=1,5/36=2,99/5=2) pseudo=read geom=check guess=(rea
 d,tcheck) scf=(maxcycle=1)\\title\\0,1\C,0,2.16553058,0.03199345,0.048
 78861\C,0,0.68513374,-0.154336,0.01547857\C,0,0.03957224,-1.24334738,0
 .40604805\C,0,-1.44060001,-1.30342869,0.28288097\C,0,-1.61460709,0.795
 6099,-0.11591016\C,0,-0.15877807,0.99972183,-0.48915653\O,0,0.21587017
 ,2.22572674,0.13236634\H,0,2.42029148,0.91150651,0.64210556\H,0,2.5521
 325,0.20704123,-0.95904126\H,0,2.66841234,-0.83987478,0.46677734\H,0,0

 Normal termination of Gaussian 16 at Wed Apr  9 18:34:39 2025.
