 Gaussian 16, Revision C.01,

 ----------------------------------------------------------------------
 #t hf aug-cc-pvdz symm=none int=(grid=ultrafine) guess=(read,tcheck) s
 table=(opt,rrhf)
 ----------------------------------------------------------------------
 -----
 title
 -----
 Symbolic Z-matrix:
 Charge =  0 Multiplicity = 1

 SCF Done:  E(RHF) =  -283.461439706     A.U. after   17 cycles
 Normal termination of Gaussian 16 at Wed Apr  9 03:09:45 2025.
 Gaussian 16:  ES64L-G16RevC.01  3-Jul-2019

 ----------------------------------------------------------------------
 #t hf aug-cc-pvdz iop(5/13=1,5/36=2,99/5=2) pseudo=read geom=check gue
 ss=(read,tcheck) scf=(maxcycle=1)
 ----------------------------------------------------------------------
 -----
 title
 -----
 Structure from the checkpoint file:  "Grambow2020_b97d3_006666_forward_mol1.chk"
 Charge =  0 Multiplicity = 1

                         Standard orientation:
 ---------------------------------------------------------------------
 Center     Atomic      Atomic             Coordinates (Angstroms)
 Number     Number       Type             X           Y           Z
 ---------------------------------------------------------------------
      1          7           0        1.967519   -0.803037   -0.167418
      2          6           0        1.632469    0.232915    0.404966
      3          6           0        0.489458    1.114126    0.057008
      4          6           0       -0.590759    0.148623   -0.499290
      5          6           0       -1.231270   -0.928469    0.271405
      6          8           0       -1.887659    0.334926   -0.074042
      7          1           0        0.873858    1.805798   -0.704061
      8          1           0        0.041678    1.708185    0.867699
      9          1           0        1.263096   -1.121971   -0.899484
     10          1           0       -1.611345   -1.810879   -0.246661
     11          1           0       -1.038040   -1.042453    1.342230
 ---------------------------------------------------------------------

 SCF Done:  E(RHF) =  -283.744921940     A.U. after    2 cycles

 The electronic state is 1-A.
 Alpha  occ. eigenvalues --  -20.60312 -15.53519 -11.34519 -11.32806 -11.32535
 Alpha  occ. eigenvalues --  -11.31236  -1.53616  -1.26097  -1.05971  -0.95473
 Alpha  occ. eigenvalues --   -0.83621  -0.78514  -0.71142  -0.69546  -0.67107
 Alpha  occ. eigenvalues --   -0.63409  -0.58359  -0.53680  -0.51632  -0.49047
 Alpha  occ. eigenvalues --   -0.48024  -0.29375
 Alpha virt. eigenvalues --   -0.02109   0.03710   0.04021   0.04422   0.05725
 Alpha virt. eigenvalues --    0.06223   0.07769   0.09153   0.10540   0.11302
 Alpha virt. eigenvalues --    0.11902   0.13504   0.14510   0.14995   0.15661

 Mulliken charges:
               1
     1  N    0.802245
     2  C   -1.202073
     3  C   -0.168462
     4  C    0.430550
     5  C    0.460076
     6  O   -1.122347
     7  H    0.335059
     8  H    0.249976
     9  H    0.161403
    10  H    0.043108
    11  H    0.010464
 Sum of Mulliken charges =   0.00000

 Dipole moment (field-independent basis, Debye):
    X=             -1.5554    Y=              0.6515    Z=              0.5172  Tot=              1.7638

 Test job not archived.
 1\1\GINC-SE041\SP\RHF\Aug-CC-pVDZ\C4H5N1O1\OHZDE\09-Apr-2025\0\\#t hf
 aug-cc-pvdz iop(5/13=1,5/36=2,99/5=2) pseudo=read geom=check guess=(re
 ad,tcheck) scf=(maxcycle=1)\\title\\0,1\N,0,1.85519421,0.73018667,0.76
 856798\C,0,1.71490651,-0.08141259,-0.14505421\C,0,0.61334316,-1.064048
 09,-0.30337927\C,0,-0.6268649,-0.36004005,0.30881929\C,0,-1.2230856,0.
 88433762,-0.20147204\O,0,-1.81223562,-0.4440133,-0.38784341\H,0,0.9252
 0819,-1.94832354,0.26775736\H,0,0.36271776,-1.3849253,-1.32556269\H,0,
 1.01240473,0.77779087,1.4176374\H,0,-1.76205314,1.54439599,0.48068214\

 Normal termination of Gaussian 16 at Wed Apr  9 03:09:49 2025.
