 Gaussian 16, Revision C.01,

 ----------------------------------------------------------------------
 #t hf aug-cc-pvdz symm=none int=(grid=ultrafine) guess=(read,tcheck) s
 table=(opt,rrhf)
 ----------------------------------------------------------------------
 -----
 title
 -----
 Symbolic Z-matrix:
 Charge =  0 Multiplicity = 1

 SCF Done:  E(RHF) =  -322.687714459     A.U. after   14 cycles
 Normal termination of Gaussian 16 at Wed Apr  9 03:33:23 2025.
 Gaussian 16:  ES64L-G16RevC.01  3-Jul-2019

 ----------------------------------------------------------------------
 #t hf aug-cc-pvdz iop(5/13=1,5/36=2,99/5=2) pseudo=read geom=check gue
 ss=(read,tcheck) scf=(maxcycle=1)
 ----------------------------------------------------------------------
 -----
 title
 -----
 Structure from the checkpoint file:  "Grambow2020_wb97xd3_007007_reverse_mol2.chk"
 Charge =  0 Multiplicity = 1

                         Standard orientation:
 ---------------------------------------------------------------------
 Center     Atomic      Atomic             Coordinates (Angstroms)
 Number     Number       Type             X           Y           Z
 ---------------------------------------------------------------------
      1          6           0       -1.892815   -0.722973   -0.297464
      2          6           0       -0.571558   -0.722640    0.552862
      3          6           0        0.698495   -1.234055   -0.026087
      4          6           0        1.790392   -0.481514   -0.201230
      5          7           0        1.950086    0.841405    0.137634
      6          6           0       -1.173920    0.504341    0.027494
      7          8           0       -1.074332    1.687633   -0.108914
      8          1           0        1.116752    1.393366    0.276525
      9          1           0       -2.818686   -0.943887    0.220648
     10          1           0       -1.830540   -1.089260   -1.316185
     11          1           0       -0.747462   -0.913883    1.610661
     12          1           0        0.749977   -2.285344   -0.280828
     13          1           0        2.684244   -0.946326   -0.604288
     14          1           0        2.686218    1.335479   -0.332111
 ---------------------------------------------------------------------

 SCF Done:  E(RHF) =  -323.019049023     A.U. after    2 cycles

 The electronic state is 1-A.
 Alpha  occ. eigenvalues --  -20.55891 -15.50498 -11.35546 -11.28378 -11.26182
 Alpha  occ. eigenvalues --  -11.25791 -11.22339  -1.49075  -1.21993  -1.16964
 Alpha  occ. eigenvalues --   -1.01758  -0.87597  -0.80731  -0.75624  -0.73935
 Alpha  occ. eigenvalues --   -0.69001  -0.68469  -0.63491  -0.60965  -0.59040
 Alpha  occ. eigenvalues --   -0.54309  -0.52601  -0.51519  -0.46805  -0.39340
 Alpha  occ. eigenvalues --   -0.33030
 Alpha virt. eigenvalues --    0.03403   0.03623   0.04247   0.04682   0.05750
 Alpha virt. eigenvalues --    0.06517   0.07633   0.09845   0.10668   0.11379
 Alpha virt. eigenvalues --    0.12275   0.12664   0.12885   0.13755   0.15054

 Mulliken charges:
               1
     1  C    0.013977
     2  C    0.136343
     3  C    0.529068
     4  C   -0.879963
     5  N    0.599747
     6  C    1.105031
     7  O   -1.238181
     8  H    0.015502
     9  H   -0.003712
    10  H    0.003815
    11  H   -0.005863
    12  H   -0.205369
    13  H   -0.212534
    14  H    0.142139
 Sum of Mulliken charges =  -0.00000

 Dipole moment (field-independent basis, Debye):
    X=              0.3904    Y=             -1.9784    Z=             -0.4259  Tot=              2.0611

 Test job not archived.
 1\1\GINC-SE336\SP\RHF\Aug-CC-pVDZ\C5H7N1O1\OHZDE\09-Apr-2025\0\\#t hf
 aug-cc-pvdz iop(5/13=1,5/36=2,99/5=2) pseudo=read geom=check guess=(re
 ad,tcheck) scf=(maxcycle=1)\\title\\0,1\C,0,-2.02565044,-0.08224512,-0
 .37105238\C,0,-0.54149492,0.20852357,-0.79709198\C,0,0.32477853,1.0839
 8228,0.03531554\C,0,1.44869902,0.66751895,0.62911132\N,0,2.01027868,-0
 .5854647,0.55766701\C,0,-0.97634508,-1.09223913,-0.28400617\O,0,-0.652
 74992,-2.19169645,0.05538322\H,0,1.41601839,-1.34967977,0.27266388\H,0
 ,-2.76484374,-0.15743606,-1.15998728\H,0,-2.37555705,0.36248991,0.5539

 Normal termination of Gaussian 16 at Wed Apr  9 03:33:28 2025.
