 Gaussian 16, Revision C.01,

 ----------------------------------------------------------------------
 #t hf aug-cc-pvdz symm=none int=(grid=ultrafine) guess=(read,tcheck) s
 table=(opt,rrhf)
 ----------------------------------------------------------------------
 -----
 title
 -----
 Symbolic Z-matrix:
 Charge =  0 Multiplicity = 1

 SCF Done:  E(RHF) =  -305.883948317     A.U. after   14 cycles
 Normal termination of Gaussian 16 at Wed Apr  9 16:01:56 2025.
 Gaussian 16:  ES64L-G16RevC.01  3-Jul-2019

 ----------------------------------------------------------------------
 #t hf aug-cc-pvdz iop(5/13=1,5/36=2,99/5=2) pseudo=read geom=check gue
 ss=(read,tcheck) scf=(maxcycle=1)
 ----------------------------------------------------------------------
 -----
 title
 -----
 Structure from the checkpoint file:  "Grambow2020_b97d3_007098_reverse_mol2.chk"
 Charge =  0 Multiplicity = 1

                         Standard orientation:
 ---------------------------------------------------------------------
 Center     Atomic      Atomic             Coordinates (Angstroms)
 Number     Number       Type             X           Y           Z
 ---------------------------------------------------------------------
      1          6           0       -1.832771   -1.234235   -0.066691
      2          6           0       -1.675193   -0.009952    0.470115
      3          6           0       -1.647587    1.280856   -0.293903
      4          8           0        1.686048    1.101830    0.168818
      5          6           0        2.126790   -0.014304   -0.025059
      6          8           0        1.413161   -1.149082   -0.149501
      7          1           0        0.449145   -0.928456   -0.051182
      8          1           0       -1.843697   -2.133722    0.550280
      9          1           0       -1.980887   -1.369667   -1.140207
     10          1           0       -1.537840    0.072905    1.553126
     11          1           0       -0.671956    1.770744   -0.161016
     12          1           0       -2.418071    1.971510    0.081921
     13          1           0       -1.817501    1.118839   -1.366831
     14          1           0        3.199703   -0.258324   -0.127406
 ---------------------------------------------------------------------

 SCF Done:  E(RHF) =  -306.198088606     A.U. after    2 cycles

 The electronic state is 1-A.
 Alpha  occ. eigenvalues --  -20.60217 -20.54834 -11.40363 -11.26311 -11.24657
 Alpha  occ. eigenvalues --  -11.23476  -1.54029  -1.45261  -1.07688  -0.94188
 Alpha  occ. eigenvalues --   -0.88797  -0.77241  -0.71409  -0.70614  -0.65720
 Alpha  occ. eigenvalues --   -0.61976  -0.60349  -0.59283  -0.56878  -0.53489
 Alpha  occ. eigenvalues --   -0.50950  -0.47660  -0.45492  -0.38307
 Alpha virt. eigenvalues --    0.03845   0.04111   0.04273   0.04478   0.06564
 Alpha virt. eigenvalues --    0.06975   0.07630   0.08453   0.09483   0.11401
 Alpha virt. eigenvalues --    0.11994   0.12689   0.14334   0.15252   0.15619

 Mulliken charges:
               1
     1  C   -0.054639
     2  C    0.412075
     3  C   -0.605848
     4  O   -0.976891
     5  C    1.434976
     6  O   -1.171560
     7  H    0.651156
     8  H   -0.105081
     9  H   -0.106826
    10  H   -0.133944
    11  H    0.209259
    12  H    0.194884
    13  H    0.133947
    14  H    0.118491
 Sum of Mulliken charges =  -0.00000

 Dipole moment (field-independent basis, Debye):
    X=             -0.5439    Y=             -1.0859    Z=             -0.1280  Tot=              1.2212

 Test job not archived.
 1\1\GINC-SE173\SP\RHF\Aug-CC-pVDZ\C4H8O2\OHZDE\09-Apr-2025\0\\#t hf au
 g-cc-pvdz iop(5/13=1,5/36=2,99/5=2) pseudo=read geom=check guess=(read
 ,tcheck) scf=(maxcycle=1)\\title\\0,1\C,0,-0.72836406,1.66305369,-0.12
 943992\C,0,-1.13106536,0.41666392,-0.43960814\C,0,-1.52085273,-0.64503
 328,0.54605726\O,0,1.53199073,-1.912591,-0.11175928\C,0,2.39599385,-1.
 0583611,-0.14900351\O,0,2.20674632,0.27362471,-0.19872273\H,0,1.229433
 51,0.45385908,-0.20535227\H,0,-0.45941042,2.38703925,-0.89973795\H,0,-
 0.68011712,2.00362911,0.90709174\H,0,-1.16960205,0.12645051,-1.4945652

 Normal termination of Gaussian 16 at Wed Apr  9 16:02:00 2025.
