 Gaussian 16, Revision C.01,

 ----------------------------------------------------------------------
 #t hf aug-cc-pvdz symm=none int=(grid=ultrafine) guess=(read,tcheck) s
 table=(opt,rrhf)
 ----------------------------------------------------------------------
 -----
 title
 -----
 Symbolic Z-matrix:
 Charge =  0 Multiplicity = 1

 SCF Done:  E(RHF) =  -344.862330145     A.U. after   13 cycles

 1\1\GINC-SE456\Stability\RHF\Aug-CC-pVDZ\C5H10O2\OHZDE\09-Apr-2025\0\\
 #t hf aug-cc-pvdz symm=none int=(grid=ultrafine) guess=(read,tcheck) s
 table=(opt,rrhf)\\title\\0,1\C,0,-2.37731971,0.20004382,-0.10276094\C,
 0,-1.58598503,-1.06253293,-0.26102646\O,0,-0.26242729,-0.93558056,-0.7
 8734207\C,0,-0.42224359,-1.36294711,0.56578435\C,0,2.77643422,0.393747
 79,0.22026449\C,0,2.03646158,1.49415041,0.14224984\O,0,0.81972844,1.61
 392381,-0.42231397\H,0,-3.23396517,0.02231627,0.55025125\H,0,-1.765108
 64,0.99225183,0.32960669\H,0,-2.75253984,0.54180118,-1.06880882\H,0,-2

 Normal termination of Gaussian 16 at Wed Apr  9 03:34:27 2025.
 Gaussian 16:  ES64L-G16RevC.01  3-Jul-2019

 ----------------------------------------------------------------------
 #t hf aug-cc-pvdz iop(5/13=1,5/36=2,99/5=2) pseudo=read geom=check gue
 ss=(read,tcheck) scf=(maxcycle=1)
 ----------------------------------------------------------------------
 -----
 title
 -----
 Structure from the checkpoint file:  "Grambow2020_wb97xd3_007088_reverse_mol2.chk"
 Charge =  0 Multiplicity = 1

                         Standard orientation:
 ---------------------------------------------------------------------
 Center     Atomic      Atomic             Coordinates (Angstroms)
 Number     Number       Type             X           Y           Z
 ---------------------------------------------------------------------
      1          6           0       -2.211254    1.109750    0.268411
      2          6           0       -2.006985   -0.326096   -0.108388
      3          8           0       -0.777060   -0.656230   -0.758948
      4          6           0       -1.018291   -1.172700    0.550327
      5          6           0        2.591858   -0.783552    0.048048
      6          6           0        2.355597    0.518066    0.168476
      7          8           0        1.260581    1.184327   -0.244506
      8          1           0       -3.028044    1.192523    0.988033
      9          1           0       -1.307909    1.528324    0.713496
     10          1           0       -2.471106    1.703926   -0.609238
     11          1           0       -2.859544   -0.824658   -0.563644
     12          1           0        0.608213    0.558688   -0.609220
     13          1           0       -0.390830   -0.747169    1.328512
     14          1           0       -1.160991   -2.247360    0.593543
     15          1           0        1.889879   -1.451848   -0.436748
     16          1           0        3.515579   -1.196907    0.425922
     17          1           0        3.071041    1.186893    0.635732
 ---------------------------------------------------------------------

 SCF Done:  E(RHF) =  -345.222272333     A.U. after    2 cycles

 The electronic state is 1-A.
 Alpha  occ. eigenvalues --  -20.57588 -20.55371 -11.30919 -11.30202 -11.29283
 Alpha  occ. eigenvalues --  -11.24191 -11.20846  -1.51528  -1.47295  -1.03321
 Alpha  occ. eigenvalues --   -1.01367  -0.93550  -0.84102  -0.81363  -0.72319
 Alpha  occ. eigenvalues --   -0.67895  -0.66232  -0.65988  -0.60526  -0.57952
 Alpha  occ. eigenvalues --   -0.55875  -0.54703  -0.53663  -0.52910  -0.52594
 Alpha  occ. eigenvalues --   -0.46097  -0.45452  -0.33799
 Alpha virt. eigenvalues --    0.03166   0.03882   0.03983   0.04753   0.05565
 Alpha virt. eigenvalues --    0.06001   0.06864   0.07604   0.08257   0.09455
 Alpha virt. eigenvalues --    0.11560   0.12122   0.13588   0.14001   0.14214

 Mulliken charges:
               1
     1  C   -0.545798
     2  C    0.888526
     3  O   -1.327671
     4  C    0.483215
     5  C   -0.105465
     6  C    1.241714
     7  O   -1.450212
     8  H    0.225207
     9  H    0.109142
    10  H    0.240489
    11  H   -0.058541
    12  H    0.591241
    13  H   -0.021388
    14  H   -0.047007
    15  H   -0.086614
    16  H   -0.119152
    17  H   -0.017687
 Sum of Mulliken charges =  -0.00000

 Dipole moment (field-independent basis, Debye):
    X=             -2.4970    Y=             -0.9349    Z=              1.4150  Tot=              3.0185

 Test job not archived.
 1\1\GINC-SE456\SP\RHF\Aug-CC-pVDZ\C5H10O2\OHZDE\09-Apr-2025\0\\#t hf a
 ug-cc-pvdz iop(5/13=1,5/36=2,99/5=2) pseudo=read geom=check guess=(rea
 d,tcheck) scf=(maxcycle=1)\\title\\0,1\C,0,-2.37731971,0.20004382,-0.1
 0276094\C,0,-1.58598503,-1.06253293,-0.26102646\O,0,-0.26242729,-0.935
 58056,-0.78734207\C,0,-0.42224359,-1.36294711,0.56578435\C,0,2.7764342
 2,0.39374779,0.22026449\C,0,2.03646158,1.49415041,0.14224984\O,0,0.819
 72844,1.61392381,-0.42231397\H,0,-3.23396517,0.02231627,0.55025125\H,0
 ,-1.76510864,0.99225183,0.32960669\H,0,-2.75253984,0.54180118,-1.06880

 Normal termination of Gaussian 16 at Wed Apr  9 03:34:33 2025.
