 Gaussian 16, Revision C.01,

 ----------------------------------------------------------------------
 #t hf aug-cc-pvdz symm=none int=(grid=ultrafine) guess=(read,tcheck) s
 table=(opt,rrhf)
 ----------------------------------------------------------------------
 -----
 title
 -----
 Symbolic Z-matrix:
 Charge =  0 Multiplicity = 1

 SCF Done:  E(RHF) =  -344.841999481     A.U. after   15 cycles

 1\1\GINC-SE168\Stability\RHF\Aug-CC-pVDZ\C5H10O2\OHZDE\09-Apr-2025\0\\
 #t hf aug-cc-pvdz symm=none int=(grid=ultrafine) guess=(read,tcheck) s
 table=(opt,rrhf)\\title\\0,1\C,0,-1.8220358,-1.38743111,1.39914613\C,0
 ,-1.04715018,-0.22568039,0.88263269\C,0,0.99703502,0.53170674,-1.35636
 904\C,0,1.7974002,0.17588316,-0.10168813\O,0,1.62781672,1.10332053,0.9
 3930211\C,0,-0.44712537,0.89143412,-1.07395297\O,0,-1.15103614,-0.1858
 5271,-0.40651572\H,0,-1.13695261,-2.0108634,1.980853\H,0,-2.54606222,-
 1.00471351,2.12414426\H,0,-2.32648562,-1.98261819,0.63283975\H,0,1.443

 Normal termination of Gaussian 16 at Wed Apr  9 18:27:55 2025.
 Gaussian 16:  ES64L-G16RevC.01  3-Jul-2019

 ----------------------------------------------------------------------
 #t hf aug-cc-pvdz iop(5/13=1,5/36=2,99/5=2) pseudo=read geom=check gue
 ss=(read,tcheck) scf=(maxcycle=1)
 ----------------------------------------------------------------------
 -----
 title
 -----
 Structure from the checkpoint file:  "Grambow2020_wb97xd3_007594_reverse_mol2.chk"
 Charge =  0 Multiplicity = 1

                         Standard orientation:
 ---------------------------------------------------------------------
 Center     Atomic      Atomic             Coordinates (Angstroms)
 Number     Number       Type             X           Y           Z
 ---------------------------------------------------------------------
      1          6           0        2.663860   -0.546118    0.274956
      2          6           0        1.326093   -0.289478   -0.326220
      3          6           0       -1.498616    0.824254    0.412751
      4          6           0       -1.540281   -0.694938    0.590901
      5          8           0       -1.434028   -1.393372   -0.622961
      6          6           0       -0.372302    1.300357   -0.481400
      7          8           0        0.924751    0.890890    0.020099
      8          1           0        2.590574   -1.461862    0.868617
      9          1           0        3.350957   -0.788313   -0.540855
     10          1           0        3.062371    0.273133    0.879902
     11          1           0       -2.427299    1.162994   -0.055426
     12          1           0       -1.433598    1.303895    1.394004
     13          1           0       -2.491077   -0.975256    1.048893
     14          1           0       -0.750750   -1.003286    1.289179
     15          1           0       -0.494514   -1.344539   -0.876441
     16          1           0       -0.328299    2.388008   -0.521429
     17          1           0       -0.476667    0.900620   -1.489479
 ---------------------------------------------------------------------

 SCF Done:  E(RHF) =  -345.200432709     A.U. after    2 cycles

 The electronic state is 1-A.
 Alpha  occ. eigenvalues --  -20.61141 -20.52389 -11.30622 -11.30048 -11.27722
 Alpha  occ. eigenvalues --  -11.23845 -11.23565  -1.54240  -1.43194  -1.07851
 Alpha  occ. eigenvalues --   -1.01592  -0.93435  -0.83766  -0.77912  -0.71182
 Alpha  occ. eigenvalues --   -0.67563  -0.64955  -0.63747  -0.61607  -0.58929
 Alpha  occ. eigenvalues --   -0.56788  -0.55660  -0.53708  -0.53268  -0.49232
 Alpha  occ. eigenvalues --   -0.47170  -0.42423  -0.36360
 Alpha virt. eigenvalues --    0.03528   0.03751   0.03945   0.04696   0.05957
 Alpha virt. eigenvalues --    0.06257   0.06429   0.07041   0.08239   0.09128
 Alpha virt. eigenvalues --    0.10458   0.11872   0.13065   0.13708   0.14398

 Mulliken charges:
               1
     1  C   -0.537675
     2  C    0.252495
     3  C   -0.526286
     4  C    0.709874
     5  O   -1.186271
     6  C    0.609370
     7  O   -1.115688
     8  H    0.226743
     9  H    0.219193
    10  H    0.105766
    11  H    0.186095
    12  H    0.183660
    13  H   -0.019512
    14  H    0.198611
    15  H    0.473120
    16  H   -0.024528
    17  H    0.245035
 Sum of Mulliken charges =  -0.00000

 Dipole moment (field-independent basis, Debye):
    X=              1.1660    Y=              2.1215    Z=              1.2146  Tot=              2.7084

 Test job not archived.
 1\1\GINC-SE168\SP\RHF\Aug-CC-pVDZ\C5H10O2\OHZDE\09-Apr-2025\0\\#t hf a
 ug-cc-pvdz iop(5/13=1,5/36=2,99/5=2) pseudo=read geom=check guess=(rea
 d,tcheck) scf=(maxcycle=1)\\title\\0,1\C,0,-1.8220358,-1.38743111,1.39
 914613\C,0,-1.04715018,-0.22568039,0.88263269\C,0,0.99703502,0.5317067
 4,-1.35636904\C,0,1.7974002,0.17588316,-0.10168813\O,0,1.62781672,1.10
 332053,0.93930211\C,0,-0.44712537,0.89143412,-1.07395297\O,0,-1.151036
 14,-0.18585271,-0.40651572\H,0,-1.13695261,-2.0108634,1.980853\H,0,-2.
 54606222,-1.00471351,2.12414426\H,0,-2.32648562,-1.98261819,0.63283975

 Normal termination of Gaussian 16 at Wed Apr  9 18:28:01 2025.
