 Gaussian 16, Revision C.01,

 ----------------------------------------------------------------------
 #t hf aug-cc-pvdz symm=none int=(grid=ultrafine) guess=(read,tcheck) s
 table=(opt,rrhf)
 ----------------------------------------------------------------------
 -----
 title
 -----
 Symbolic Z-matrix:
 Charge =  0 Multiplicity = 1

 SCF Done:  E(RHF) =  -305.837705712     A.U. after   13 cycles
 Normal termination of Gaussian 16 at Wed Apr  9 16:01:51 2025.
 Gaussian 16:  ES64L-G16RevC.01  3-Jul-2019

 ----------------------------------------------------------------------
 #t hf aug-cc-pvdz iop(5/13=1,5/36=2,99/5=2) pseudo=read geom=check gue
 ss=(read,tcheck) scf=(maxcycle=1)
 ----------------------------------------------------------------------
 -----
 title
 -----
 Structure from the checkpoint file:  "Grambow2020_b97d3_007090_reverse_mol2.chk"
 Charge =  0 Multiplicity = 1

                         Standard orientation:
 ---------------------------------------------------------------------
 Center     Atomic      Atomic             Coordinates (Angstroms)
 Number     Number       Type             X           Y           Z
 ---------------------------------------------------------------------
      1          6           0       -0.847238    1.453097    0.289530
      2          6           0       -0.669226    0.054977   -0.291062
      3          6           0       -1.941147   -0.780073   -0.275426
      4          8           0        0.303660   -0.704144    0.565437
      5          6           0        1.614091   -0.618944    0.458912
      6          8           0        1.932471    0.269800   -0.529899
      7          1           0       -1.607876    2.002077   -0.284391
      8          1           0       -1.181922    1.390158    1.333919
      9          1           0        0.092215    2.015834    0.250069
     10          1           0       -0.246662    0.105353   -1.300733
     11          1           0       -1.751618   -1.787931   -0.666369
     12          1           0       -2.709234   -0.302222   -0.899683
     13          1           0       -2.330802   -0.870534    0.747458
     14          1           0        2.907971    0.267676   -0.556292
 ---------------------------------------------------------------------

 SCF Done:  E(RHF) =  -306.150612619     A.U. after    2 cycles

 The electronic state is 1-A.
 Alpha  occ. eigenvalues --  -20.59825 -20.58584 -11.34865 -11.30860 -11.23785
 Alpha  occ. eigenvalues --  -11.23698  -1.54511  -1.45988  -1.07568  -0.95012
 Alpha  occ. eigenvalues --   -0.86863  -0.81116  -0.70831  -0.68064  -0.64320
 Alpha  occ. eigenvalues --   -0.61493  -0.57697  -0.56476  -0.55713  -0.54046
 Alpha  occ. eigenvalues --   -0.52274  -0.49500  -0.47243  -0.37841
 Alpha virt. eigenvalues --    0.03573   0.03861   0.04274   0.04769   0.06347
 Alpha virt. eigenvalues --    0.07068   0.07510   0.07829   0.10641   0.11723
 Alpha virt. eigenvalues --    0.13096   0.13443   0.14766   0.15251   0.15651

 Mulliken charges:
               1
     1  C   -0.327920
     2  C    0.113619
     3  C   -0.299982
     4  O   -1.069358
     5  C    0.702886
     6  O   -1.038160
     7  H    0.205853
     8  H    0.252022
     9  H    0.133046
    10  H    0.211362
    11  H    0.180595
    12  H    0.217455
    13  H    0.200897
    14  H    0.517686
 Sum of Mulliken charges =  -0.00000

 Dipole moment (field-independent basis, Debye):
    X=             -0.8972    Y=              1.6836    Z=             -1.8436  Tot=              2.6530

 Test job not archived.
 1\1\GINC-SE037\SP\RHF\Aug-CC-pVDZ\C4H8O2\OHZDE\09-Apr-2025\0\\#t hf au
 g-cc-pvdz iop(5/13=1,5/36=2,99/5=2) pseudo=read geom=check guess=(read
 ,tcheck) scf=(maxcycle=1)\\title\\0,1\C,0,0.25289377,1.36053725,0.0610
 1007\C,0,-0.26503296,-0.05352887,-0.17496378\C,0,-1.76094867,-0.203845
 43,0.05950373\O,0,0.37821633,-0.97658571,0.82030438\C,0,1.57224349,-1.
 51404158,0.67443912\O,0,2.12205104,-1.08645589,-0.50193776\H,0,-0.2577
 2485,2.06303759,-0.61359878\H,0,0.05346385,1.66955884,1.09612237\H,0,1
 .33096653,1.41888857,-0.12648876\H,0,0.01162126,-0.4059398,-1.1748651\

 Normal termination of Gaussian 16 at Wed Apr  9 16:01:55 2025.
