 Gaussian 16, Revision C.01,

 ----------------------------------------------------------------------
 #t hf aug-cc-pvdz symm=none int=(grid=ultrafine) guess=(read,tcheck) s
 table=(opt,rrhf)
 ----------------------------------------------------------------------
 -----
 title
 -----
 Symbolic Z-matrix:
 Charge =  0 Multiplicity = 1

 SCF Done:  E(RHF) =  -345.938671843     A.U. after   15 cycles

 1\1\GINC-SE045\Stability\RHF\Aug-CC-pVDZ\C5H12O2\OHZDE\09-Apr-2025\0\\
 #t hf aug-cc-pvdz symm=none int=(grid=ultrafine) guess=(read,tcheck) s
 table=(opt,rrhf)\\title\\0,1\C,0,-2.44113447,-0.24667697,0.92718598\O,
 0,-1.05487202,-0.40725962,1.06328574\C,0,-0.27785136,0.3018478,0.09659
 927\C,0,-0.34475647,1.80692894,0.31511516\C,0,1.13298131,-0.20567497,0
 .16279426\C,0,1.41590929,-1.49786298,-0.33433747\O,0,2.18120943,-0.878
 21513,-1.90300484\H,0,-2.78212368,0.75230245,1.22420312\H,0,-2.9185723
 2,-0.97920388,1.57791616\H,0,-2.76633421,-0.43026886,-0.10676971\H,0,-

 Normal termination of Gaussian 16 at Wed Apr  9 18:45:01 2025.
 Gaussian 16:  ES64L-G16RevC.01  3-Jul-2019

 ----------------------------------------------------------------------
 #t hf aug-cc-pvdz iop(5/13=1,5/36=2,99/5=2) pseudo=read geom=check gue
 ss=(read,tcheck) scf=(maxcycle=1)
 ----------------------------------------------------------------------
 -----
 title
 -----
 Structure from the checkpoint file:  "Grambow2020_wb97xd3_008015_reverse_mol1.chk"
 Charge =  0 Multiplicity = 1

                         Standard orientation:
 ---------------------------------------------------------------------
 Center     Atomic      Atomic             Coordinates (Angstroms)
 Number     Number       Type             X           Y           Z
 ---------------------------------------------------------------------
      1          6           0       -2.523014   -0.866258   -0.391476
      2          8           0       -1.375257   -0.673501    0.390528
      3          6           0       -0.478947    0.321706   -0.106733
      4          6           0       -1.065397    1.720862    0.019493
      5          6           0        0.820690    0.196607    0.633339
      6          6           0        1.656381   -0.909627    0.359834
      7          8           0        2.845992    0.066919   -0.670483
      8          1           0       -3.231534   -0.032836   -0.314921
      9          1           0       -3.015227   -1.768768   -0.029270
     10          1           0       -2.267014   -1.006763   -1.451310
     11          1           0       -0.304021    0.104772   -1.173738
     12          1           0       -1.266285    1.948143    1.068670
     13          1           0       -1.996717    1.825644   -0.538630
     14          1           0       -0.359193    2.457458   -0.365892
     15          1           0        0.830616    0.578301    1.650780
     16          1           0        1.943284    0.689072   -0.122579
     17          1           0        2.334031   -1.291847    1.114343
     18          1           0        1.392211   -1.620496   -0.414116
     19          1           0        3.715690    0.190238   -0.270445
 ---------------------------------------------------------------------

 SCF Done:  E(RHF) =  -346.306828548     A.U. after    2 cycles

 The electronic state is 1-A.
 Alpha  occ. eigenvalues --  -20.53625 -20.53000 -11.32541 -11.27953 -11.27134
 Alpha  occ. eigenvalues --  -11.21684 -11.19581  -1.45053  -1.40540  -1.07958
 Alpha  occ. eigenvalues --   -0.99964  -0.92755  -0.84832  -0.78441  -0.71339
 Alpha  occ. eigenvalues --   -0.67003  -0.65784  -0.63567  -0.61556  -0.58968
 Alpha  occ. eigenvalues --   -0.55643  -0.54775  -0.52454  -0.51412  -0.49019
 Alpha  occ. eigenvalues --   -0.48569  -0.45552  -0.40643  -0.33339
 Alpha virt. eigenvalues --    0.03251   0.03844   0.04219   0.04299   0.05826
 Alpha virt. eigenvalues --    0.05864   0.06365   0.06956   0.08461   0.08864
 Alpha virt. eigenvalues --    0.09235   0.11181   0.12047   0.13108   0.13972

 Mulliken charges:
               1
     1  C    0.141315
     2  O   -1.397022
     3  C    0.655192
     4  C   -0.399792
     5  C   -0.343907
     6  C    0.304561
     7  O   -1.090844
     8  H    0.156508
     9  H   -0.042653
    10  H    0.179055
    11  H    0.125370
    12  H    0.231734
    13  H    0.076961
    14  H    0.197343
    15  H   -0.112887
    16  H    1.074603
    17  H   -0.036422
    18  H   -0.075632
    19  H    0.356517
 Sum of Mulliken charges =  -0.00000

 Dipole moment (field-independent basis, Debye):
    X=              0.7111    Y=             -0.5107    Z=              0.4508  Tot=              0.9847

 Test job not archived.
 1\1\GINC-SE045\SP\RHF\Aug-CC-pVDZ\C5H12O2\OHZDE\09-Apr-2025\0\\#t hf a
 ug-cc-pvdz iop(5/13=1,5/36=2,99/5=2) pseudo=read geom=check guess=(rea
 d,tcheck) scf=(maxcycle=1)\\title\\0,1\C,0,-2.44113447,-0.24667697,0.9
 2718598\O,0,-1.05487202,-0.40725962,1.06328574\C,0,-0.27785136,0.30184
 78,0.09659927\C,0,-0.34475647,1.80692894,0.31511516\C,0,1.13298131,-0.
 20567497,0.16279426\C,0,1.41590929,-1.49786298,-0.33433747\O,0,2.18120
 943,-0.87821513,-1.90300484\H,0,-2.78212368,0.75230245,1.22420312\H,0,
 -2.91857232,-0.97920388,1.57791616\H,0,-2.76633421,-0.43026886,-0.1067

 Normal termination of Gaussian 16 at Wed Apr  9 18:45:08 2025.
