 Gaussian 16, Revision C.01,

 ----------------------------------------------------------------------
 #t hf aug-cc-pvdz symm=none int=(grid=ultrafine) guess=(read,tcheck) s
 table=(opt,rrhf)
 ----------------------------------------------------------------------
 -----
 title
 -----
 Symbolic Z-matrix:
 Charge =  0 Multiplicity = 1

 SCF Done:  E(RHF) =  -307.652748629     A.U. after   15 cycles

 1\1\GINC-SE131\Stability\RHF\Aug-CC-pVDZ\C6H10O1\OHZDE\09-Apr-2025\0\\
 #t hf aug-cc-pvdz symm=none int=(grid=ultrafine) guess=(read,tcheck) s
 table=(opt,rrhf)\\title\\0,1\C,0,-2.10779587,0.16974901,-0.03430456\C,
 0,-0.61436958,0.17456321,-0.02714725\C,0,0.37248709,0.35187258,-1.2058
 2346\C,0,1.36317662,0.0207364,-0.04075869\O,0,2.58631295,-0.35520649,-
 0.05304155\C,0,0.35058731,-0.83507012,0.54881881\C,0,0.31162967,1.0352
 6723,0.84477716\H,0,-2.48751629,-0.63462463,-0.66578942\H,0,-2.5059266
 8,0.03123416,0.97255354\H,0,-2.49097663,1.11431582,-0.4231965\H,0,0.42

 Normal termination of Gaussian 16 at Wed Apr  9 18:46:53 2025.
 Gaussian 16:  ES64L-G16RevC.01  3-Jul-2019

 ----------------------------------------------------------------------
 #t hf aug-cc-pvdz iop(5/13=1,5/36=2,99/5=2) pseudo=read geom=check gue
 ss=(read,tcheck) scf=(maxcycle=1)
 ----------------------------------------------------------------------
 -----
 title
 -----
 Structure from the checkpoint file:  "Grambow2020_wb97xd3_008047_reverse_mol1.chk"
 Charge =  0 Multiplicity = 1

                         Standard orientation:
 ---------------------------------------------------------------------
 Center     Atomic      Atomic             Coordinates (Angstroms)
 Number     Number       Type             X           Y           Z
 ---------------------------------------------------------------------
      1          6           0       -2.397771    0.049958   -0.298343
      2          6           0       -0.928752    0.038475   -0.029555
      3          6           0        0.029143    1.223370    0.240752
      4          6           0        1.044999    0.035445    0.167508
      5          8           0        2.315235    0.018390    0.013373
      6          6           0        0.189970   -0.607625   -0.812660
      7          6           0       -0.181788   -0.775984    1.036860
      8          1           0       -2.620557    0.626644   -1.197108
      9          1           0       -2.780426   -0.962724   -0.438012
     10          1           0       -2.935222    0.503186    0.535925
     11          1           0       -0.088955    1.734579    1.197631
     12          1           0        0.146762    1.923861   -0.586625
     13          1           0        2.082443    0.054827   -1.356040
     14          1           0        0.218435   -1.618129   -1.209991
     15          1           0        1.347495   -0.004678   -1.962148
     16          1           0       -0.275942   -1.859658    1.056298
     17          1           0       -0.150714   -0.326869    2.025711
 ---------------------------------------------------------------------

 SCF Done:  E(RHF) =  -307.978821104     A.U. after    2 cycles

 The electronic state is 1-A.
 Alpha  occ. eigenvalues --  -20.49718 -11.32673 -11.31302 -11.29192 -11.28467
 Alpha  occ. eigenvalues --  -11.25587 -11.25164  -1.42230  -1.25796  -1.02065
 Alpha  occ. eigenvalues --   -0.95334  -0.92108  -0.81170  -0.76648  -0.67442
 Alpha  occ. eigenvalues --   -0.65906  -0.64451  -0.62072  -0.61120  -0.58292
 Alpha  occ. eigenvalues --   -0.55345  -0.51948  -0.49663  -0.49353  -0.41376
 Alpha  occ. eigenvalues --   -0.38052  -0.37726
 Alpha virt. eigenvalues --    0.02376   0.03095   0.03221   0.04590   0.05704
 Alpha virt. eigenvalues --    0.06049   0.06451   0.06759   0.07508   0.09042
 Alpha virt. eigenvalues --    0.09779   0.10971   0.12187   0.12343   0.13536

 Mulliken charges:
               1
     1  C   -0.726953
     2  C    0.150969
     3  C   -0.099535
     4  C    2.096459
     5  O   -1.778907
     6  C   -0.180765
     7  C   -0.060776
     8  H    0.260220
     9  H    0.242277
    10  H    0.246043
    11  H    0.002052
    12  H    0.034411
    13  H    0.068112
    14  H   -0.204028
    15  H    0.039739
    16  H   -0.110939
    17  H    0.021622
 Sum of Mulliken charges =  -0.00000

 Dipole moment (field-independent basis, Debye):
    X=             -5.1355    Y=             -0.9855    Z=              0.4767  Tot=              5.2509

 Test job not archived.
 1\1\GINC-SE131\SP\RHF\Aug-CC-pVDZ\C6H10O1\OHZDE\09-Apr-2025\0\\#t hf a
 ug-cc-pvdz iop(5/13=1,5/36=2,99/5=2) pseudo=read geom=check guess=(rea
 d,tcheck) scf=(maxcycle=1)\\title\\0,1\C,0,-2.10779587,0.16974901,-0.0
 3430456\C,0,-0.61436958,0.17456321,-0.02714725\C,0,0.37248709,0.351872
 58,-1.20582346\C,0,1.36317662,0.0207364,-0.04075869\O,0,2.58631295,-0.
 35520649,-0.05304155\C,0,0.35058731,-0.83507012,0.54881881\C,0,0.31162
 967,1.03526723,0.84477716\H,0,-2.48751629,-0.63462463,-0.66578942\H,0,
 -2.50592668,0.03123416,0.97255354\H,0,-2.49097663,1.11431582,-0.423196

 Normal termination of Gaussian 16 at Wed Apr  9 18:46:59 2025.
