 Gaussian 16, Revision C.01,

 ----------------------------------------------------------------------
 #t hf aug-cc-pvdz symm=none int=(grid=ultrafine) guess=(read,tcheck) s
 table=(opt,rrhf)
 ----------------------------------------------------------------------
 -----
 title
 -----
 Symbolic Z-matrix:
 Charge =  0 Multiplicity = 1

 SCF Done:  E(RHF) =  -269.907076540     A.U. after   16 cycles

 1\1\GINC-SE120\Stability\RHF\Aug-CC-pVDZ\C5H10O1\OHZDE\09-Apr-2025\0\\
 #t hf aug-cc-pvdz symm=none int=(grid=ultrafine) guess=(read,tcheck) s
 table=(opt,rrhf)\\title\\0,1\C,0,-0.979377,-1.13591296,-0.26009112\C,0
 ,-0.2454585,0.20818022,-0.34045738\C,0,-1.13772178,1.35614123,0.107852
 26\C,0,1.1802721,-0.10335242,1.08896152\C,0,1.83553941,-0.30676712,-0.
 15097747\O,0,0.49621951,0.44051304,-1.41007799\H,0,-1.77230222,-1.0825
 7965,-1.02776464\H,0,-1.46013309,-1.3114017,0.71080341\H,0,-0.34183966
 ,-1.98797251,-0.5204251\H,0,-1.89415689,1.48397517,-0.68829837\H,0,-0.

 Normal termination of Gaussian 16 at Wed Apr  9 15:49:00 2025.
 Gaussian 16:  ES64L-G16RevC.01  3-Jul-2019

 ----------------------------------------------------------------------
 #t hf aug-cc-pvdz iop(5/13=1,5/36=2,99/5=2) pseudo=read geom=check gue
 ss=(read,tcheck) scf=(maxcycle=1)
 ----------------------------------------------------------------------
 -----
 title
 -----
 Structure from the checkpoint file:  "Grambow2020_b97d3_006762_reverse_mol1.chk"
 Charge =  0 Multiplicity = 1

                         Standard orientation:
 ---------------------------------------------------------------------
 Center     Atomic      Atomic             Coordinates (Angstroms)
 Number     Number       Type             X           Y           Z
 ---------------------------------------------------------------------
      1          6           0        0.771318    1.452104    0.099096
      2          6           0        0.428904   -0.020658   -0.156650
      3          6           0        1.537577   -0.941629    0.330780
      4          6           0       -1.173762   -0.213598    1.095242
      5          6           0       -1.722162   -0.069135   -0.203446
      6          8           0       -0.106322   -0.333424   -1.324495
      7          1           0        1.628238    1.672378   -0.562769
      8          1           0        1.081870    1.653183    1.132384
      9          1           0       -0.035650    2.135260   -0.187844
     10          1           0        2.382119   -0.799709   -0.368505
     11          1           0        1.232644   -1.991209    0.268270
     12          1           0        1.883548   -0.700605    1.344348
     13          1           0       -1.101400    0.647186    1.754274
     14          1           0       -1.126630   -1.200667    1.547503
     15          1           0       -1.995867    0.916859   -0.577288
     16          1           0       -2.149542   -0.907793   -0.744543
 ---------------------------------------------------------------------

 SCF Done:  E(RHF) =  -270.194928733     A.U. after    2 cycles

 The electronic state is 1-A.
 Alpha  occ. eigenvalues --  -20.46684 -11.35308 -11.33800 -11.23777 -11.23317
 Alpha  occ. eigenvalues --  -11.22584  -1.38885  -1.05856  -1.02963  -0.94823
 Alpha  occ. eigenvalues --   -0.82999  -0.73657  -0.67779  -0.62979  -0.61862
 Alpha  occ. eigenvalues --   -0.60553  -0.59484  -0.55324  -0.53093  -0.52540
 Alpha  occ. eigenvalues --   -0.52049  -0.49518  -0.37501  -0.30837
 Alpha virt. eigenvalues --    0.03510   0.03704   0.04031   0.04501   0.06047
 Alpha virt. eigenvalues --    0.06109   0.06543   0.06819   0.08684   0.09345
 Alpha virt. eigenvalues --    0.09713   0.11888   0.13517   0.14138   0.14338

 Mulliken charges:
               1
     1  C   -0.310141
     2  C    0.631245
     3  C   -0.195901
     4  C    0.152436
     5  C    0.302752
     6  O   -1.636953
     7  H    0.206349
     8  H    0.210416
     9  H    0.110597
    10  H    0.260853
    11  H    0.135010
    12  H    0.258775
    13  H   -0.037965
    14  H   -0.059871
    15  H    0.027054
    16  H   -0.054655
 Sum of Mulliken charges =  -0.00000

 Dipole moment (field-independent basis, Debye):
    X=             -0.5957    Y=              0.9476    Z=              2.2082  Tot=              2.4757

 Test job not archived.
 1\1\GINC-SE120\SP\RHF\Aug-CC-pVDZ\C5H10O1\OHZDE\09-Apr-2025\0\\#t hf a
 ug-cc-pvdz iop(5/13=1,5/36=2,99/5=2) pseudo=read geom=check guess=(rea
 d,tcheck) scf=(maxcycle=1)\\title\\0,1\C,0,-0.979377,-1.13591296,-0.26
 009112\C,0,-0.2454585,0.20818022,-0.34045738\C,0,-1.13772178,1.3561412
 3,0.10785226\C,0,1.1802721,-0.10335242,1.08896152\C,0,1.83553941,-0.30
 676712,-0.15097747\O,0,0.49621951,0.44051304,-1.41007799\H,0,-1.772302
 22,-1.08257965,-1.02776464\H,0,-1.46013309,-1.3114017,0.71080341\H,0,-
 0.34183966,-1.98797251,-0.5204251\H,0,-1.89415689,1.48397517,-0.688298

 Normal termination of Gaussian 16 at Wed Apr  9 15:49:06 2025.
