 Gaussian 16, Revision C.01,

 ----------------------------------------------------------------------
 #t hf aug-cc-pvdz symm=none int=(grid=ultrafine) guess=(read,tcheck) s
 table=(opt,rrhf)
 ----------------------------------------------------------------------
 -----
 title
 -----
 Symbolic Z-matrix:
 Charge =  0 Multiplicity = 1

 SCF Done:  E(RHF) =  -324.933157975     A.U. after   15 cycles
 Normal termination of Gaussian 16 at Wed Apr  9 03:52:26 2025.
 Gaussian 16:  ES64L-G16RevC.01  3-Jul-2019

 ----------------------------------------------------------------------
 #t hf aug-cc-pvdz iop(5/13=1,5/36=2,99/5=2) pseudo=read geom=check gue
 ss=(read,tcheck) scf=(maxcycle=1)
 ----------------------------------------------------------------------
 -----
 title
 -----
 Structure from the checkpoint file:  "Grambow2020_wb97xd3_008231_reverse_mol1.chk"
 Charge =  0 Multiplicity = 1

                         Standard orientation:
 ---------------------------------------------------------------------
 Center     Atomic      Atomic             Coordinates (Angstroms)
 Number     Number       Type             X           Y           Z
 ---------------------------------------------------------------------
      1          6           0        1.464801   -1.382142   -0.299365
      2          6           0        2.234569   -0.297488   -0.006438
      3          6           0        0.719132    1.550893    0.059979
      4          7           0       -0.313624    1.036748   -0.533905
      5          6           0       -0.946247   -0.144952    0.139305
      6          8           0       -0.809644   -0.164070    1.387132
      7          6           0       -2.293392   -0.471726   -0.495020
      8          1           0        1.459288   -1.798524   -1.301389
      9          1           0        1.107080   -2.023450    0.497880
     10          1           0       -0.096127   -0.875235   -0.415244
     11          1           0        2.490017   -0.071591    1.019676
     12          1           0        2.830239    0.177665   -0.776788
     13          1           0        0.715957    1.475334    1.139206
     14          1           0        1.360905    2.238379   -0.472207
     15          1           0       -0.375728    1.092432   -1.541600
     16          1           0       -2.570880   -1.481411   -0.196902
     17          1           0       -2.272120   -0.422903   -1.587619
     18          1           0       -3.049281    0.217124   -0.115495
 ---------------------------------------------------------------------

 SCF Done:  E(RHF) =  -325.279157138     A.U. after    2 cycles

 The electronic state is 1-A.
 Alpha  occ. eigenvalues --  -20.42949 -15.57276 -11.33537 -11.31399 -11.25999
 Alpha  occ. eigenvalues --  -11.23733 -11.21860  -1.38551  -1.27986  -1.04368
 Alpha  occ. eigenvalues --   -1.01135  -0.92560  -0.83623  -0.81161  -0.75237
 Alpha  occ. eigenvalues --   -0.68672  -0.65974  -0.64110  -0.60021  -0.59403
 Alpha  occ. eigenvalues --   -0.56158  -0.54106  -0.52945  -0.52025  -0.47856
 Alpha  occ. eigenvalues --   -0.38823  -0.36873  -0.30696
 Alpha virt. eigenvalues --    0.02097   0.03355   0.04137   0.04844   0.05183
 Alpha virt. eigenvalues --    0.05637   0.05990   0.06510   0.07367   0.08321
 Alpha virt. eigenvalues --    0.09147   0.10371   0.11955   0.12358   0.13250

 Mulliken charges:
               1
     1  C   -0.331646
     2  C    0.110166
     3  C   -0.414296
     4  N    0.890875
     5  C    0.061877
     6  O   -1.492283
     7  C   -0.355396
     8  H    0.010761
     9  H    0.099090
    10  H    0.681935
    11  H    0.032721
    12  H   -0.055161
    13  H    0.087970
    14  H    0.009293
    15  H    0.160900
    16  H    0.189901
    17  H    0.101736
    18  H    0.211557
 Sum of Mulliken charges =   0.00000

 Dipole moment (field-independent basis, Debye):
    X=              2.5238    Y=              2.0961    Z=             -4.6081  Tot=              5.6567

 Test job not archived.
 1\1\GINC-SE396\SP\RHF\Aug-CC-pVDZ\C5H11N1O1\OHZDE\09-Apr-2025\0\\#t hf
  aug-cc-pvdz iop(5/13=1,5/36=2,99/5=2) pseudo=read geom=check guess=(r
 ead,tcheck) scf=(maxcycle=1)\\title\\0,1\C,0,-1.48127966,0.22648814,-1
 .00437908\C,0,-1.98478951,0.81362945,0.11658684\C,0,-0.28816931,0.5517
 7014,1.78103361\N,0,0.4515702,-0.36027887,1.22914455\C,0,1.09290408,0.
 00576888,-0.07643433\O,0,1.32316625,1.23220683,-0.21400899\C,0,2.14335
 058,-1.02607114,-0.47117482\H,0,-1.82116023,-0.75761721,-1.31011394\H,
 0,-0.99419673,0.83154028,-1.76035598\H,0,0.03089057,-0.31753893,-0.651

 Normal termination of Gaussian 16 at Wed Apr  9 03:52:33 2025.
