 Gaussian 16, Revision C.01,

 ----------------------------------------------------------------------
 #t hf aug-cc-pvdz symm=none int=(grid=ultrafine) guess=(read,tcheck) s
 table=(opt,rrhf)
 ----------------------------------------------------------------------
 -----
 title
 -----
 Symbolic Z-matrix:
 Charge =  0 Multiplicity = 1

 SCF Done:  E(RHF) =  -359.556064544     A.U. after   16 cycles
 Normal termination of Gaussian 16 at Wed Apr  9 18:56:47 2025.
 Gaussian 16:  ES64L-G16RevC.01  3-Jul-2019

 ----------------------------------------------------------------------
 #t hf aug-cc-pvdz iop(5/13=1,5/36=2,99/5=2) pseudo=read geom=check gue
 ss=(read,tcheck) scf=(maxcycle=1)
 ----------------------------------------------------------------------
 -----
 title
 -----
 Structure from the checkpoint file:  "Grambow2020_wb97xd3_008375_forward_mol1.chk"
 Charge =  0 Multiplicity = 1

                         Standard orientation:
 ---------------------------------------------------------------------
 Center     Atomic      Atomic             Coordinates (Angstroms)
 Number     Number       Type             X           Y           Z
 ---------------------------------------------------------------------
      1          8           0        1.511492   -1.390172   -0.352545
      2          6           0        1.095474   -0.242929    0.111198
      3          6           0        0.916225    1.091612   -0.622629
      4          7           0       -0.131904    1.455005    0.353769
      5          6           0       -0.251412    0.075297    0.819569
      6          6           0       -1.357782   -0.742835    0.188604
      7          8           0       -2.174122   -0.269407   -0.551864
      8          1           0        2.160795   -0.692834    0.674491
      9          1           0        1.981342    0.146533    1.117721
     10          1           0        0.549795    0.862151   -1.629238
     11          1           0        1.764134    1.773787   -0.682520
     12          1           0       -0.987633    1.796152   -0.067167
     13          1           0       -0.289999   -0.067337    1.904655
     14          1           0       -1.369104   -1.813714    0.460482
 ---------------------------------------------------------------------

 SCF Done:  E(RHF) =  -359.922365463     A.U. after    2 cycles

 The electronic state is 1-A.
 Alpha  occ. eigenvalues --  -20.56755 -20.51162 -15.51450 -11.39135 -11.35835
 Alpha  occ. eigenvalues --  -11.30094 -11.28951  -1.50227  -1.45396  -1.27517
 Alpha  occ. eigenvalues --   -1.01474  -0.99239  -0.87684  -0.80684  -0.74942
 Alpha  occ. eigenvalues --   -0.73370  -0.69164  -0.65233  -0.62649  -0.61110
 Alpha  occ. eigenvalues --   -0.57824  -0.57374  -0.53637  -0.47363  -0.43131
 Alpha  occ. eigenvalues --   -0.40792  -0.40251
 Alpha virt. eigenvalues --    0.02480   0.03809   0.04138   0.04806   0.05927
 Alpha virt. eigenvalues --    0.06237   0.07371   0.09161   0.09531   0.11095
 Alpha virt. eigenvalues --    0.12133   0.12715   0.13029   0.13900   0.14302

 Mulliken charges:
               1
     1  O   -1.529493
     2  C    1.193437
     3  C   -0.187887
     4  N    0.524889
     5  C   -1.173320
     6  C    1.291251
     7  O   -1.176828
     8  H    0.096355
     9  H    0.375320
    10  H    0.083691
    11  H    0.044210
    12  H    0.300732
    13  H    0.028314
    14  H    0.129332
 Sum of Mulliken charges =  -0.00000

 Dipole moment (field-independent basis, Debye):
    X=              1.2662    Y=              1.2680    Z=              2.2622  Tot=              2.8859

 Test job not archived.
 1\1\GINC-SE029\SP\RHF\Aug-CC-pVDZ\C4H7N1O2\OHZDE\09-Apr-2025\0\\#t hf
 aug-cc-pvdz iop(5/13=1,5/36=2,99/5=2) pseudo=read geom=check guess=(re
 ad,tcheck) scf=(maxcycle=1)\\title\\0,1\O,0,-0.8112277,-1.46251764,1.1
 7473202\C,0,-0.67482596,-0.61820238,0.18841484\C,0,-1.07126809,0.86146
 622,0.11736792\N,0,-0.00002891,1.07113203,-0.87885882\C,0,0.63017772,-
 0.20508697,-0.54878168\C,0,1.77116118,-0.14265552,0.44407854\O,0,2.226
 63992,0.89177865,0.8457283\H,0,-1.40647661,-1.64134918,-0.0808054\H,0,
 -1.40042194,-1.11980381,-0.89391521\H,0,-0.87655787,1.29762603,1.10328

 Normal termination of Gaussian 16 at Wed Apr  9 18:56:52 2025.
