 Gaussian 16, Revision C.01,

 ----------------------------------------------------------------------
 #t hf aug-cc-pvdz symm=none int=(grid=ultrafine) guess=(read,tcheck) s
 table=(opt,rrhf)
 ----------------------------------------------------------------------
 -----
 title
 -----
 Symbolic Z-matrix:
 Charge =  0 Multiplicity = 1

 SCF Done:  E(RHF) =  -338.527284909     A.U. after   17 cycles
 Normal termination of Gaussian 16 at Wed Apr  9 19:02:50 2025.
 Gaussian 16:  ES64L-G16RevC.01  3-Jul-2019

 ----------------------------------------------------------------------
 #t hf aug-cc-pvdz iop(5/13=1,5/36=2,99/5=2) pseudo=read geom=check gue
 ss=(read,tcheck) scf=(maxcycle=1)
 ----------------------------------------------------------------------
 -----
 title
 -----
 Structure from the checkpoint file:  "Grambow2020_wb97xd3_008481_reverse_mol1.chk"
 Charge =  0 Multiplicity = 1

                         Standard orientation:
 ---------------------------------------------------------------------
 Center     Atomic      Atomic             Coordinates (Angstroms)
 Number     Number       Type             X           Y           Z
 ---------------------------------------------------------------------
      1          7           0        1.918825   -0.773599    0.393328
      2          6           0        0.840517   -0.340810   -0.327837
      3          6           0       -0.819001   -0.303857    0.117846
      4          8           0       -1.558226   -1.290949   -0.389716
      5          6           0       -0.996402    0.632691    1.046546
      6          6           0       -0.472370    1.320795   -0.192859
      7          7           0        0.799837    0.999953   -0.628156
      8          1           0        2.017128   -1.763367    0.522870
      9          1           0        2.322833   -0.211389    1.127429
     10          1           0       -0.997537   -1.703835   -1.064930
     11          1           0       -1.749322    0.912011    1.765476
     12          1           0       -1.068001    2.041154   -0.745378
     13          1           0        1.593604    1.615625   -0.706124
 ---------------------------------------------------------------------

 SCF Done:  E(RHF) =  -338.873482179     A.U. after    2 cycles

 The electronic state is 1-A.
 Alpha  occ. eigenvalues --  -20.57603 -15.52905 -15.51071 -11.32501 -11.29317
 Alpha  occ. eigenvalues --  -11.28980 -11.22583  -1.49685  -1.30408  -1.19312
 Alpha  occ. eigenvalues --   -1.09613  -0.90673  -0.84682  -0.78594  -0.75409
 Alpha  occ. eigenvalues --   -0.72747  -0.68934  -0.66793  -0.65760  -0.58243
 Alpha  occ. eigenvalues --   -0.56880  -0.52621  -0.47589  -0.43144  -0.36718
 Alpha  occ. eigenvalues --   -0.25546
 Alpha virt. eigenvalues --    0.02764   0.04300   0.04661   0.05051   0.05561
 Alpha virt. eigenvalues --    0.06030   0.07354   0.08787   0.10036   0.11549
 Alpha virt. eigenvalues --    0.12869   0.13673   0.14527   0.15238   0.15453

 Mulliken charges:
               1
     1  N    0.805042
     2  C   -1.970163
     3  C    1.404361
     4  O   -1.507708
     5  C    0.532862
     6  C   -0.415622
     7  N    0.890456
     8  H    0.132054
     9  H    0.137590
    10  H    0.286168
    11  H   -0.163567
    12  H   -0.173736
    13  H    0.042263
 Sum of Mulliken charges =  -0.00000

 Dipole moment (field-independent basis, Debye):
    X=              1.4654    Y=              0.8531    Z=              0.7130  Tot=              1.8394

 Test job not archived.
 1\1\GINC-SE097\SP\RHF\Aug-CC-pVDZ\C4H6N2O1\OHZDE\09-Apr-2025\0\\#t hf
 aug-cc-pvdz iop(5/13=1,5/36=2,99/5=2) pseudo=read geom=check guess=(re
 ad,tcheck) scf=(maxcycle=1)\\title\\0,1\N,0,1.84967352,0.74755462,0.15
 726371\C,0,0.76718782,0.18170152,-0.45769122\C,0,-0.35739305,-0.961563
 33,0.16058086\O,0,-0.15484302,-2.21856958,-0.23606961\C,0,-1.12006492,
 -0.36680544,1.07473115\C,0,-1.33540257,0.35928088,-0.23318752\N,0,-0.2
 6259772,1.0287931,-0.79155837\H,0,2.65131258,0.16302897,0.30487671\H,0
 ,1.74517058,1.49478683,0.82728574\H,0,0.49359157,-2.15450915,-0.954532

 Normal termination of Gaussian 16 at Wed Apr  9 19:02:54 2025.
