 Gaussian 16, Revision C.01,

 ----------------------------------------------------------------------
 #t hf aug-cc-pvdz symm=none int=(grid=ultrafine) guess=(read,tcheck) s
 table=(opt,rrhf)
 ----------------------------------------------------------------------
 -----
 title
 -----
 Symbolic Z-matrix:
 Charge =  0 Multiplicity = 1

 SCF Done:  E(RHF) =  -355.780341018     A.U. after   14 cycles
 Normal termination of Gaussian 16 at Wed Apr  9 19:16:00 2025.
 Gaussian 16:  ES64L-G16RevC.01  3-Jul-2019

 ----------------------------------------------------------------------
 #t hf aug-cc-pvdz iop(5/13=1,5/36=2,99/5=2) pseudo=read geom=check gue
 ss=(read,tcheck) scf=(maxcycle=1)
 ----------------------------------------------------------------------
 -----
 title
 -----
 Structure from the checkpoint file:  "Grambow2020_wb97xd3_009000_reverse_mol2.chk"
 Charge =  0 Multiplicity = 1

                         Standard orientation:
 ---------------------------------------------------------------------
 Center     Atomic      Atomic             Coordinates (Angstroms)
 Number     Number       Type             X           Y           Z
 ---------------------------------------------------------------------
      1          6           0        2.281647   -0.426960    0.358286
      2          7           0        1.389779    0.465268   -0.358678
      3          6           0        0.034644    0.274675   -0.179155
      4          8           0       -0.533739   -0.880487   -0.802501
      5          7           0       -0.890485    1.354745   -0.141519
      6          6           0       -1.067160    0.283250    0.822311
      7          7           0       -1.658871   -0.862531    0.134193
      8          1           0        2.043870   -1.457080    0.094164
      9          1           0        2.213259   -0.321855    1.448629
     10          1           0        3.308533   -0.233559    0.049998
     11          1           0        1.630948    1.440822   -0.297893
     12          1           0       -1.572782    1.335814   -0.894731
     13          1           0       -1.224490    0.486136    1.872465
     14          1           0       -1.507178   -1.694543    0.700751
 ---------------------------------------------------------------------

 SCF Done:  E(RHF) =  -356.149368382     A.U. after    2 cycles

 The electronic state is 1-A.
 Alpha  occ. eigenvalues --  -20.57854 -15.56317 -15.51129 -15.50915 -11.35700
 Alpha  occ. eigenvalues --  -11.30458 -11.26672  -1.52472  -1.28396  -1.22768
 Alpha  occ. eigenvalues --   -1.12076  -0.95511  -0.91124  -0.80813  -0.77205
 Alpha  occ. eigenvalues --   -0.76394  -0.67996  -0.66996  -0.64272  -0.59869
 Alpha  occ. eigenvalues --   -0.57173  -0.55583  -0.53594  -0.49883  -0.47594
 Alpha  occ. eigenvalues --   -0.43335  -0.39114
 Alpha virt. eigenvalues --    0.03376   0.04215   0.04729   0.05027   0.05882
 Alpha virt. eigenvalues --    0.06112   0.07076   0.09795   0.10275   0.12150
 Alpha virt. eigenvalues --    0.12418   0.13961   0.15088   0.15359   0.15775

 Mulliken charges:
               1
     1  C   -0.269872
     2  N    0.807911
     3  C   -0.738449
     4  O   -1.458091
     5  N    0.495478
     6  C   -0.659073
     7  N    0.885938
     8  H    0.137344
     9  H    0.166861
    10  H    0.040565
    11  H    0.290343
    12  H    0.345097
    13  H   -0.274903
    14  H    0.230850
 Sum of Mulliken charges =  -0.00000

 Dipole moment (field-independent basis, Debye):
    X=              1.4588    Y=             -0.2033    Z=              2.6489  Tot=              3.0309

 Test job not archived.
 1\1\GINC-SE135\SP\RHF\Aug-CC-pVDZ\C3H7N3O1\OHZDE\09-Apr-2025\0\\#t hf
 aug-cc-pvdz iop(5/13=1,5/36=2,99/5=2) pseudo=read geom=check guess=(re
 ad,tcheck) scf=(maxcycle=1)\\title\\0,1\C,0,1.99439713,0.17405078,-0.4
 9318976\N,0,1.0192419,0.30060037,0.5738588\C,0,-0.30885032,0.14705519,
 0.23101878\O,0,-0.9025736,1.21653721,-0.51041176\N,0,-1.25330354,-0.47
 659056,1.09293943\C,0,-1.31509015,-0.80156623,-0.32086964\N,0,-1.93814
 917,0.31806501,-1.02419414\H,0,1.75930703,0.89218107,-1.27834463\H,0,2
 .02265567,-0.82984261,-0.93587609\H,0,2.98394105,0.41615779,-0.1070197

 Normal termination of Gaussian 16 at Wed Apr  9 19:16:04 2025.
