 Gaussian 16, Revision C.01,

 ----------------------------------------------------------------------
 #t hf aug-cc-pvdz symm=none int=(grid=ultrafine) guess=(read,tcheck) s
 table=(opt,rrhf)
 ----------------------------------------------------------------------
 -----
 title
 -----
 Symbolic Z-matrix:
 Charge =  0 Multiplicity = 1

 SCF Done:  E(RHF) =  -206.799112624     A.U. after   14 cycles
 Normal termination of Gaussian 16 at Wed Apr  9 15:41:31 2025.
 Gaussian 16:  ES64L-G16RevC.01  3-Jul-2019

 ----------------------------------------------------------------------
 #t hf aug-cc-pvdz iop(5/13=1,5/36=2,99/5=2) pseudo=read geom=check gue
 ss=(read,tcheck) scf=(maxcycle=1)
 ----------------------------------------------------------------------
 -----
 title
 -----
 Structure from the checkpoint file:  "Grambow2020_b97d3_006673_forward_mol2.chk"
 Charge =  0 Multiplicity = 1

                         Standard orientation:
 ---------------------------------------------------------------------
 Center     Atomic      Atomic             Coordinates (Angstroms)
 Number     Number       Type             X           Y           Z
 ---------------------------------------------------------------------
      1          8           0        1.516592   -0.457790   -0.108036
      2          6           0        0.576517    0.592782    0.038830
      3          6           0       -0.826195    0.124521   -0.007316
      4          7           0       -1.922317   -0.284514   -0.015734
      5          1           0        1.362402   -1.097423    0.612665
      6          1           0        0.747747    1.279389   -0.800022
      7          1           0        0.711407    1.168139    0.972702
 ---------------------------------------------------------------------

 SCF Done:  E(RHF) =  -207.002686310     A.U. after    2 cycles

 The electronic state is 1-A.
 Alpha  occ. eigenvalues --  -20.59582 -15.53483 -11.36111 -11.29892  -1.49138
 Alpha  occ. eigenvalues --   -1.23698  -1.02216  -0.77410  -0.71527  -0.66174
 Alpha  occ. eigenvalues --   -0.62522  -0.57478  -0.51895  -0.50710  -0.49068
 Alpha virt. eigenvalues --    0.02882   0.04164   0.04965   0.06929   0.10021
 Alpha virt. eigenvalues --    0.11665   0.12284   0.13176   0.14004   0.15121
 Alpha virt. eigenvalues --    0.15292   0.16109   0.20142   0.21178   0.21903

 Mulliken charges:
               1
     1  O   -1.019419
     2  C    0.917139
     3  C   -1.240778
     4  N    0.653355
     5  H    0.330640
     6  H    0.142578
     7  H    0.216485
 Sum of Mulliken charges =  -0.00000

 Dipole moment (field-independent basis, Debye):
    X=              3.1630    Y=              1.5209    Z=              1.3142  Tot=              3.7477

 Test job not archived.
 1\1\GINC-SE138\SP\RHF\Aug-CC-pVDZ\C2H3N1O1\OHZDE\09-Apr-2025\0\\#t hf
 aug-cc-pvdz iop(5/13=1,5/36=2,99/5=2) pseudo=read geom=check guess=(re
 ad,tcheck) scf=(maxcycle=1)\\title\\0,1\O,0,-1.21323217,0.51760048,-0.
 42301722\C,0,-0.23619525,-0.42616548,-0.01839772\C,0,1.13509214,0.1292
 2502,-0.00778237\N,0,2.20133734,0.61003364,0.02061455\H,0,-1.17160614,
 1.27184762,0.19479683\H,0,-0.27971876,-1.24645156,-0.74617471\H,0,-0.4
 3567716,-0.85608971,0.97996064\\Version=ES64L-G16RevC.01\State=1-A\HF=
 -207.0026863\RMSD=1.704e-02\Dipole=-1.2561755,-0.5981942,0.4880371\Qua

 Normal termination of Gaussian 16 at Wed Apr  9 15:41:32 2025.
