 Gaussian 16, Revision C.01,

 ----------------------------------------------------------------------
 #t hf aug-cc-pvdz symm=none int=(grid=ultrafine) guess=(read,tcheck) s
 table=(opt,rrhf)
 ----------------------------------------------------------------------
 -----
 title
 -----
 Symbolic Z-matrix:
 Charge =  0 Multiplicity = 1

 SCF Done:  E(RHF) =  -247.784264818     A.U. after   15 cycles
 Normal termination of Gaussian 16 at Wed Apr  9 16:53:04 2025.
 Gaussian 16:  ES64L-G16RevC.01  3-Jul-2019

 ----------------------------------------------------------------------
 #t hf aug-cc-pvdz iop(5/13=1,5/36=2,99/5=2) pseudo=read geom=check gue
 ss=(read,tcheck) scf=(maxcycle=1)
 ----------------------------------------------------------------------
 -----
 title
 -----
 Structure from the checkpoint file:  "Grambow2020_wb97xd3_006164_reverse_mol2.chk"
 Charge =  0 Multiplicity = 1

                         Standard orientation:
 ---------------------------------------------------------------------
 Center     Atomic      Atomic             Coordinates (Angstroms)
 Number     Number       Type             X           Y           Z
 ---------------------------------------------------------------------
      1          6           0        1.306845    0.310980    0.376630
      2          6           0        0.204544    1.280955   -0.114776
      3          6           0       -1.241247    0.691231   -0.130828
      4          6           0       -1.251986   -0.809503    0.206283
      5          6           0       -0.064707   -1.262110   -0.104115
      6          7           0        1.085914   -0.953778   -0.396237
      7          1           0        1.226867    0.128261    1.450568
      8          1           0        0.473147    1.593637   -1.125296
      9          1           0        2.299287    0.699648    0.153485
     10          1           0        0.228344    2.176430    0.510563
     11          1           0       -1.710132    0.909406   -1.092295
     12          1           0       -1.853472    1.173052    0.634943
     13          1           0       -1.986128   -1.273305    0.842528
 ---------------------------------------------------------------------

 SCF Done:  E(RHF) =  -248.046931036     A.U. after    2 cycles

 The electronic state is 1-A.
 Alpha  occ. eigenvalues --  -15.51144 -11.30116 -11.28056 -11.25588 -11.24388
 Alpha  occ. eigenvalues --  -11.24168  -1.27678  -1.07824  -1.02580  -0.90564
 Alpha  occ. eigenvalues --   -0.83501  -0.70507  -0.69230  -0.65340  -0.62478
 Alpha  occ. eigenvalues --   -0.59878  -0.54862  -0.52161  -0.51756  -0.48266
 Alpha  occ. eigenvalues --   -0.45743  -0.34227
 Alpha virt. eigenvalues --    0.03479   0.04092   0.04265   0.04470   0.05778
 Alpha virt. eigenvalues --    0.05889   0.07057   0.07848   0.09932   0.11325
 Alpha virt. eigenvalues --    0.12869   0.13607   0.13705   0.15022   0.15091

 Mulliken charges:
               1
     1  C   -0.295888
     2  C   -0.283909
     3  C   -0.614702
     4  C    0.795894
     5  C   -1.375055
     6  N    0.905558
     7  H    0.132311
     8  H    0.175087
     9  H    0.069207
    10  H    0.162002
    11  H    0.187688
    12  H    0.221886
    13  H   -0.080082
 Sum of Mulliken charges =  -0.00000

 Dipole moment (field-independent basis, Debye):
    X=             -1.3545    Y=              1.9206    Z=              1.6689  Tot=              2.8824

 Test job not archived.
 1\1\GINC-SE114\SP\RHF\Aug-CC-pVDZ\C5H7N1\OHZDE\09-Apr-2025\0\\#t hf au
 g-cc-pvdz iop(5/13=1,5/36=2,99/5=2) pseudo=read geom=check guess=(read
 ,tcheck) scf=(maxcycle=1)\\title\\0,1\C,0,0.85466153,1.06895932,-0.428
 39799\C,0,0.87524176,-0.22422949,0.42285754\C,0,-0.45612634,-1.0401945
 3,0.42493785\C,0,-1.58478394,-0.29752071,-0.3102694\C,0,-1.27836199,0.
 97312631,-0.26133518\N,0,-0.39431175,1.78714888,-0.01606802\H,0,0.8370
 2914,0.84236481,-1.49679458\H,0,1.11805732,0.06422803,1.44701645\H,0,1
 .71806149,1.69574972,-0.21051686\H,0,1.69269431,-0.85726439,0.06997051

 Normal termination of Gaussian 16 at Wed Apr  9 16:53:08 2025.
