 Gaussian 16, Revision C.01,

 ----------------------------------------------------------------------
 #t hf aug-cc-pvdz symm=none int=(grid=ultrafine) guess=(read,tcheck) s
 table=(opt,rrhf)
 ----------------------------------------------------------------------
 -----
 title
 -----
 Symbolic Z-matrix:
 Charge =  0 Multiplicity = 1

 SCF Done:  E(RHF) =  -283.666162358     A.U. after   14 cycles
 Normal termination of Gaussian 16 at Wed Apr  9 15:43:39 2025.
 Gaussian 16:  ES64L-G16RevC.01  3-Jul-2019

 ----------------------------------------------------------------------
 #t hf aug-cc-pvdz iop(5/13=1,5/36=2,99/5=2) pseudo=read geom=check gue
 ss=(read,tcheck) scf=(maxcycle=1)
 ----------------------------------------------------------------------
 -----
 title
 -----
 Structure from the checkpoint file:  "Grambow2020_b97d3_006722_forward_mol2.chk"
 Charge =  0 Multiplicity = 1

                         Standard orientation:
 ---------------------------------------------------------------------
 Center     Atomic      Atomic             Coordinates (Angstroms)
 Number     Number       Type             X           Y           Z
 ---------------------------------------------------------------------
      1          6           0        1.413787    0.004472    0.611745
      2          6           0        0.605995   -0.750099   -0.402778
      3          8           0       -0.727342   -1.112754   -0.017315
      4          6           0       -1.365277    0.086479    0.195179
      5          7           0       -0.726459    1.176361   -0.021374
      6          6           0        0.607718    0.775055   -0.417554
      7          1           0        1.082669    0.022388    1.649937
      8          1           0        2.493760   -0.012498    0.466007
      9          1           0        1.035143   -1.429044   -1.135688
     10          1           0       -2.389453   -0.006569    0.545364
     11          1           0        1.108498    1.397782   -1.157031
 ---------------------------------------------------------------------

 SCF Done:  E(RHF) =  -283.953731404     A.U. after    2 cycles

 The electronic state is 1-A.
 Alpha  occ. eigenvalues --  -20.59545 -15.50314 -11.34821 -11.30961 -11.28037
 Alpha  occ. eigenvalues --  -11.25252  -1.52357  -1.24039  -1.12985  -0.89620
 Alpha  occ. eigenvalues --   -0.85357  -0.79443  -0.74683  -0.66955  -0.63726
 Alpha  occ. eigenvalues --   -0.61390  -0.59128  -0.55197  -0.52524  -0.49735
 Alpha  occ. eigenvalues --   -0.41851  -0.38880
 Alpha virt. eigenvalues --    0.03458   0.04267   0.04459   0.04789   0.05904
 Alpha virt. eigenvalues --    0.09118   0.09530   0.10672   0.10929   0.12120
 Alpha virt. eigenvalues --    0.13976   0.14390   0.15106   0.15757   0.15944

 Mulliken charges:
               1
     1  C    0.152681
     2  C    1.429059
     3  O   -1.373398
     4  C    0.206864
     5  N    0.637225
     6  C   -0.684330
     7  H   -0.062469
     8  H   -0.066551
     9  H   -0.094550
    10  H    0.021117
    11  H   -0.165648
 Sum of Mulliken charges =  -0.00000

 Dipole moment (field-independent basis, Debye):
    X=              1.1499    Y=             -1.4769    Z=             -0.1313  Tot=              1.8764

 Test job not archived.
 1\1\GINC-SE162\SP\RHF\Aug-CC-pVDZ\C4H5N1O1\OHZDE\09-Apr-2025\0\\#t hf
 aug-cc-pvdz iop(5/13=1,5/36=2,99/5=2) pseudo=read geom=check guess=(re
 ad,tcheck) scf=(maxcycle=1)\\title\\0,1\C,0,-1.20726053,0.38973671,-0.
 06247251\C,0,-0.24351102,-0.56581684,-0.70221217\O,0,1.0124902,-0.0185
 8542,-1.12751938\C,0,1.60220289,0.43559265,0.02843768\N,0,1.00106544,0
 .25219599,1.1454989\C,0,-0.25030668,-0.39741468,0.81367483\H,0,-1.0470
 5193,1.46204407,-0.17334919\H,0,-2.24977617,0.0722964,-0.04630667\H,0,
 -0.54621241,-1.4340551,-1.28257837\H,0,2.55738883,0.93122397,-0.120536

 Normal termination of Gaussian 16 at Wed Apr  9 15:43:42 2025.
