 Gaussian 16, Revision C.01,

 ----------------------------------------------------------------------
 #t hf aug-cc-pvdz symm=none int=(grid=ultrafine) guess=(read,tcheck) s
 table=(opt,rrhf)
 ----------------------------------------------------------------------
 -----
 title
 -----
 Symbolic Z-matrix:
 Charge =  0 Multiplicity = 1

 SCF Done:  E(RHF) =  -338.615622306     A.U. after   16 cycles
 Normal termination of Gaussian 16 at Wed Apr  9 03:28:12 2025.
 Gaussian 16:  ES64L-G16RevC.01  3-Jul-2019

 ----------------------------------------------------------------------
 #t hf aug-cc-pvdz iop(5/13=1,5/36=2,99/5=2) pseudo=read geom=check gue
 ss=(read,tcheck) scf=(maxcycle=1)
 ----------------------------------------------------------------------
 -----
 title
 -----
 Structure from the checkpoint file:  "Grambow2020_wb97xd3_006690_forward_mol1.chk"
 Charge =  0 Multiplicity = 1

                         Standard orientation:
 ---------------------------------------------------------------------
 Center     Atomic      Atomic             Coordinates (Angstroms)
 Number     Number       Type             X           Y           Z
 ---------------------------------------------------------------------
      1          6           0        2.453278   -0.588247   -0.200019
      2          6           0        1.252103   -0.060840    0.113557
      3          6           0        0.610919    1.210881    0.075041
      4          7           0       -0.715705    1.204723   -0.132073
      5          6           0       -1.044841   -0.081406   -0.047429
      6          7           0       -2.320147   -0.487524   -0.044948
      7          8           0       -0.104354   -0.949300    0.137365
      8          1           0        3.036655   -0.115995   -0.976187
      9          1           0        0.983390    0.411435    1.260383
     10          1           0        2.839015   -1.464317    0.297601
     11          1           0        1.167592    2.128277    0.215576
     12          1           0       -2.533098   -1.464688   -0.105794
     13          1           0       -3.036521    0.196971   -0.198254
 ---------------------------------------------------------------------

 SCF Done:  E(RHF) =  -338.960531788     A.U. after    2 cycles

 The electronic state is 1-A.
 Alpha  occ. eigenvalues --  -20.59461 -15.55577 -15.50142 -11.40851 -11.34807
 Alpha  occ. eigenvalues --  -11.34436 -11.17284  -1.54257  -1.28504  -1.25391
 Alpha  occ. eigenvalues --   -1.08863  -0.94603  -0.87198  -0.84631  -0.78250
 Alpha  occ. eigenvalues --   -0.72881  -0.69710  -0.67434  -0.61391  -0.59297
 Alpha  occ. eigenvalues --   -0.58405  -0.52312  -0.51179  -0.49873  -0.43079
 Alpha  occ. eigenvalues --   -0.27294
 Alpha virt. eigenvalues --    0.02389   0.04141   0.05064   0.05246   0.05362
 Alpha virt. eigenvalues --    0.06960   0.08434   0.09550   0.10889   0.11665
 Alpha virt. eigenvalues --    0.12051   0.12759   0.14512   0.15107   0.15247

 Mulliken charges:
               1
     1  C    0.143087
     2  C    1.053069
     3  C   -1.305690
     4  N    0.863845
     5  C   -0.496723
     6  N    0.753696
     7  O   -1.454901
     8  H   -0.124385
     9  H    0.575780
    10  H   -0.162714
    11  H   -0.148201
    12  H    0.156368
    13  H    0.146769
 Sum of Mulliken charges =  -0.00000

 Dipole moment (field-independent basis, Debye):
    X=             -3.3078    Y=              0.3696    Z=              0.6551  Tot=              3.3923

 Test job not archived.
 1\1\GINC-SE412\SP\RHF\Aug-CC-pVDZ\C4H6N2O1\OHZDE\09-Apr-2025\0\\#t hf
 aug-cc-pvdz iop(5/13=1,5/36=2,99/5=2) pseudo=read geom=check guess=(re
 ad,tcheck) scf=(maxcycle=1)\\title\\0,1\C,0,-2.19844118,0.78710038,-0.
 08240989\C,0,-1.04817539,0.08280526,-0.06955854\C,0,-0.4939718,-1.0527
 7948,-0.7277218\N,0,0.83668187,-1.04853979,-0.90718717\C,0,1.2491968,0
 .0021119,-0.20320948\N,0,2.54822106,0.25532002,-0.00380028\O,0,0.36377
 722,0.73840202,0.38485068\H,0,-2.78381989,0.80138005,-0.98955695\H,0,-
 0.85429507,-0.90909782,0.69790367\H,0,-2.54164399,1.33469599,0.7814591

 Normal termination of Gaussian 16 at Wed Apr  9 03:28:16 2025.
