 Gaussian 16, Revision C.01,

 ----------------------------------------------------------------------
 #t hf aug-cc-pvdz symm=none int=(grid=ultrafine) guess=(read,tcheck) s
 table=(opt,rrhf)
 ----------------------------------------------------------------------
 -----
 title
 -----
 Symbolic Z-matrix:
 Charge =  0 Multiplicity = 1

 SCF Done:  E(RHF) =  -339.732003074     A.U. after   15 cycles
 Normal termination of Gaussian 16 at Wed Apr  9 03:33:21 2025.
 Gaussian 16:  ES64L-G16RevC.01  3-Jul-2019

 ----------------------------------------------------------------------
 #t hf aug-cc-pvdz iop(5/13=1,5/36=2,99/5=2) pseudo=read geom=check gue
 ss=(read,tcheck) scf=(maxcycle=1)
 ----------------------------------------------------------------------
 -----
 title
 -----
 Structure from the checkpoint file:  "Grambow2020_wb97xd3_007005_forward_mol1.chk"
 Charge =  0 Multiplicity = 1

                         Standard orientation:
 ---------------------------------------------------------------------
 Center     Atomic      Atomic             Coordinates (Angstroms)
 Number     Number       Type             X           Y           Z
 ---------------------------------------------------------------------
      1          6           0        0.027042    1.456248   -0.828073
      2          6           0        0.148267    0.245660    0.092479
      3          8           0       -0.132037    0.568693    1.425309
      4          6           0       -0.875951   -0.869462   -0.246809
      5          7           0       -2.178609   -0.442148   -0.070322
      6          6           0        1.510004   -0.316636    0.021268
      7          7           0        2.552269   -0.778734   -0.097858
      8          1           0        0.677152    2.246476   -0.456869
      9          1           0       -1.006847    1.801061   -0.814485
     10          1           0        0.320516    1.211767   -1.850823
     11          1           0       -1.104992    0.582628    1.464639
     12          1           0       -0.554375   -1.869961    0.056253
     13          1           0       -0.532747   -1.043436   -1.616286
     14          1           0       -2.770711   -1.238908    0.132923
     15          1           0       -1.443496   -0.787854   -1.373764
 ---------------------------------------------------------------------

 SCF Done:  E(RHF) =  -340.080148941     A.U. after    2 cycles

 The electronic state is 1-A.
 Alpha  occ. eigenvalues --  -20.57805 -15.53031 -15.47420 -11.37838 -11.36877
 Alpha  occ. eigenvalues --  -11.29036 -11.25902  -1.49703  -1.25399  -1.23183
 Alpha  occ. eigenvalues --   -1.08461  -0.96236  -0.89072  -0.77604  -0.75212
 Alpha  occ. eigenvalues --   -0.72072  -0.66502  -0.64472  -0.62488  -0.58708
 Alpha  occ. eigenvalues --   -0.57857  -0.54995  -0.52455  -0.51916  -0.49567
 Alpha  occ. eigenvalues --   -0.46179  -0.39882
 Alpha virt. eigenvalues --    0.02390   0.03791   0.04252   0.04451   0.05965
 Alpha virt. eigenvalues --    0.06261   0.06725   0.08035   0.08969   0.11252
 Alpha virt. eigenvalues --    0.11823   0.12331   0.13512   0.13631   0.13866

 Mulliken charges:
               1
     1  C    0.130015
     2  C    0.964713
     3  O   -1.453927
     4  C   -1.296023
     5  N    0.207158
     6  C   -1.744078
     7  N    1.088594
     8  H    0.209883
     9  H    0.294384
    10  H    0.274131
    11  H    0.355160
    12  H   -0.054082
    13  H    0.241977
    14  H    0.183781
    15  H    0.598315
 Sum of Mulliken charges =  -0.00000

 Dipole moment (field-independent basis, Debye):
    X=             -2.8933    Y=             -0.5863    Z=             -2.3096  Tot=              3.7482

 Test job not archived.
 1\1\GINC-SE365\SP\RHF\Aug-CC-pVDZ\C4H8N2O1\OHZDE\09-Apr-2025\0\\#t hf
 aug-cc-pvdz iop(5/13=1,5/36=2,99/5=2) pseudo=read geom=check guess=(re
 ad,tcheck) scf=(maxcycle=1)\\title\\0,1\C,0,0.54531891,1.45277599,-0.1
 2891251\C,0,0.59319078,-0.01644779,0.27940878\O,0,0.63149204,-0.174617
 07,1.66968623\C,0,-0.67476801,-0.79955956,-0.15262109\N,0,-1.81300681,
 -0.31604373,0.46486491\C,0,1.78113277,-0.67013911,-0.30115645\N,0,2.67
 227329,-1.1760106,-0.81497033\H,0,1.3949619,1.96866779,0.31477488\H,0,
 -0.38019026,1.88819717,0.24771654\H,0,0.59208866,1.56801314,-1.2135543

 Normal termination of Gaussian 16 at Wed Apr  9 03:33:26 2025.
