 Gaussian 16, Revision C.01,

 ----------------------------------------------------------------------
 #t hf aug-cc-pvdz symm=none int=(grid=ultrafine) guess=(read,tcheck) s
 table=(opt,rrhf)
 ----------------------------------------------------------------------
 -----
 title
 -----
 Symbolic Z-matrix:
 Charge =  0 Multiplicity = 1

 SCF Done:  E(RHF) =  -337.539583283     A.U. after   16 cycles
 Normal termination of Gaussian 16 at Wed Apr  9 03:58:24 2025.
 Gaussian 16:  ES64L-G16RevC.01  3-Jul-2019

 ----------------------------------------------------------------------
 #t hf aug-cc-pvdz iop(5/13=1,5/36=2,99/5=2) pseudo=read geom=check gue
 ss=(read,tcheck) scf=(maxcycle=1)
 ----------------------------------------------------------------------
 -----
 title
 -----
 Structure from the checkpoint file:  "Grambow2020_wb97xd3_008692_reverse_mol2.chk"
 Charge =  0 Multiplicity = 1

                         Standard orientation:
 ---------------------------------------------------------------------
 Center     Atomic      Atomic             Coordinates (Angstroms)
 Number     Number       Type             X           Y           Z
 ---------------------------------------------------------------------
      1          8           0       -2.824686   -0.012423    0.009022
      2          6           0       -1.660054   -0.030610   -0.012264
      3          6           0       -0.354840   -0.009448    0.011454
      4          6           0        0.561122    1.215282    0.005144
      5          7           0        1.904363    0.634804    0.019265
      6          6           0        1.783918   -0.624409    0.000102
      7          7           0        0.501894   -1.151004   -0.097279
      8          1           0        0.425478    1.865071    0.873065
      9          1           0        0.429934    1.824476   -0.892488
     10          1           0        2.625700   -1.308082    0.020887
     11          1           0        0.291707   -1.973575    0.445843
 ---------------------------------------------------------------------

 SCF Done:  E(RHF) =  -337.876331767     A.U. after    2 cycles

 The electronic state is 1-A.
 Alpha  occ. eigenvalues --  -20.61308 -15.54779 -15.49678 -11.37930 -11.32783
 Alpha  occ. eigenvalues --  -11.28917 -11.28774  -1.54920  -1.32985  -1.18772
 Alpha  occ. eigenvalues --   -1.07560  -0.94825  -0.83901  -0.82078  -0.74272
 Alpha  occ. eigenvalues --   -0.68495  -0.68062  -0.64903  -0.62747  -0.59972
 Alpha  occ. eigenvalues --   -0.58426  -0.55298  -0.48141  -0.45378  -0.32839
 Alpha virt. eigenvalues --    0.02670   0.04592   0.04897   0.05498   0.06890
 Alpha virt. eigenvalues --    0.08193   0.09124   0.09493   0.10548   0.11166
 Alpha virt. eigenvalues --    0.12631   0.13706   0.13879   0.14676   0.15730

 Mulliken charges:
               1
     1  O   -0.966138
     2  C    0.576691
     3  C    0.088160
     4  C   -0.626290
     5  N    0.588303
     6  C   -0.676842
     7  N    0.674946
     8  H    0.132840
     9  H    0.142836
    10  H   -0.053850
    11  H    0.119345
 Sum of Mulliken charges =  -0.00000

 Dipole moment (field-independent basis, Debye):
    X=              0.3529    Y=             -1.9981    Z=              0.8172  Tot=              2.1874

 Test job not archived.
 1\1\GINC-SE334\SP\RHF\Aug-CC-pVDZ\C4H4N2O1\OHZDE\09-Apr-2025\0\\#t hf
 aug-cc-pvdz iop(5/13=1,5/36=2,99/5=2) pseudo=read geom=check guess=(re
 ad,tcheck) scf=(maxcycle=1)\\title\\0,1\O,0,-2.89053661,-1.20133224,-0
 .10514468\C,0,-1.80114442,-0.78863816,-0.09737451\C,0,-0.5960945,-0.28
 951587,-0.03970114\C,0,-0.19640169,1.18551187,0.01968363\N,0,1.2659933
 2,1.14019271,0.04792971\C,0,1.61867987,-0.07297554,-0.01783304\N,0,0.6
 2240206,-1.02997685,-0.16599172\H,0,-0.57161453,1.70309064,0.9058208\H
 ,0,-0.5332048,1.74036323,-0.85939269\H,0,2.65298732,-0.3990128,0.00072

 Normal termination of Gaussian 16 at Wed Apr  9 03:58:27 2025.
