 Gaussian 16, Revision C.01,

 ----------------------------------------------------------------------
 #t hf aug-cc-pvdz symm=none int=(grid=ultrafine) guess=(read,tcheck) s
 table=(opt,rrhf)
 ----------------------------------------------------------------------
 -----
 title
 -----
 Symbolic Z-matrix:
 Charge =  0 Multiplicity = 1

 SCF Done:  E(RHF) =  -302.744303477     A.U. after   15 cycles
 Normal termination of Gaussian 16 at Wed Apr  9 19:12:04 2025.
 Gaussian 16:  ES64L-G16RevC.01  3-Jul-2019

 ----------------------------------------------------------------------
 #t hf aug-cc-pvdz iop(5/13=1,5/36=2,99/5=2) pseudo=read geom=check gue
 ss=(read,tcheck) scf=(maxcycle=1)
 ----------------------------------------------------------------------
 -----
 title
 -----
 Structure from the checkpoint file:  "Grambow2020_wb97xd3_008870_reverse_mol1.chk"
 Charge =  0 Multiplicity = 1

                         Standard orientation:
 ---------------------------------------------------------------------
 Center     Atomic      Atomic             Coordinates (Angstroms)
 Number     Number       Type             X           Y           Z
 ---------------------------------------------------------------------
      1          6           0       -2.593482   -0.508735    0.285039
      2          7           0       -1.081222   -0.108572   -0.292492
      3          6           0       -0.664987    1.213090   -0.116326
      4          6           0        0.663794    1.231914    0.076307
      5          6           0        1.138473   -0.136918    0.007759
      6          7           0        2.458480   -0.499967    0.222003
      7          6           0        0.065750   -0.929425   -0.220400
      8          1           0       -1.895281   -0.190391   -1.005370
      9          1           0       -2.478932   -1.589569    0.388963
     10          1           0       -2.613499   -0.051995    1.275521
     11          1           0       -1.399131    2.002625   -0.138625
     12          1           0        1.274502    2.105595    0.246896
     13          1           0        3.134677    0.186219   -0.067826
     14          1           0        2.704799   -1.423885   -0.090359
     15          1           0       -0.025227   -1.998375   -0.310049
 ---------------------------------------------------------------------

 SCF Done:  E(RHF) =  -303.063434416     A.U. after    2 cycles

 The electronic state is 1-A.
 Alpha  occ. eigenvalues --  -15.56878 -15.52176 -11.29144 -11.28695 -11.25856
 Alpha  occ. eigenvalues --  -11.24941 -11.21795  -1.31720  -1.22699  -1.08169
 Alpha  occ. eigenvalues --   -1.00826  -0.90062  -0.82065  -0.80786  -0.76250
 Alpha  occ. eigenvalues --   -0.72465  -0.69147  -0.63891  -0.61311  -0.59965
 Alpha  occ. eigenvalues --   -0.56488  -0.54252  -0.52056  -0.39676  -0.32921
 Alpha  occ. eigenvalues --   -0.31477
 Alpha virt. eigenvalues --    0.02483   0.03875   0.04355   0.05203   0.05742
 Alpha virt. eigenvalues --    0.05913   0.07662   0.08572   0.09627   0.10509
 Alpha virt. eigenvalues --    0.10829   0.11408   0.12788   0.13859   0.14419

 Mulliken charges:
               1
     1  C   -0.508451
     2  N    0.534653
     3  C   -0.797503
     4  C    1.138398
     5  C   -1.325729
     6  N    0.714715
     7  C    0.231686
     8  H    0.615664
     9  H   -0.074418
    10  H    0.037730
    11  H   -0.255439
    12  H   -0.191361
    13  H    0.064237
    14  H    0.056963
    15  H   -0.241145
 Sum of Mulliken charges =  -0.00000

 Dipole moment (field-independent basis, Debye):
    X=              4.1107    Y=              0.4009    Z=             -1.0817  Tot=              4.2695

 Test job not archived.
 1\1\GINC-SE212\SP\RHF\Aug-CC-pVDZ\C5H8N2\OHZDE\09-Apr-2025\0\\#t hf au
 g-cc-pvdz iop(5/13=1,5/36=2,99/5=2) pseudo=read geom=check guess=(read
 ,tcheck) scf=(maxcycle=1)\\title\\0,1\C,0,2.53672504,0.25936209,0.1770
 6275\N,0,0.98472601,-0.11561006,-0.30387129\C,0,0.44228885,-1.30850248
 ,0.17970477\C,0,-0.87914906,-1.14873692,0.35689968\C,0,-1.21708076,0.2
 038548,-0.04312348\N,0,-2.49175421,0.73672844,0.06353732\C,0,-0.074427
 91,0.80815081,-0.44316001\H,0,1.79327328,-0.28823081,-1.00674638\H,0,2
 .53096731,1.33945946,0.01743338\H,0,2.52475036,0.0537523,1.24834545\H,

 Normal termination of Gaussian 16 at Wed Apr  9 19:12:09 2025.
