 Gaussian 16, Revision C.01,

 ----------------------------------------------------------------------
 #t hf aug-cc-pvdz symm=none int=(grid=ultrafine) guess=(read,tcheck) s
 table=(opt,rrhf)
 ----------------------------------------------------------------------
 -----
 title
 -----
 Symbolic Z-matrix:
 Charge =  0 Multiplicity = 1

 SCF Done:  E(RHF) =  -321.918304420     A.U. after   13 cycles
 Normal termination of Gaussian 16 at Wed Apr  9 15:42:46 2025.
 Gaussian 16:  ES64L-G16RevC.01  3-Jul-2019

 ----------------------------------------------------------------------
 #t hf aug-cc-pvdz iop(5/13=1,5/36=2,99/5=2) pseudo=read geom=check gue
 ss=(read,tcheck) scf=(maxcycle=1)
 ----------------------------------------------------------------------
 -----
 title
 -----
 Structure from the checkpoint file:  "Grambow2020_b97d3_006702_forward_mol2.chk"
 Charge =  0 Multiplicity = 1

                         Standard orientation:
 ---------------------------------------------------------------------
 Center     Atomic      Atomic             Coordinates (Angstroms)
 Number     Number       Type             X           Y           Z
 ---------------------------------------------------------------------
      1          6           0        2.440908   -0.008231    0.041464
      2          7           0        1.131016   -0.622580   -0.069358
      3          6           0       -0.019005    0.117294   -0.019011
      4          8           0       -0.089584    1.338674   -0.016918
      5          8           0       -1.100300   -0.729288    0.007144
      6          6           0       -2.370105   -0.054449    0.021719
      7          1           0        3.150063   -0.504231   -0.635112
      8          1           0        2.838862   -0.051026    1.068662
      9          1           0        2.342225    1.042044   -0.249479
     10          1           0        1.040622   -1.625910    0.038281
     11          1           0       -2.462577    0.591159    0.904159
     12          1           0       -3.117820   -0.853085    0.052734
     13          1           0       -2.500202    0.556335   -0.880585
 ---------------------------------------------------------------------

 SCF Done:  E(RHF) =  -322.246497589     A.U. after    2 cycles

 The electronic state is 1-A.
 Alpha  occ. eigenvalues --  -20.58661 -20.51596 -15.52873 -11.40966 -11.29480
 Alpha  occ. eigenvalues --  -11.27418  -1.52992  -1.43618  -1.23906  -0.99684
 Alpha  occ. eigenvalues --   -0.92669  -0.82167  -0.75663  -0.69207  -0.67951
 Alpha  occ. eigenvalues --   -0.63782  -0.62368  -0.59877  -0.55956  -0.55110
 Alpha  occ. eigenvalues --   -0.53205  -0.45698  -0.44805  -0.42496
 Alpha virt. eigenvalues --    0.03309   0.04306   0.05159   0.05422   0.06105
 Alpha virt. eigenvalues --    0.06304   0.07129   0.10368   0.11338   0.13133
 Alpha virt. eigenvalues --    0.13600   0.14042   0.14647   0.16297   0.16911

 Mulliken charges:
               1
     1  C   -0.322355
     2  N    0.680241
     3  C    1.105228
     4  O   -1.067875
     5  O   -1.279044
     6  C    0.076791
     7  H    0.108343
     8  H    0.160087
     9  H    0.109308
    10  H    0.078991
    11  H    0.175556
    12  H   -0.000068
    13  H    0.174798
 Sum of Mulliken charges =   0.00000

 Dipole moment (field-independent basis, Debye):
    X=              0.3836    Y=             -2.2711    Z=              0.2714  Tot=              2.3192

 Test job not archived.
 1\1\GINC-SE041\SP\RHF\Aug-CC-pVDZ\C3H7N1O2\OHZDE\09-Apr-2025\0\\#t hf
 aug-cc-pvdz iop(5/13=1,5/36=2,99/5=2) pseudo=read geom=check guess=(re
 ad,tcheck) scf=(maxcycle=1)\\title\\0,1\C,0,-2.33412133,-0.19561628,-0
 .09214172\N,0,-1.06402015,0.50544845,-0.12172014\C,0,0.1265856,-0.1629
 4432,-0.21230881\O,0,0.26555735,-1.3619105,-0.41211672\O,0,1.15903329,
 0.7308734,-0.06491723\C,0,2.46462826,0.1394941,-0.18204068\H,0,-3.0871
 5599,0.36100126,-0.66641364\H,0,-2.70726297,-0.34471793,0.93443849\H,0
 ,-2.18423838,-1.17660222,-0.55329775\H,0,-1.02727408,1.48135835,0.1478

 Normal termination of Gaussian 16 at Wed Apr  9 15:42:50 2025.
