 Gaussian 16, Revision C.01,

 ----------------------------------------------------------------------
 #t hf aug-cc-pvdz symm=none int=(grid=ultrafine) guess=(read,tcheck) s
 table=(opt,rrhf)
 ----------------------------------------------------------------------
 -----
 title
 -----
 Symbolic Z-matrix:
 Charge =  0 Multiplicity = 1

 SCF Done:  E(RHF) =  -302.746167411     A.U. after   15 cycles
 Normal termination of Gaussian 16 at Wed Apr  9 19:13:02 2025.
 Gaussian 16:  ES64L-G16RevC.01  3-Jul-2019

 ----------------------------------------------------------------------
 #t hf aug-cc-pvdz iop(5/13=1,5/36=2,99/5=2) pseudo=read geom=check gue
 ss=(read,tcheck) scf=(maxcycle=1)
 ----------------------------------------------------------------------
 -----
 title
 -----
 Structure from the checkpoint file:  "Grambow2020_wb97xd3_008920_forward_mol1.chk"
 Charge =  0 Multiplicity = 1

                         Standard orientation:
 ---------------------------------------------------------------------
 Center     Atomic      Atomic             Coordinates (Angstroms)
 Number     Number       Type             X           Y           Z
 ---------------------------------------------------------------------
      1          6           0        2.209390   -0.826114    0.022847
      2          7           0        0.054576   -0.742309   -0.023659
      3          6           0       -1.227261   -1.182720   -0.013216
      4          6           0       -2.078417   -0.087028    0.011252
      5          6           0       -1.267688    1.073462    0.014091
      6          6           0        0.024763    0.589714   -0.009396
      7          7           0        1.341072    1.109329   -0.019263
      8          1           0        3.079673   -0.252162   -0.268677
      9          1           0        2.177795   -1.073676    1.072581
     10          1           0        2.013710   -1.654358   -0.637261
     11          1           0       -1.468410   -2.235247   -0.018172
     12          1           0       -3.158061   -0.120144    0.027274
     13          1           0       -1.588381    2.103591    0.027434
     14          1           0        1.600723    1.617060   -0.856856
     15          1           0        1.608697    1.641903    0.800664
 ---------------------------------------------------------------------

 SCF Done:  E(RHF) =  -303.062846950     A.U. after    2 cycles

 The electronic state is 1-A.
 Alpha  occ. eigenvalues --  -15.55297 -15.44881 -11.36796 -11.23651 -11.20035
 Alpha  occ. eigenvalues --  -11.18101 -11.17393  -1.26668  -1.18678  -0.99990
 Alpha  occ. eigenvalues --   -0.96943  -0.92981  -0.77484  -0.74735  -0.73492
 Alpha  occ. eigenvalues --   -0.68755  -0.65091  -0.64268  -0.58691  -0.55639
 Alpha  occ. eigenvalues --   -0.52869  -0.51532  -0.47267  -0.42603  -0.31011
 Alpha  occ. eigenvalues --   -0.26479
 Alpha virt. eigenvalues --    0.01520   0.02385   0.04250   0.04700   0.05365
 Alpha virt. eigenvalues --    0.05745   0.05922   0.06881   0.07832   0.10526
 Alpha virt. eigenvalues --    0.12162   0.12518   0.12878   0.15000   0.15316

 Mulliken charges:
               1
     1  C    0.058636
     2  N    0.931826
     3  C   -0.559390
     4  C    0.331671
     5  C    0.740059
     6  C   -2.831766
     7  N    0.645480
     8  H    0.068021
     9  H    0.204954
    10  H    0.176839
    11  H   -0.236408
    12  H   -0.162988
    13  H   -0.221287
    14  H    0.424954
    15  H    0.429400
 Sum of Mulliken charges =  -0.00000

 Dipole moment (field-independent basis, Debye):
    X=              6.4398    Y=              1.0238    Z=              0.1234  Tot=              6.5219

 Test job not archived.
 1\1\GINC-SE035\SP\RHF\Aug-CC-pVDZ\C5H8N2\OHZDE\09-Apr-2025\0\\#t hf au
 g-cc-pvdz iop(5/13=1,5/36=2,99/5=2) pseudo=read geom=check guess=(read
 ,tcheck) scf=(maxcycle=1)\\title\\0,1\C,0,-1.92120917,-0.9220151,0.302
 84745\N,0,0.22117885,-0.67472307,0.26506719\C,0,1.53259185,-1.00255812
 ,0.36455717\C,0,2.29858328,0.08394652,-0.03340288\C,0,1.40256359,1.120
 45216,-0.38953726\C,0,0.15034204,0.5797003,-0.17853332\N,0,-1.20142355
 ,0.97963585,-0.30322174\H,0,-2.8320215,-0.348034,0.41583541\H,0,-1.872
 14489,-1.49277807,-0.61150993\H,0,-1.66285791,-1.47621859,1.18948956\H

 Normal termination of Gaussian 16 at Wed Apr  9 19:13:07 2025.
