 Gaussian 16, Revision C.01,

 ----------------------------------------------------------------------
 #t hf aug-cc-pvdz symm=none int=(grid=ultrafine) guess=(read,tcheck) s
 table=(opt,rrhf)
 ----------------------------------------------------------------------
 -----
 title
 -----
 Symbolic Z-matrix:
 Charge =  0 Multiplicity = 1

 SCF Done:  E(RHF) =  -325.120159577     A.U. after   13 cycles
 Normal termination of Gaussian 16 at Wed Apr  9 18:50:58 2025.
 Gaussian 16:  ES64L-G16RevC.01  3-Jul-2019

 ----------------------------------------------------------------------
 #t hf aug-cc-pvdz iop(5/13=1,5/36=2,99/5=2) pseudo=read geom=check gue
 ss=(read,tcheck) scf=(maxcycle=1)
 ----------------------------------------------------------------------
 -----
 title
 -----
 Structure from the checkpoint file:  "Grambow2020_wb97xd3_008110_forward_mol2.chk"
 Charge =  0 Multiplicity = 1

                         Standard orientation:
 ---------------------------------------------------------------------
 Center     Atomic      Atomic             Coordinates (Angstroms)
 Number     Number       Type             X           Y           Z
 ---------------------------------------------------------------------
      1          6           0       -2.730489    0.012015   -0.163521
      2          7           0       -1.366073    0.053282   -0.634197
      3          6           0       -0.296921   -0.023997    0.198780
      4          8           0       -0.407006   -0.122882    1.405671
      5          6           0        1.066727    0.033176   -0.479312
      6          6           0        1.815011    1.275220    0.000181
      7          6           0        1.843369   -1.243385   -0.165715
      8          1           0       -3.222910   -0.923604   -0.439496
      9          1           0       -3.304289    0.847103   -0.568902
     10          1           0       -2.709669    0.086936    0.921605
     11          1           0       -1.193701    0.111100   -1.620733
     12          1           0        0.924517    0.103469   -1.563457
     13          1           0        1.940359    1.238762    1.083187
     14          1           0        1.273298    2.190245   -0.247654
     15          1           0        2.802314    1.328236   -0.462752
     16          1           0        2.830560   -1.213165   -0.630928
     17          1           0        1.969612   -1.346937    0.912770
     18          1           0        1.322287   -2.130242   -0.532111
 ---------------------------------------------------------------------

 SCF Done:  E(RHF) =  -325.465234015     A.U. after    2 cycles

 The electronic state is 1-A.
 Alpha  occ. eigenvalues --  -20.49674 -15.52406 -11.34409 -11.26511 -11.24780
 Alpha  occ. eigenvalues --  -11.22762 -11.22719  -1.45069  -1.23936  -1.08700
 Alpha  occ. eigenvalues --   -0.97216  -0.93841  -0.84898  -0.80872  -0.70504
 Alpha  occ. eigenvalues --   -0.67636  -0.64355  -0.61475  -0.60917  -0.58328
 Alpha  occ. eigenvalues --   -0.55593  -0.54944  -0.52503  -0.52299  -0.49063
 Alpha  occ. eigenvalues --   -0.48912  -0.41154  -0.40935
 Alpha virt. eigenvalues --    0.02795   0.03856   0.04168   0.04616   0.05438
 Alpha virt. eigenvalues --    0.05779   0.06334   0.06735   0.08067   0.08591
 Alpha virt. eigenvalues --    0.09224   0.11144   0.12758   0.13972   0.14572

 Mulliken charges:
               1
     1  C   -0.424779
     2  N    0.872342
     3  C    0.474163
     4  O   -1.314243
     5  C   -1.353220
     6  C    0.067293
     7  C    0.071750
     8  H    0.131539
     9  H    0.102170
    10  H    0.061260
    11  H    0.107122
    12  H    0.121223
    13  H    0.261625
    14  H    0.133200
    15  H    0.147451
    16  H    0.150779
    17  H    0.257791
    18  H    0.132535
 Sum of Mulliken charges =  -0.00000

 Dipole moment (field-independent basis, Debye):
    X=             -0.2806    Y=              0.2794    Z=             -3.5347  Tot=              3.5568

 Test job not archived.
 1\1\GINC-SE097\SP\RHF\Aug-CC-pVDZ\C5H11N1O1\OHZDE\09-Apr-2025\0\\#t hf
  aug-cc-pvdz iop(5/13=1,5/36=2,99/5=2) pseudo=read geom=check guess=(r
 ead,tcheck) scf=(maxcycle=1)\\title\\0,1\C,0,2.84331395,0.37098013,-0.
 17166227\N,0,1.45811843,0.24063598,-0.5578166\C,0,0.46049111,0.0288859
 3,0.33817948\O,0,0.65892426,-0.07800036,1.53303544\C,0,-0.93944404,-0.
 07950465,-0.2543142\C,0,-1.49767553,-1.47310994,0.0263197\C,0,-1.82843
 088,1.00941106,0.34157886\H,0,3.20040951,1.39628255,-0.29520415\H,0,3.
 47321811,-0.29685384,-0.76172203\H,0,2.92192839,0.09974777,0.87895533\

 Normal termination of Gaussian 16 at Wed Apr  9 18:51:05 2025.
