 Gaussian 16, Revision C.01,

 ----------------------------------------------------------------------
 #t hf aug-cc-pvdz symm=none int=(grid=ultrafine) guess=(read,tcheck) s
 table=(opt,rrhf)
 ----------------------------------------------------------------------
 -----
 title
 -----
 Symbolic Z-matrix:
 Charge =  0 Multiplicity = 1

 SCF Done:  E(RHF) =  -268.866830340     A.U. after   15 cycles
 Normal termination of Gaussian 16 at Wed Apr  9 03:05:28 2025.
 Gaussian 16:  ES64L-G16RevC.01  3-Jul-2019

 ----------------------------------------------------------------------
 #t hf aug-cc-pvdz iop(5/13=1,5/36=2,99/5=2) pseudo=read geom=check gue
 ss=(read,tcheck) scf=(maxcycle=1)
 ----------------------------------------------------------------------
 -----
 title
 -----
 Structure from the checkpoint file:  "Grambow2020_b97d3_006485_reverse_mol2.chk"
 Charge =  0 Multiplicity = 1

                         Standard orientation:
 ---------------------------------------------------------------------
 Center     Atomic      Atomic             Coordinates (Angstroms)
 Number     Number       Type             X           Y           Z
 ---------------------------------------------------------------------
      1          8           0       -0.859118    1.761442   -0.074314
      2          6           0       -0.625895    0.587119    0.106346
      3          6           0       -1.429689   -0.717155   -0.095938
      4          6           0       -0.065115   -1.472340   -0.110988
      5          6           0        0.661794   -0.201502    0.440084
      6          6           0        1.968992    0.271107   -0.185593
      7          1           0       -2.040147   -0.956067    0.787690
      8          1           0       -2.067461   -0.768666   -0.987892
      9          1           0        0.000060   -2.374357    0.507670
     10          1           0        0.261569   -1.711648   -1.131100
     11          1           0        2.794897   -0.412581    0.055311
     12          1           0        0.759503   -0.270458    1.536767
     13          1           0        2.228464    1.272993    0.182013
     14          1           0        1.875534    0.325880   -1.279412
 ---------------------------------------------------------------------

 SCF Done:  E(RHF) =  -269.148404658     A.U. after    2 cycles

 The electronic state is 1-A.
 Alpha  occ. eigenvalues --  -20.54227 -11.34084 -11.25565 -11.25308 -11.25133
 Alpha  occ. eigenvalues --  -11.23932  -1.46614  -1.14627  -1.00201  -0.87854
 Alpha  occ. eigenvalues --   -0.86329  -0.72729  -0.66998  -0.65103  -0.63184
 Alpha  occ. eigenvalues --   -0.58955  -0.55958  -0.54401  -0.53166  -0.50496
 Alpha  occ. eigenvalues --   -0.48034  -0.47184  -0.39230
 Alpha virt. eigenvalues --    0.03157   0.03750   0.03817   0.04596   0.06108
 Alpha virt. eigenvalues --    0.06414   0.06739   0.07683   0.10009   0.11884
 Alpha virt. eigenvalues --    0.13234   0.13433   0.13724   0.14052   0.14795

 Mulliken charges:
               1
     1  O   -1.303802
     2  C    1.285312
     3  C   -0.240192
     4  C    0.018947
     5  C   -0.621812
     6  C   -0.339571
     7  H    0.192890
     8  H    0.076165
     9  H    0.058190
    10  H    0.106012
    11  H    0.199766
    12  H    0.164900
    13  H    0.207873
    14  H    0.195322
 Sum of Mulliken charges =  -0.00000

 Dipole moment (field-independent basis, Debye):
    X=              0.8750    Y=             -3.1782    Z=              0.4604  Tot=              3.3285

 Test job not archived.
 1\1\GINC-SE460\SP\RHF\Aug-CC-pVDZ\C5H8O1\OHZDE\09-Apr-2025\0\\#t hf au
 g-cc-pvdz iop(5/13=1,5/36=2,99/5=2) pseudo=read geom=check guess=(read
 ,tcheck) scf=(maxcycle=1)\\title\\0,1\O,0,-0.56966331,2.20002465,0.697
 64111\C,0,-0.59528094,1.00152622,0.52731558\C,0,-1.70839562,-0.019204,
 0.19987007\C,0,-0.58521928,-0.97406649,-0.30934989\C,0,0.50528792,-0.0
 7126894,0.35612386\C,0,1.76240712,0.31444841,-0.41489484\H,0,-2.199942
 69,-0.38695394,1.11293001\H,0,-2.48128541,0.30607854,-0.50852313\H,0,-
 0.63289162,-2.01217671,0.03803272\H,0,-0.50185653,-0.96460723,-1.40369

 Normal termination of Gaussian 16 at Wed Apr  9 03:05:32 2025.
