 Gaussian 16, Revision C.01,

 ----------------------------------------------------------------------
 #t hf aug-cc-pvdz symm=none int=(grid=ultrafine) guess=(read,tcheck) s
 table=(opt,rrhf)
 ----------------------------------------------------------------------
 -----
 title
 -----
 Symbolic Z-matrix:
 Charge =  0 Multiplicity = 1

 SCF Done:  E(RHF) =  -286.613806773     A.U. after   16 cycles
 Normal termination of Gaussian 16 at Wed Apr  9 18:30:37 2025.
 Gaussian 16:  ES64L-G16RevC.01  3-Jul-2019

 ----------------------------------------------------------------------
 #t hf aug-cc-pvdz iop(5/13=1,5/36=2,99/5=2) pseudo=read geom=check gue
 ss=(read,tcheck) scf=(maxcycle=1)
 ----------------------------------------------------------------------
 -----
 title
 -----
 Structure from the checkpoint file:  "Grambow2020_wb97xd3_007644_forward_mol1.chk"
 Charge =  0 Multiplicity = 1

                         Standard orientation:
 ---------------------------------------------------------------------
 Center     Atomic      Atomic             Coordinates (Angstroms)
 Number     Number       Type             X           Y           Z
 ---------------------------------------------------------------------
      1          6           0        1.774625   -0.844644    0.254167
      2          6           0        0.771839   -0.043692   -0.344306
      3          6           0        0.519700    1.349247   -0.696494
      4          6           0       -0.025615    1.028764    0.679397
      5          6           0       -1.114033    0.132856    0.814266
      6          7           0       -1.718531   -0.405193   -0.343102
      7          6           0       -0.431455   -1.057011   -0.347702
      8          1           0        1.981550   -1.772392   -0.277190
      9          1           0        0.435323   -1.467394    0.694249
     10          1           0        2.639316   -0.403585    0.743202
     11          1           0        1.365139    2.025559   -0.690637
     12          1           0       -0.192813    1.567438   -1.487980
     13          1           0        0.506989    1.376759    1.550978
     14          1           0       -1.477322   -0.203013    1.775864
     15          1           0       -1.850072    0.270840   -1.091575
     16          1           0       -0.348762   -1.950977   -0.971171
 ---------------------------------------------------------------------

 SCF Done:  E(RHF) =  -286.922114562     A.U. after    2 cycles

 The electronic state is 1-A.
 Alpha  occ. eigenvalues --  -15.51513 -11.32441 -11.28008 -11.27230 -11.26619
 Alpha  occ. eigenvalues --  -11.25042 -11.20343  -1.30106  -1.15461  -1.01091
 Alpha  occ. eigenvalues --   -0.95660  -0.86959  -0.80428  -0.75888  -0.72414
 Alpha  occ. eigenvalues --   -0.69624  -0.64260  -0.60857  -0.57552  -0.55734
 Alpha  occ. eigenvalues --   -0.54756  -0.52689  -0.48538  -0.42886  -0.33476
 Alpha  occ. eigenvalues --   -0.28634
 Alpha virt. eigenvalues --    0.03316   0.03789   0.03986   0.04540   0.05660
 Alpha virt. eigenvalues --    0.05871   0.06827   0.06905   0.07666   0.09229
 Alpha virt. eigenvalues --    0.10755   0.12580   0.13433   0.13498   0.13868

 Mulliken charges:
               1
     1  C   -0.250499
     2  C   -0.046298
     3  C    0.147435
     4  C    0.599763
     5  C   -0.727569
     6  N    0.567491
     7  C   -0.847494
     8  H    0.008395
     9  H    0.886516
    10  H   -0.144526
    11  H   -0.066606
    12  H   -0.167024
    13  H   -0.164761
    14  H   -0.136607
    15  H    0.477077
    16  H   -0.135294
 Sum of Mulliken charges =  -0.00000

 Dipole moment (field-independent basis, Debye):
    X=              0.0424    Y=              2.0643    Z=             -0.3336  Tot=              2.0915

 Test job not archived.
 1\1\GINC-SE045\SP\RHF\Aug-CC-pVDZ\C6H9N1\OHZDE\09-Apr-2025\0\\#t hf au
 g-cc-pvdz iop(5/13=1,5/36=2,99/5=2) pseudo=read geom=check guess=(read
 ,tcheck) scf=(maxcycle=1)\\title\\0,1\C,0,1.37115286,-0.68075641,0.969
 18357\C,0,0.58765584,-0.31941256,-0.15368667\C,0,0.64715751,0.55377258
 ,-1.32069061\C,0,-0.02283898,1.24945911,-0.15438101\C,0,-1.27830288,0.
 7899423,0.31268327\N,0,-1.92035424,-0.2759257,-0.35523365\C,0,-0.79716
 598,-0.9413791,0.25882877\H,0,1.40913953,-1.7519789,1.16131491\H,0,-0.
 08877551,-0.70642034,1.46230576\H,0,2.28188483,-0.14516974,1.22431769\

 Normal termination of Gaussian 16 at Wed Apr  9 18:30:43 2025.
