 Gaussian 16, Revision C.01,

 ----------------------------------------------------------------------
 #t hf aug-cc-pvdz symm=none int=(grid=ultrafine) guess=(read,tcheck) s
 table=(opt,rrhf)
 ----------------------------------------------------------------------
 -----
 title
 -----
 Symbolic Z-matrix:
 Charge =  0 Multiplicity = 1

 SCF Done:  E(RHF) =  -304.685648815     A.U. after   14 cycles
 Normal termination of Gaussian 16 at Wed Apr  9 03:15:49 2025.
 Gaussian 16:  ES64L-G16RevC.01  3-Jul-2019

 ----------------------------------------------------------------------
 #t hf aug-cc-pvdz iop(5/13=1,5/36=2,99/5=2) pseudo=read geom=check gue
 ss=(read,tcheck) scf=(maxcycle=1)
 ----------------------------------------------------------------------
 -----
 title
 -----
 Structure from the checkpoint file:  "Grambow2020_b97d3_006982_reverse_mol2.chk"
 Charge =  0 Multiplicity = 1

                         Standard orientation:
 ---------------------------------------------------------------------
 Center     Atomic      Atomic             Coordinates (Angstroms)
 Number     Number       Type             X           Y           Z
 ---------------------------------------------------------------------
      1          6           0       -1.667852    0.764918    0.798018
      2          6           0       -1.833136   -0.250578   -0.304779
      3          6           0        1.964148   -0.864529    0.607720
      4          6           0        1.657970    0.216113   -0.086741
      5          8           0        1.384284    1.192941   -0.689936
      6          8           0       -1.037975   -1.136207   -0.569845
      7          1           0       -0.827556    0.504946    1.450655
      8          1           0       -2.598951    0.849788    1.378296
      9          1           0       -1.481338    1.751798    0.344635
     10          1           0       -2.767624   -0.132710   -0.907964
     11          1           0        2.923603   -0.936746    1.112287
     12          1           0        1.254616   -1.686492    0.615032
 ---------------------------------------------------------------------

 SCF Done:  E(RHF) =  -304.989587163     A.U. after    2 cycles

 The electronic state is 1-A.
 Alpha  occ. eigenvalues --  -20.60726 -20.55498 -11.38998 -11.35623 -11.25672
 Alpha  occ. eigenvalues --  -11.24337  -1.53486  -1.47698  -1.04601  -1.02802
 Alpha  occ. eigenvalues --   -0.81159  -0.75337  -0.68318  -0.67360  -0.65061
 Alpha  occ. eigenvalues --   -0.63066  -0.62446  -0.60818  -0.56620  -0.54743
 Alpha  occ. eigenvalues --   -0.50676  -0.42812  -0.35958
 Alpha virt. eigenvalues --    0.03303   0.03934   0.04667   0.05287   0.06413
 Alpha virt. eigenvalues --    0.07499   0.08383   0.09915   0.11623   0.11665
 Alpha virt. eigenvalues --    0.12605   0.13984   0.14160   0.14374   0.14958

 Mulliken charges:
               1
     1  C   -0.615717
     2  C    0.991917
     3  C    0.193458
     4  C    0.636624
     5  O   -0.906111
     6  O   -1.124209
     7  H    0.152080
     8  H    0.164902
     9  H    0.296954
    10  H    0.130988
    11  H    0.018309
    12  H    0.060805
 Sum of Mulliken charges =  -0.00000

 Dipole moment (field-independent basis, Debye):
    X=             -1.5532    Y=              0.8597    Z=              1.7804  Tot=              2.5142

 Test job not archived.
 1\1\GINC-SE367\SP\RHF\Aug-CC-pVDZ\C4H6O2\OHZDE\09-Apr-2025\0\\#t hf au
 g-cc-pvdz iop(5/13=1,5/36=2,99/5=2) pseudo=read geom=check guess=(read
 ,tcheck) scf=(maxcycle=1)\\title\\0,1\C,0,-1.57274245,-0.2665916,-0.49
 414322\C,0,-0.86316912,-1.48542859,0.04032093\C,0,1.81755607,1.2864179
 7,0.91183269\C,0,1.70747284,0.9010741,-0.34642025\O,0,1.59687622,0.572
 91269,-1.47470107\O,0,0.1238582,-1.46682401,0.75607997\H,0,-1.19988703
 ,0.64687231,-0.01856008\H,0,-2.65891353,-0.36538839,-0.34804803\H,0,-1
 .39950551,-0.20485506,-1.58063025\H,0,-1.30619869,-2.45985783,-0.28403

 Normal termination of Gaussian 16 at Wed Apr  9 03:15:53 2025.
