 Gaussian 16, Revision C.01,

 ----------------------------------------------------------------------
 #t hf aug-cc-pvdz symm=none int=(grid=ultrafine) guess=(read,tcheck) s
 table=(opt,rrhf)
 ----------------------------------------------------------------------
 -----
 title
 -----
 Symbolic Z-matrix:
 Charge =  0 Multiplicity = 1

 SCF Done:  E(RHF) =  -307.736824254     A.U. after   17 cycles

 1\1\GINC-SE424\Stability\RHF\Aug-CC-pVDZ\C6H10O1\OHZDE\09-Apr-2025\0\\
 #t hf aug-cc-pvdz symm=none int=(grid=ultrafine) guess=(read,tcheck) s
 table=(opt,rrhf)\\title\\0,1\C,0,1.52691954,-0.53371165,-0.70192557\C,
 0,0.66964455,-0.09207557,0.49929573\C,0,0.15701629,1.34596631,0.307560
 35\C,0,-0.97396687,1.19726024,-0.69286291\C,0,-1.57221245,-0.14692406,
 -0.28151932\C,0,-0.60590861,-0.87663072,0.42302177\O,0,-0.66932003,-2.
 21220747,0.56503939\H,0,0.96919123,-0.39264423,-1.63086183\H,0,2.43156
 886,0.07441408,-0.75733927\H,0,1.82110557,-1.58217448,-0.62187833\H,0,

 Normal termination of Gaussian 16 at Wed Apr  9 03:45:49 2025.
 Gaussian 16:  ES64L-G16RevC.01  3-Jul-2019

 ----------------------------------------------------------------------
 #t hf aug-cc-pvdz iop(5/13=1,5/36=2,99/5=2) pseudo=read geom=check gue
 ss=(read,tcheck) scf=(maxcycle=1)
 ----------------------------------------------------------------------
 -----
 title
 -----
 Structure from the checkpoint file:  "Grambow2020_wb97xd3_007813_reverse_mol1.chk"
 Charge =  0 Multiplicity = 1

                         Standard orientation:
 ---------------------------------------------------------------------
 Center     Atomic      Atomic             Coordinates (Angstroms)
 Number     Number       Type             X           Y           Z
 ---------------------------------------------------------------------
      1          6           0        0.256617    1.723986   -0.679733
      2          6           0        0.008672    0.805797    0.532022
      3          6           0       -1.461063    0.353520    0.585291
      4          6           0       -1.550709   -0.714811   -0.488356
      5          6           0       -0.181105   -1.381628   -0.372279
      6          6           0        0.708565   -0.486957    0.236526
      7          8           0        2.043169   -0.602685    0.120796
      8          1           0       -0.078995    1.232203   -1.595920
      9          1           0       -0.310864    2.649575   -0.567801
     10          1           0        1.313588    1.978232   -0.781707
     11          1           0        0.335886    1.298690    1.451802
     12          1           0       -2.152430    1.185425    0.437239
     13          1           0       -1.654800   -0.050999    1.597402
     14          1           0       -2.414816   -1.376259   -0.459266
     15          1           0        0.190393   -2.159610   -1.029808
     16          1           0       -0.730753   -1.842982    0.496909
     17          1           0        2.471571    0.107761    0.603954
 ---------------------------------------------------------------------

 SCF Done:  E(RHF) =  -308.062341549     A.U. after    2 cycles

 The electronic state is 1-A.
 Alpha  occ. eigenvalues --  -20.61586 -11.34244 -11.25629 -11.24983 -11.23337
 Alpha  occ. eigenvalues --  -11.22525 -11.19325  -1.53114  -1.16381  -1.03176
 Alpha  occ. eigenvalues --   -0.95753  -0.90146  -0.81219  -0.75898  -0.72233
 Alpha  occ. eigenvalues --   -0.66988  -0.64820  -0.60865  -0.58152  -0.56545
 Alpha  occ. eigenvalues --   -0.54801  -0.53730  -0.51092  -0.49433  -0.47530
 Alpha  occ. eigenvalues --   -0.47040  -0.21453
 Alpha virt. eigenvalues --    0.02384   0.03668   0.03991   0.04353   0.05762
 Alpha virt. eigenvalues --    0.06025   0.06561   0.06763   0.07251   0.08157
 Alpha virt. eigenvalues --    0.09606   0.11641   0.12003   0.13017   0.13716

 Mulliken charges:
               1
     1  C   -0.221198
     2  C   -0.891791
     3  C   -0.088854
     4  C   -0.111666
     5  C   -0.674730
     6  C    1.821205
     7  O   -1.563965
     8  H    0.288273
     9  H    0.139831
    10  H    0.088895
    11  H    0.087931
    12  H    0.068650
    13  H    0.112020
    14  H   -0.092165
    15  H    0.016728
    16  H    0.693795
    17  H    0.327041
 Sum of Mulliken charges =  -0.00000

 Dipole moment (field-independent basis, Debye):
    X=              2.5416    Y=              0.9647    Z=              2.3002  Tot=              3.5611

 Test job not archived.
 1\1\GINC-SE424\SP\RHF\Aug-CC-pVDZ\C6H10O1\OHZDE\09-Apr-2025\0\\#t hf a
 ug-cc-pvdz iop(5/13=1,5/36=2,99/5=2) pseudo=read geom=check guess=(rea
 d,tcheck) scf=(maxcycle=1)\\title\\0,1\C,0,1.52691954,-0.53371165,-0.7
 0192557\C,0,0.66964455,-0.09207557,0.49929573\C,0,0.15701629,1.3459663
 1,0.30756035\C,0,-0.97396687,1.19726024,-0.69286291\C,0,-1.57221245,-0
 .14692406,-0.28151932\C,0,-0.60590861,-0.87663072,0.42302177\O,0,-0.66
 932003,-2.21220747,0.56503939\H,0,0.96919123,-0.39264423,-1.63086183\H
 ,0,2.43156886,0.07441408,-0.75733927\H,0,1.82110557,-1.58217448,-0.621

 Normal termination of Gaussian 16 at Wed Apr  9 03:45:54 2025.
