 Gaussian 16, Revision C.01,

 ----------------------------------------------------------------------
 #t hf aug-cc-pvdz symm=none int=(grid=ultrafine) guess=(read,tcheck) s
 table=(opt,rrhf)
 ----------------------------------------------------------------------
 -----
 title
 -----
 Symbolic Z-matrix:
 Charge =  0 Multiplicity = 1

 SCF Done:  E(RHF) =  -345.860011814     A.U. after   15 cycles

 1\1\GINC-SE069\Stability\RHF\Aug-CC-pVDZ\C5H12O2\OHZDE\09-Apr-2025\0\\
 #t hf aug-cc-pvdz symm=none int=(grid=ultrafine) guess=(read,tcheck) s
 table=(opt,rrhf)\\title\\0,1\C,0,2.87175277,0.83018217,-0.39713499\C,0
 ,1.64588245,0.04308982,-0.05303419\O,0,1.45221893,-1.03854526,-0.86373
 208\C,0,0.33995227,-1.68597509,-0.71257814\C,0,-1.02433783,0.3130492,-
 0.51117354\O,0,-1.60325075,-0.16347137,0.67857747\C,0,-2.90739339,0.30
 845009,0.8889179\H,0,2.90167506,1.05623376,-1.46422631\H,0,3.80063001,
 0.31648913,-0.12867484\H,0,2.85123241,1.77662686,0.14561913\H,0,0.3013

 Normal termination of Gaussian 16 at Wed Apr  9 04:05:07 2025.
 Gaussian 16:  ES64L-G16RevC.01  3-Jul-2019

 ----------------------------------------------------------------------
 #t hf aug-cc-pvdz iop(5/13=1,5/36=2,99/5=2) pseudo=read geom=check gue
 ss=(read,tcheck) scf=(maxcycle=1)
 ----------------------------------------------------------------------
 -----
 title
 -----
 Structure from the checkpoint file:  "Grambow2020_wb97xd3_009170_forward_mol1.chk"
 Charge =  0 Multiplicity = 1

                         Standard orientation:
 ---------------------------------------------------------------------
 Center     Atomic      Atomic             Coordinates (Angstroms)
 Number     Number       Type             X           Y           Z
 ---------------------------------------------------------------------
      1          6           0        2.778632   -1.115630    0.021418
      2          6           0        1.525352   -0.372447   -0.321580
      3          8           0        1.547077    0.935154    0.071332
      4          6           0        0.445116    1.602282   -0.069286
      5          6           0       -0.975544   -0.193594    0.739729
      6          8           0       -1.799260   -0.096376   -0.395947
      7          6           0       -3.127678   -0.475235   -0.151996
      8          1           0        3.045867   -0.964543    1.068527
      9          1           0        3.633547   -0.823129   -0.596908
     10          1           0        2.612710   -2.183256   -0.131568
     11          1           0        0.271207   -0.500745    0.346731
     12          1           0        1.154770   -0.499921   -1.341771
     13          1           0        0.420599    2.547759    0.456914
     14          1           0       -0.188201    1.427699   -0.931782
     15          1           0       -1.089588   -1.191023    1.196326
     16          1           0       -1.253567    0.532007    1.509752
     17          1           0       -3.589514    0.153919    0.620442
     18          1           0       -3.191763   -1.522316    0.173142
     19          1           0       -3.683880   -0.358932   -1.082589
 ---------------------------------------------------------------------

 SCF Done:  E(RHF) =  -346.226717544     A.U. after    2 cycles

 The electronic state is 1-A.
 Alpha  occ. eigenvalues --  -20.62422 -20.53388 -11.33070 -11.27188 -11.25921
 Alpha  occ. eigenvalues --  -11.25834 -11.22279  -1.56106  -1.45306  -1.03593
 Alpha  occ. eigenvalues --   -0.95723  -0.92044  -0.86442  -0.82391  -0.71391
 Alpha  occ. eigenvalues --   -0.68405  -0.67804  -0.65013  -0.63310  -0.61235
 Alpha  occ. eigenvalues --   -0.56656  -0.55338  -0.54535  -0.53761  -0.50650
 Alpha  occ. eigenvalues --   -0.47782  -0.42609  -0.40596  -0.27044
 Alpha virt. eigenvalues --    0.03585   0.03849   0.04030   0.04169   0.05733
 Alpha virt. eigenvalues --    0.06132   0.06492   0.06868   0.07062   0.08049
 Alpha virt. eigenvalues --    0.09327   0.09502   0.11447   0.12010   0.12915

 Mulliken charges:
               1
     1  C   -0.718157
     2  C    0.340324
     3  O   -1.135337
     4  C    0.470996
     5  C    0.172042
     6  O   -1.250759
     7  C    0.206886
     8  H    0.167389
     9  H    0.169375
    10  H    0.188577
    11  H    0.849293
    12  H    0.001762
    13  H   -0.079635
    14  H    0.285517
    15  H   -0.007000
    16  H    0.079512
    17  H    0.163568
    18  H    0.128291
    19  H   -0.032644
 Sum of Mulliken charges =  -0.00000

 Dipole moment (field-independent basis, Debye):
    X=             -0.3024    Y=              0.7210    Z=              0.0911  Tot=              0.7871

 Test job not archived.
 1\1\GINC-SE069\SP\RHF\Aug-CC-pVDZ\C5H12O2\OHZDE\09-Apr-2025\0\\#t hf a
 ug-cc-pvdz iop(5/13=1,5/36=2,99/5=2) pseudo=read geom=check guess=(rea
 d,tcheck) scf=(maxcycle=1)\\title\\0,1\C,0,2.87175277,0.83018217,-0.39
 713499\C,0,1.64588245,0.04308982,-0.05303419\O,0,1.45221893,-1.0385452
 6,-0.86373208\C,0,0.33995227,-1.68597509,-0.71257814\C,0,-1.02433783,0
 .3130492,-0.51117354\O,0,-1.60325075,-0.16347137,0.67857747\C,0,-2.907
 39339,0.30845009,0.8889179\H,0,2.90167506,1.05623376,-1.46422631\H,0,3
 .80063001,0.31648913,-0.12867484\H,0,2.85123241,1.77662686,0.14561913\

 Normal termination of Gaussian 16 at Wed Apr  9 04:05:14 2025.
