 Gaussian 16, Revision C.01,

 ----------------------------------------------------------------------
 #t hf aug-cc-pvdz symm=none int=(grid=ultrafine) guess=(read,tcheck) s
 table=(opt,rrhf)
 ----------------------------------------------------------------------
 -----
 title
 -----
 Symbolic Z-matrix:
 Charge =  0 Multiplicity = 1

 SCF Done:  E(RHF) =  -305.679450452     A.U. after   15 cycles
 Normal termination of Gaussian 16 at Wed Apr  9 16:01:59 2025.
 Gaussian 16:  ES64L-G16RevC.01  3-Jul-2019

 ----------------------------------------------------------------------
 #t hf aug-cc-pvdz iop(5/13=1,5/36=2,99/5=2) pseudo=read geom=check gue
 ss=(read,tcheck) scf=(maxcycle=1)
 ----------------------------------------------------------------------
 -----
 title
 -----
 Structure from the checkpoint file:  "Grambow2020_b97d3_007096_forward_mol1.chk"
 Charge =  0 Multiplicity = 1

                         Standard orientation:
 ---------------------------------------------------------------------
 Center     Atomic      Atomic             Coordinates (Angstroms)
 Number     Number       Type             X           Y           Z
 ---------------------------------------------------------------------
      1          6           0        0.723611    1.445462   -0.256035
      2          6           0        0.788117   -0.020134    0.115562
      3          6           0        2.063294   -0.669075    0.044460
      4          8           0       -0.262144   -0.883841   -0.289863
      5          6           0       -1.585855   -0.551031   -0.142714
      6          8           0       -2.059528    0.473888    0.281577
      7          1           0        1.549907    1.973722    0.234101
      8          1           0        0.866161    1.506031   -1.344299
      9          1           0       -0.226694    1.896684    0.029229
     10          1           0        0.230280    0.166205    1.632422
     11          1           0        2.127392   -1.743957    0.181295
     12          1           0        1.293644   -0.268415    1.267414
     13          1           0        2.959939   -0.059592    0.002113
     14          1           0       -2.162250   -1.422381   -0.503630
 ---------------------------------------------------------------------

 SCF Done:  E(RHF) =  -305.993362439     A.U. after    2 cycles

 The electronic state is 1-A.
 Alpha  occ. eigenvalues --  -20.62470 -20.56671 -11.41852 -11.40258 -11.25489
 Alpha  occ. eigenvalues --  -11.22763  -1.56261  -1.48173  -1.12571  -0.97469
 Alpha  occ. eigenvalues --   -0.91001  -0.77738  -0.74970  -0.71439  -0.68442
 Alpha  occ. eigenvalues --   -0.63713  -0.61409  -0.59660  -0.55591  -0.54950
 Alpha  occ. eigenvalues --   -0.53156  -0.48915  -0.46587  -0.28914
 Alpha virt. eigenvalues --    0.03566   0.03844   0.03913   0.04490   0.06083
 Alpha virt. eigenvalues --    0.07014   0.07874   0.08880   0.09632   0.11165
 Alpha virt. eigenvalues --    0.12426   0.12816   0.13183   0.15131   0.15579

 Mulliken charges:
               1
     1  C   -0.223015
     2  C    0.142163
     3  C   -0.193774
     4  O   -1.227115
     5  C    1.314185
     6  O   -0.925977
     7  H    0.221129
     8  H    0.279753
     9  H    0.147852
    10  H   -0.008018
    11  H   -0.126810
    12  H    0.615926
    13  H   -0.116806
    14  H    0.100507
 Sum of Mulliken charges =   0.00000

 Dipole moment (field-independent basis, Debye):
    X=              0.8450    Y=             -0.4833    Z=             -0.7455  Tot=              1.2261

 Test job not archived.
 1\1\GINC-SE114\SP\RHF\Aug-CC-pVDZ\C4H8O2\OHZDE\09-Apr-2025\0\\#t hf au
 g-cc-pvdz iop(5/13=1,5/36=2,99/5=2) pseudo=read geom=check guess=(read
 ,tcheck) scf=(maxcycle=1)\\title\\0,1\C,0,-0.19492479,1.37028792,0.033
 83646\C,0,-0.33308411,-0.1355594,0.09345612\C,0,-1.54639015,-0.6714863
 2,0.63468187\O,0,0.79269721,-0.92013035,0.45466728\C,0,2.03777798,-0.7
 114094,-0.08462432\O,0,2.38413947,0.13895767,-0.86677342\H,0,-1.120660
 69,1.79703265,-0.36984445\H,0,-0.06977326,1.72114485,1.06802394\H,0,0.
 65323899,1.67772713,-0.57784644\H,0,-0.16182022,-0.38362926,-1.5052613

 Normal termination of Gaussian 16 at Wed Apr  9 16:02:03 2025.
