 Gaussian 16, Revision C.01,

 ----------------------------------------------------------------------
 #t hf aug-cc-pvdz symm=none int=(grid=ultrafine) guess=(read,tcheck) s
 table=(opt,rrhf)
 ----------------------------------------------------------------------
 -----
 title
 -----
 Symbolic Z-matrix:
 Charge =  0 Multiplicity = 1

 SCF Done:  E(RHF) =  -323.780892539     A.U. after   15 cycles
 Normal termination of Gaussian 16 at Wed Apr  9 18:05:16 2025.
 Gaussian 16:  ES64L-G16RevC.01  3-Jul-2019

 ----------------------------------------------------------------------
 #t hf aug-cc-pvdz iop(5/13=1,5/36=2,99/5=2) pseudo=read geom=check gue
 ss=(read,tcheck) scf=(maxcycle=1)
 ----------------------------------------------------------------------
 -----
 title
 -----
 Structure from the checkpoint file:  "Grambow2020_wb97xd3_006969_reverse_mol2.chk"
 Charge =  0 Multiplicity = 1

                         Standard orientation:
 ---------------------------------------------------------------------
 Center     Atomic      Atomic             Coordinates (Angstroms)
 Number     Number       Type             X           Y           Z
 ---------------------------------------------------------------------
      1          6           0        2.445393    0.577362    0.739991
      2          6           0        1.716690    0.424065   -0.589215
      3          6           0        1.125409   -0.838107   -1.015609
      4          8           0       -0.543188   -1.234151    0.657086
      5          6           0       -1.684815   -0.865301   -0.083300
      6          6           0       -1.893853    0.590863   -0.082950
      7          7           0       -2.045598    1.726808   -0.040963
      8          1           0        3.109891   -0.268517    0.926867
      9          1           0        3.036106    1.494744    0.773955
     10          1           0        1.723442    0.626503    1.557896
     11          1           0        2.449510    0.380418   -1.436693
     12          1           0        1.095352    1.292269   -0.825009
     13          1           0        1.693254   -1.649158   -0.521739
     14          1           0       -0.608707   -0.886086    1.550143
     15          1           0       -2.589556   -1.348531    0.297652
     16          1           0       -1.497545   -1.189386   -1.106523
 ---------------------------------------------------------------------

 SCF Done:  E(RHF) =  -324.112752729     A.U. after    2 cycles

 The electronic state is 1-A.
 Alpha  occ. eigenvalues --  -20.59887 -15.52480 -11.34988 -11.28822 -11.26226
 Alpha  occ. eigenvalues --  -11.24123 -11.23361  -1.50370  -1.24724  -1.07315
 Alpha  occ. eigenvalues --   -1.02167  -0.92055  -0.78313  -0.76431  -0.71718
 Alpha  occ. eigenvalues --   -0.66597  -0.62439  -0.61795  -0.58494  -0.58124
 Alpha  occ. eigenvalues --   -0.56627  -0.52519  -0.51695  -0.50966  -0.49464
 Alpha  occ. eigenvalues --   -0.48765  -0.35331
 Alpha virt. eigenvalues --    0.02794   0.03679   0.04166   0.04453   0.05759
 Alpha virt. eigenvalues --    0.06019   0.07211   0.07829   0.08331   0.09648
 Alpha virt. eigenvalues --    0.10183   0.11474   0.12146   0.13115   0.14157

 Mulliken charges:
               1
     1  C   -0.351703
     2  C   -0.425218
     3  C   -0.361361
     4  O   -0.961427
     5  C    0.931723
     6  C   -1.413679
     7  N    0.803376
     8  H    0.164336
     9  H    0.139017
    10  H    0.149661
    11  H    0.376957
    12  H    0.186468
    13  H    0.041541
    14  H    0.324510
    15  H    0.119258
    16  H    0.276542
 Sum of Mulliken charges =   0.00000

 Dipole moment (field-independent basis, Debye):
    X=              0.8137    Y=             -2.7385    Z=              2.0491  Tot=              3.5157

 Test job not archived.
 1\1\GINC-SE174\SP\RHF\Aug-CC-pVDZ\C5H9N1O1\OHZDE\09-Apr-2025\0\\#t hf
 aug-cc-pvdz iop(5/13=1,5/36=2,99/5=2) pseudo=read geom=check guess=(re
 ad,tcheck) scf=(maxcycle=1)\\title\\0,1\C,0,2.1428688,-0.15694243,0.47
 70434\C,0,1.13644219,0.94930111,0.1861358\C,0,0.3418743,0.98193256,-1.
 03537966\O,0,-0.96453585,-1.01946759,-0.8720861\C,0,-2.19352838,-0.445
 86297,-0.48726122\C,0,-2.24737279,-0.17918046,0.95845294\N,0,-2.269502
 61,-0.00903914,2.09235072\H,0,2.74164831,-0.38939352,-0.40580543\H,0,2
 .81812016,0.11431592,1.29076348\H,0,1.62024341,-1.06687248,0.77950975\

 Normal termination of Gaussian 16 at Wed Apr  9 18:05:21 2025.
