 Gaussian 16, Revision C.01,

 ----------------------------------------------------------------------
 #t hf aug-cc-pvdz symm=none int=(grid=ultrafine) guess=(read,tcheck) s
 table=(opt,rrhf)
 ----------------------------------------------------------------------
 -----
 title
 -----
 Symbolic Z-matrix:
 Charge =  0 Multiplicity = 1

 SCF Done:  E(RHF) =  -339.241633218     A.U. after   17 cycles
 Normal termination of Gaussian 16 at Wed Apr  9 15:50:35 2025.
 Gaussian 16:  ES64L-G16RevC.01  3-Jul-2019

 ----------------------------------------------------------------------
 #t hf aug-cc-pvdz iop(5/13=1,5/36=2,99/5=2) pseudo=read geom=check gue
 ss=(read,tcheck) scf=(maxcycle=1)
 ----------------------------------------------------------------------
 -----
 title
 -----
 Structure from the checkpoint file:  "Grambow2020_b97d3_006811_forward_mol1.chk"
 Charge =  0 Multiplicity = 1

                         Standard orientation:
 ---------------------------------------------------------------------
 Center     Atomic      Atomic             Coordinates (Angstroms)
 Number     Number       Type             X           Y           Z
 ---------------------------------------------------------------------
      1          8           0        2.296926    0.008480    0.121495
      2          6           0        1.199169   -0.341201   -0.047250
      3          6           0       -0.682642    0.731822    0.066076
      4          8           0       -0.682240    1.888404   -0.200029
      5          6           0       -1.273888   -0.518928    0.349799
      6          8           0       -0.898261   -1.559558   -0.328731
      7          1           0        0.416980   -1.318194   -0.358067
      8          1           0       -1.604219   -0.610575    1.404433
 ---------------------------------------------------------------------

 SCF Done:  E(RHF) =  -339.563718591     A.U. after    2 cycles

 The electronic state is 1-A.
 Alpha  occ. eigenvalues --  -20.67227 -20.61984 -20.57731 -11.43285 -11.40325
 Alpha  occ. eigenvalues --  -11.36262  -1.59988  -1.54397  -1.48158  -1.02646
 Alpha  occ. eigenvalues --   -0.87913  -0.78753  -0.74959  -0.71002  -0.68853
 Alpha  occ. eigenvalues --   -0.66315  -0.63878  -0.60276  -0.57687  -0.52347
 Alpha  occ. eigenvalues --   -0.49059  -0.34188
 Alpha virt. eigenvalues --    0.02670   0.03597   0.04839   0.06988   0.07158
 Alpha virt. eigenvalues --    0.08517   0.10437   0.10789   0.11803   0.12069
 Alpha virt. eigenvalues --    0.12600   0.14023   0.14922   0.15614   0.16296

 Mulliken charges:
               1
     1  O   -0.842405
     2  C    0.567838
     3  C    0.560741
     4  O   -0.935531
     5  C    0.994176
     6  O   -1.324378
     7  H    0.812982
     8  H    0.166577
 Sum of Mulliken charges =  -0.00000

 Dipole moment (field-independent basis, Debye):
    X=              0.4275    Y=             -0.6487    Z=              1.2603  Tot=              1.4805

 Test job not archived.
 1\1\GINC-SE009\SP\RHF\Aug-CC-pVDZ\C3H2O3\OHZDE\09-Apr-2025\0\\#t hf au
 g-cc-pvdz iop(5/13=1,5/36=2,99/5=2) pseudo=read geom=check guess=(read
 ,tcheck) scf=(maxcycle=1)\\title\\0,1\O,0,-2.26388917,0.05234139,0.910
 63669\C,0,-1.10664443,0.04933812,0.78180092\C,0,0.14815545,0.49380578,
 -0.93090353\O,0,-0.24914167,1.28235083,-1.72390131\C,0,1.11043388,-0.3
 4633649,-0.32871778\O,0,1.31015024,-0.25640765,0.9505151\H,0,0.0382043
 3,-0.13498247,1.34597314\H,0,1.23578238,-1.31032952,-0.86236222\\Versi
 on=ES64L-G16RevC.01\State=1-A\HF=-339.5637186\RMSD=9.866e-03\Dipole=-0

 Normal termination of Gaussian 16 at Wed Apr  9 15:50:38 2025.
