 Gaussian 16, Revision C.01,

 ----------------------------------------------------------------------
 #t hf aug-cc-pvdz symm=none int=(grid=ultrafine) guess=(read,tcheck) s
 table=(opt,rrhf)
 ----------------------------------------------------------------------
 -----
 title
 -----
 Symbolic Z-matrix:
 Charge =  0 Multiplicity = 1

 SCF Done:  E(RHF) =  -322.770484432     A.U. after   14 cycles
 Normal termination of Gaussian 16 at Wed Apr  9 03:33:21 2025.
 Gaussian 16:  ES64L-G16RevC.01  3-Jul-2019

 ----------------------------------------------------------------------
 #t hf aug-cc-pvdz iop(5/13=1,5/36=2,99/5=2) pseudo=read geom=check gue
 ss=(read,tcheck) scf=(maxcycle=1)
 ----------------------------------------------------------------------
 -----
 title
 -----
 Structure from the checkpoint file:  "Grambow2020_wb97xd3_007008_forward_mol2.chk"
 Charge =  0 Multiplicity = 1

                         Standard orientation:
 ---------------------------------------------------------------------
 Center     Atomic      Atomic             Coordinates (Angstroms)
 Number     Number       Type             X           Y           Z
 ---------------------------------------------------------------------
      1          6           0       -1.869793   -0.749473   -0.397992
      2          6           0       -0.623343   -0.482099    0.441513
      3          6           0        0.526922   -1.427718    0.227212
      4          6           0        1.595940   -0.728693   -0.141621
      5          7           0        1.307091    0.639829   -0.203619
      6          6           0       -0.009523    0.881335    0.108819
      7          8           0       -0.554058    1.957820    0.105161
      8          1           0       -2.335409   -1.692560   -0.108998
      9          1           0       -1.616151   -0.805599   -1.458124
     10          1           0       -2.592060    0.055436   -0.259076
     11          1           0       -0.907283   -0.447190    1.499496
     12          1           0        0.484837   -2.497803    0.356503
     13          1           0        2.591440   -1.077059   -0.373273
     14          1           0        1.936237    1.363308   -0.500072
 ---------------------------------------------------------------------

 SCF Done:  E(RHF) =  -323.102808209     A.U. after    2 cycles

 The electronic state is 1-A.
 Alpha  occ. eigenvalues --  -20.51422 -15.53872 -11.35671 -11.29239 -11.25596
 Alpha  occ. eigenvalues --  -11.23734 -11.23539  -1.46506  -1.28544  -1.09308
 Alpha  occ. eigenvalues --   -1.01047  -0.92567  -0.82223  -0.81120  -0.72378
 Alpha  occ. eigenvalues --   -0.66655  -0.63785  -0.62757  -0.60584  -0.59535
 Alpha  occ. eigenvalues --   -0.54533  -0.53133  -0.50850  -0.48531  -0.41757
 Alpha  occ. eigenvalues --   -0.34436
 Alpha virt. eigenvalues --    0.02917   0.03574   0.04349   0.04718   0.05613
 Alpha virt. eigenvalues --    0.06401   0.07582   0.09586   0.10782   0.11623
 Alpha virt. eigenvalues --    0.12245   0.12891   0.13574   0.14172   0.14882

 Mulliken charges:
               1
     1  C   -0.061861
     2  C   -1.359132
     3  C    1.080268
     4  C   -0.458982
     5  N    0.790065
     6  C    0.822640
     7  O   -1.338292
     8  H    0.143285
     9  H    0.241399
    10  H    0.168899
    11  H    0.272662
    12  H   -0.132050
    13  H   -0.178442
    14  H    0.009541
 Sum of Mulliken charges =  -0.00000

 Dipole moment (field-independent basis, Debye):
    X=              1.9884    Y=             -2.8780    Z=             -0.2781  Tot=              3.5092

 Test job not archived.
 1\1\GINC-SE335\SP\RHF\Aug-CC-pVDZ\C5H7N1O1\OHZDE\09-Apr-2025\0\\#t hf
 aug-cc-pvdz iop(5/13=1,5/36=2,99/5=2) pseudo=read geom=check guess=(re
 ad,tcheck) scf=(maxcycle=1)\\title\\0,1\C,0,-1.77700081,0.13781305,0.2
 5251949\C,0,-0.44127808,0.24526269,-0.47836744\C,0,0.5833202,1.1452224
 6,0.15684993\C,0,1.68182581,0.43883361,0.40539247\N,0,1.52989908,-0.89
 118358,-0.00461023\C,0,0.27714033,-1.10672197,-0.52763271\O,0,-0.15287
 903,-2.15986475,-0.92928625\H,0,-2.30945618,1.08941167,0.22645056\H,0,
 -1.62391285,-0.13834323,1.2973473\H,0,-2.39842284,-0.62489134,-0.21754

 Normal termination of Gaussian 16 at Wed Apr  9 03:33:25 2025.
