 Gaussian 16, Revision C.01,

 ----------------------------------------------------------------------
 #t hf aug-cc-pvdz symm=none int=(grid=ultrafine) guess=(read,tcheck) s
 table=(opt,rrhf)
 ----------------------------------------------------------------------
 -----
 title
 -----
 Symbolic Z-matrix:
 Charge =  0 Multiplicity = 1

 SCF Done:  E(RHF) =  -358.313401115     A.U. after   16 cycles
 Normal termination of Gaussian 16 at Wed Apr  9 17:39:33 2025.
 Gaussian 16:  ES64L-G16RevC.01  3-Jul-2019

 ----------------------------------------------------------------------
 #t hf aug-cc-pvdz iop(5/13=1,5/36=2,99/5=2) pseudo=read geom=check gue
 ss=(read,tcheck) scf=(maxcycle=1)
 ----------------------------------------------------------------------
 -----
 title
 -----
 Structure from the checkpoint file:  "Grambow2020_wb97xd3_006759_forward_mol1.chk"
 Charge =  0 Multiplicity = 1

                         Standard orientation:
 ---------------------------------------------------------------------
 Center     Atomic      Atomic             Coordinates (Angstroms)
 Number     Number       Type             X           Y           Z
 ---------------------------------------------------------------------
      1          8           0        2.438634   -0.812063   -0.187897
      2          6           0        1.428083   -0.312746    0.002035
      3          6           0        0.347241    0.634735   -0.040208
      4          8           0        0.588881    1.831551    0.124526
      5          7           0       -0.820891   -0.005382   -0.153549
      6          6           0       -2.255378    0.132027   -0.052651
      7          6           0       -1.488541   -1.152950    0.004394
      8          1           0        0.468839   -1.335180    1.494390
      9          1           0       -2.738431    0.485384   -0.959589
     10          1           0       -2.651607    0.527805    0.876423
     11          1           0       -0.277203   -1.592139    1.343404
     12          1           0       -1.463904   -2.010498   -0.654237
 ---------------------------------------------------------------------

 SCF Done:  E(RHF) =  -358.668811565     A.U. after    2 cycles

 The electronic state is 1-A.
 Alpha  occ. eigenvalues --  -20.69246 -20.50866 -15.60895 -11.46581 -11.40316
 Alpha  occ. eigenvalues --  -11.31989 -11.29966  -1.63384  -1.46206  -1.37087
 Alpha  occ. eigenvalues --   -1.12552  -0.95089  -0.90127  -0.80632  -0.77021
 Alpha  occ. eigenvalues --   -0.74478  -0.68932  -0.68599  -0.65144  -0.60301
 Alpha  occ. eigenvalues --   -0.59429  -0.57081  -0.53430  -0.46289  -0.44365
 Alpha  occ. eigenvalues --   -0.27826
 Alpha virt. eigenvalues --    0.00103   0.03212   0.04163   0.04939   0.05934
 Alpha virt. eigenvalues --    0.06468   0.07861   0.08395   0.09008   0.10009
 Alpha virt. eigenvalues --    0.10682   0.12321   0.12995   0.13835   0.14329

 Mulliken charges:
               1
     1  O   -0.800543
     2  C    0.679920
     3  C    0.942228
     4  O   -1.248195
     5  N    0.767400
     6  C    0.117331
     7  C   -0.428539
     8  H   -0.038064
     9  H   -0.048117
    10  H   -0.007128
    11  H    0.236059
    12  H   -0.172352
 Sum of Mulliken charges =  -0.00000

 Dipole moment (field-independent basis, Debye):
    X=             -1.4639    Y=             -2.9564    Z=             -1.1417  Tot=              3.4910

 Test job not archived.
 1\1\GINC-SE112\SP\RHF\Aug-CC-pVDZ\C4H5N1O2\OHZDE\09-Apr-2025\0\\#t hf
 aug-cc-pvdz iop(5/13=1,5/36=2,99/5=2) pseudo=read geom=check guess=(re
 ad,tcheck) scf=(maxcycle=1)\\title\\0,1\O,0,2.51163827,0.97588141,1.24
 736067\C,0,1.73092126,0.37922516,0.66333382\C,0,0.92850396,-0.71497912
 ,0.18734246\O,0,1.47715886,-1.77341117,-0.12345497\N,0,-0.34480177,-0.
 32888031,0.0579217\C,0,-1.63035031,-0.67403206,-0.50337026\C,0,-1.1970
 3601,0.69305,-0.07234448\H,0,0.98222888,1.57073081,-0.82408594\H,0,-2.
 23660231,-1.32090525,0.1249242\H,0,-1.66721927,-0.88238376,-1.56734719

 Normal termination of Gaussian 16 at Wed Apr  9 17:39:37 2025.
