 Gaussian 16, Revision C.01,

 ----------------------------------------------------------------------
 #t hf aug-cc-pvdz symm=none int=(grid=ultrafine) guess=(read,tcheck) s
 table=(opt,rrhf)
 ----------------------------------------------------------------------
 -----
 title
 -----
 Symbolic Z-matrix:
 Charge =  0 Multiplicity = 1

 SCF Done:  E(RHF) =  -323.758606395     A.U. after   15 cycles
 Normal termination of Gaussian 16 at Wed Apr  9 18:24:52 2025.
 Gaussian 16:  ES64L-G16RevC.01  3-Jul-2019

 ----------------------------------------------------------------------
 #t hf aug-cc-pvdz iop(5/13=1,5/36=2,99/5=2) pseudo=read geom=check gue
 ss=(read,tcheck) scf=(maxcycle=1)
 ----------------------------------------------------------------------
 -----
 title
 -----
 Structure from the checkpoint file:  "Grambow2020_wb97xd3_007534_forward_mol1.chk"
 Charge =  0 Multiplicity = 1

                         Standard orientation:
 ---------------------------------------------------------------------
 Center     Atomic      Atomic             Coordinates (Angstroms)
 Number     Number       Type             X           Y           Z
 ---------------------------------------------------------------------
      1          6           0       -3.055719   -0.277873    0.426113
      2          8           0       -2.047113   -0.457629   -0.574727
      3          6           0       -0.851204   -0.058402   -0.274397
      4          6           0        1.782555   -0.239312    0.617394
      5          6           0        2.676363   -1.123691   -0.209350
      6          6           0        1.364399    0.979543    0.169558
      7          7           0        0.719340    1.864741   -0.264391
      8          1           0       -3.975655   -0.680915    0.013172
      9          1           0       -3.172030    0.784750    0.640969
     10          1           0       -2.779434   -0.821871    1.330381
     11          1           0       -0.653188    0.306181    0.716400
     12          1           0       -0.119266   -0.209427   -1.042364
     13          1           0        1.806228   -0.369234    1.694509
     14          1           0        3.738143   -0.934144   -0.018329
     15          1           0        2.491065   -2.175828    0.015174
     16          1           0        2.507290   -0.973255   -1.277263
 ---------------------------------------------------------------------

 SCF Done:  E(RHF) =  -324.091341164     A.U. after    2 cycles

 The electronic state is 1-A.
 Alpha  occ. eigenvalues --  -20.65932 -15.46665 -11.40163 -11.34244 -11.24254
 Alpha  occ. eigenvalues --  -11.22209 -11.21429  -1.59298  -1.19137  -1.04978
 Alpha  occ. eigenvalues --   -1.02333  -0.92074  -0.87443  -0.76646  -0.74796
 Alpha  occ. eigenvalues --   -0.71006  -0.66120  -0.62378  -0.58314  -0.56979
 Alpha  occ. eigenvalues --   -0.56390  -0.55836  -0.54835  -0.51564  -0.47587
 Alpha  occ. eigenvalues --   -0.44369  -0.27416
 Alpha virt. eigenvalues --    0.02189   0.03319   0.03899   0.04537   0.05552
 Alpha virt. eigenvalues --    0.05641   0.05810   0.06430   0.08040   0.08701
 Alpha virt. eigenvalues --    0.10673   0.11338   0.12120   0.12398   0.13619

 Mulliken charges:
               1
     1  C    0.128880
     2  O   -1.206230
     3  C    0.842918
     4  C    0.518670
     5  C   -0.449202
     6  C   -1.932908
     7  N    0.937258
     8  H    0.008452
     9  H    0.194031
    10  H    0.178299
    11  H    0.344025
    12  H    0.184007
    13  H   -0.180694
    14  H    0.177464
    15  H    0.168204
    16  H    0.086824
 Sum of Mulliken charges =   0.00000

 Dipole moment (field-independent basis, Debye):
    X=             -5.1975    Y=             -4.3000    Z=              1.4323  Tot=              6.8960

 Test job not archived.
 1\1\GINC-SE014\SP\RHF\Aug-CC-pVDZ\C5H9N1O1\OHZDE\09-Apr-2025\0\\#t hf
 aug-cc-pvdz iop(5/13=1,5/36=2,99/5=2) pseudo=read geom=check guess=(re
 ad,tcheck) scf=(maxcycle=1)\\title\\0,1\C,0,2.99850629,-0.18388459,0.6
 517075\O,0,2.14400722,-0.03577869,-0.48810584\C,0,0.89069989,-0.317989
 39,-0.31676326\C,0,-1.81118767,0.13583736,0.19171572\C,0,-2.51615939,0
 .99275339,-0.82476561\C,0,-1.44157166,-1.14822452,-0.08321834\N,0,-0.8
 218731,-2.11563561,-0.34413363\H,0,3.99370872,0.11007897,0.33170237\H,
 0,2.9982448,-1.22495436,0.9757936\H,0,2.65516155,0.46650557,1.45735895

 Normal termination of Gaussian 16 at Wed Apr  9 18:24:58 2025.
