 Gaussian 16, Revision C.01,

 ----------------------------------------------------------------------
 #t hf aug-cc-pvdz symm=none int=(grid=ultrafine) guess=(read,tcheck) s
 table=(opt,rrhf)
 ----------------------------------------------------------------------
 -----
 title
 -----
 Symbolic Z-matrix:
 Charge =  0 Multiplicity = 1

 SCF Done:  E(RHF) =  -322.517789428     A.U. after   17 cycles
 Normal termination of Gaussian 16 at Wed Apr  9 18:08:43 2025.
 Gaussian 16:  ES64L-G16RevC.01  3-Jul-2019

 ----------------------------------------------------------------------
 #t hf aug-cc-pvdz iop(5/13=1,5/36=2,99/5=2) pseudo=read geom=check gue
 ss=(read,tcheck) scf=(maxcycle=1)
 ----------------------------------------------------------------------
 -----
 title
 -----
 Structure from the checkpoint file:  "Grambow2020_wb97xd3_007124_forward_mol1.chk"
 Charge =  0 Multiplicity = 1

                         Standard orientation:
 ---------------------------------------------------------------------
 Center     Atomic      Atomic             Coordinates (Angstroms)
 Number     Number       Type             X           Y           Z
 ---------------------------------------------------------------------
      1          7           0       -2.186542   -0.489153    0.053517
      2          6           0       -0.997067   -0.131597   -0.063595
      3          8           0       -0.550997    1.166339    0.093123
      4          6           0        0.768115    1.244879   -0.187659
      5          6           0        1.388128    0.006281   -0.419672
      6          6           0        1.191653   -1.078024    0.600673
      7          6           0        0.149720   -1.036055   -0.384900
      8          1           0       -2.790399    0.274429    0.345965
      9          1           0        1.229158    1.104039    1.704154
     10          1           0        1.072767    2.198386   -0.599956
     11          1           0        2.238904   -0.042058   -1.085046
     12          1           0        1.175633    0.288806    1.806917
     13          1           0        1.844833   -1.945348    0.548930
     14          1           0       -0.060417   -1.817800   -1.109644
 ---------------------------------------------------------------------

 SCF Done:  E(RHF) =  -322.846820440     A.U. after    2 cycles

 The electronic state is 1-A.
 Alpha  occ. eigenvalues --  -20.63088 -15.49960 -11.37591 -11.36715 -11.29656
 Alpha  occ. eigenvalues --  -11.27870 -11.23836  -1.57787  -1.23868  -1.18997
 Alpha  occ. eigenvalues --   -1.00889  -0.90358  -0.86618  -0.77021  -0.75826
 Alpha  occ. eigenvalues --   -0.70936  -0.67514  -0.65337  -0.62168  -0.59272
 Alpha  occ. eigenvalues --   -0.56187  -0.50247  -0.49265  -0.45334  -0.43621
 Alpha  occ. eigenvalues --   -0.29830
 Alpha virt. eigenvalues --    0.02685   0.03290   0.03681   0.04112   0.05279
 Alpha virt. eigenvalues --    0.05769   0.07028   0.08602   0.10064   0.10684
 Alpha virt. eigenvalues --    0.12012   0.12377   0.13112   0.13532   0.14030

 Mulliken charges:
               1
     1  N    0.744584
     2  C   -0.125602
     3  O   -1.502356
     4  C    0.720419
     5  C    0.320681
     6  C   -0.119927
     7  C    0.075504
     8  H    0.203993
     9  H    0.071263
    10  H   -0.061386
    11  H   -0.192174
    12  H    0.164385
    13  H   -0.157859
    14  H   -0.141524
 Sum of Mulliken charges =  -0.00000

 Dipole moment (field-independent basis, Debye):
    X=              1.9464    Y=              1.6615    Z=             -2.6781  Tot=              3.7042

 Test job not archived.
 1\1\GINC-SE041\SP\RHF\Aug-CC-pVDZ\C5H7N1O1\OHZDE\09-Apr-2025\0\\#t hf
 aug-cc-pvdz iop(5/13=1,5/36=2,99/5=2) pseudo=read geom=check guess=(re
 ad,tcheck) scf=(maxcycle=1)\\title\\0,1\N,0,1.74158962,-1.80064597,-0.
 092583\C,0,0.99405321,-0.80884509,-0.21060901\O,0,1.39965854,0.4254032
 5,-0.67996296\C,0,0.38400083,1.3127226,-0.60142227\C,0,-0.84608908,0.7
 5602425,-0.21498077\C,0,-1.33622416,-0.44960355,-0.96441645\C,0,-0.462
 94743,-0.77983562,0.12511333\H,0,2.6775515,-1.62070248,-0.44588575\H,0
 ,-0.08621076,1.01441684,-2.47259006\H,0,0.70475675,2.33256065,-0.43105

 Normal termination of Gaussian 16 at Wed Apr  9 18:08:47 2025.
