 Gaussian 16, Revision C.01,

 ----------------------------------------------------------------------
 #t hf aug-cc-pvdz symm=none int=(grid=ultrafine) guess=(read,tcheck) s
 table=(opt,rrhf)
 ----------------------------------------------------------------------
 -----
 title
 -----
 Symbolic Z-matrix:
 Charge =  0 Multiplicity = 1

 SCF Done:  E(RHF) =  -343.753264698     A.U. after   14 cycles
 Normal termination of Gaussian 16 at Wed Apr  9 17:56:07 2025.
 Gaussian 16:  ES64L-G16RevC.01  3-Jul-2019

 ----------------------------------------------------------------------
 #t hf aug-cc-pvdz iop(5/13=1,5/36=2,99/5=2) pseudo=read geom=check gue
 ss=(read,tcheck) scf=(maxcycle=1)
 ----------------------------------------------------------------------
 -----
 title
 -----
 Structure from the checkpoint file:  "Grambow2020_wb97xd3_006882_reverse_mol2.chk"
 Charge =  0 Multiplicity = 1

                         Standard orientation:
 ---------------------------------------------------------------------
 Center     Atomic      Atomic             Coordinates (Angstroms)
 Number     Number       Type             X           Y           Z
 ---------------------------------------------------------------------
      1          6           0       -2.008205   -0.903883   -0.501888
      2          6           0       -1.198866    0.197150    0.116259
      3          6           0       -0.034705   -0.231044    0.964816
      4          6           0       -1.471168    1.484962   -0.040849
      5          8           0        2.080422    0.890073   -0.306913
      6          6           0        1.901659   -0.288820   -0.388592
      7          8           0        0.923669   -0.983787    0.193581
      8          1           0       -1.386033   -1.522429   -1.152736
      9          1           0       -2.835064   -0.507334   -1.090029
     10          1           0       -2.417501   -1.563355    0.268694
     11          1           0       -0.357059   -0.922849    1.744714
     12          1           0        0.459692    0.626734    1.417265
     13          1           0       -2.322528    1.816269   -0.624315
     14          1           0       -0.846374    2.250650    0.403296
     15          1           0        2.539851   -0.978164   -0.958707
 ---------------------------------------------------------------------

 SCF Done:  E(RHF) =  -344.104453261     A.U. after    2 cycles

 The electronic state is 1-A.
 Alpha  occ. eigenvalues --  -20.59787 -20.54289 -11.39296 -11.30373 -11.25054
 Alpha  occ. eigenvalues --  -11.23623 -11.23452  -1.55336  -1.46281  -1.10676
 Alpha  occ. eigenvalues --   -0.97927  -0.94791  -0.83368  -0.74787  -0.74689
 Alpha  occ. eigenvalues --   -0.68900  -0.67056  -0.63144  -0.61279  -0.58804
 Alpha  occ. eigenvalues --   -0.57201  -0.53860  -0.52271  -0.51282  -0.45907
 Alpha  occ. eigenvalues --   -0.45205  -0.37446
 Alpha virt. eigenvalues --    0.03500   0.03974   0.04117   0.04527   0.06176
 Alpha virt. eigenvalues --    0.06474   0.07174   0.09326   0.09585   0.10295
 Alpha virt. eigenvalues --    0.12217   0.12998   0.13137   0.14151   0.14781

 Mulliken charges:
               1
     1  C   -0.678912
     2  C    0.311351
     3  C    0.343980
     4  C    0.242814
     5  O   -0.950687
     6  C    1.289573
     7  O   -1.061335
     8  H    0.241773
     9  H    0.101880
    10  H    0.247999
    11  H    0.008001
    12  H    0.126277
    13  H   -0.154683
    14  H   -0.140185
    15  H    0.072152
 Sum of Mulliken charges =  -0.00000

 Dipole moment (field-independent basis, Debye):
    X=             -1.3152    Y=             -1.6262    Z=              0.3151  Tot=              2.1151

 Test job not archived.
 1\1\GINC-SE113\SP\RHF\Aug-CC-pVDZ\C5H8O2\OHZDE\09-Apr-2025\0\\#t hf au
 g-cc-pvdz iop(5/13=1,5/36=2,99/5=2) pseudo=read geom=check guess=(read
 ,tcheck) scf=(maxcycle=1)\\title\\0,1\C,0,-0.82912684,1.60632039,-0.33
 783835\C,0,-0.73480841,0.19296202,0.15504083\C,0,-0.01235252,-0.774919
 7,-0.73934793\C,0,-1.25804852,-0.22108843,1.30049934\O,0,2.03529926,-1
 .62222081,0.82179306\C,0,2.25404362,-0.864242,-0.0760018\O,0,1.3597875
 1,-0.37744831,-0.93722519\H,0,0.16622375,2.03226968,-0.48325264\H,0,-1
 .37495068,2.23631316,0.36361795\H,0,-1.33739296,1.6460568,-1.30547014\

 Normal termination of Gaussian 16 at Wed Apr  9 17:56:12 2025.
