 Gaussian 16, Revision C.01,

 ----------------------------------------------------------------------
 #t hf aug-cc-pvdz symm=none int=(grid=ultrafine) guess=(read,tcheck) s
 table=(opt,rrhf)
 ----------------------------------------------------------------------
 -----
 title
 -----
 Symbolic Z-matrix:
 Charge =  0 Multiplicity = 1

 SCF Done:  E(RHF) =  -307.862245525     A.U. after   13 cycles

 1\1\GINC-SE126\Stability\RHF\Aug-CC-pVDZ\C6H10O1\OHZDE\09-Apr-2025\0\\
 #t hf aug-cc-pvdz symm=none int=(grid=ultrafine) guess=(read,tcheck) s
 table=(opt,rrhf)\\title\\0,1\C,0,1.87031,0.38838579,-0.60489329\C,0,0.
 56232043,0.12488294,0.07898181\C,0,0.18046525,-1.31521324,0.47590571\C
 ,0,-1.23580873,-1.09497392,-0.11783193\C,0,-0.85634753,0.34675448,-0.5
 0796008\C,0,-1.00425027,1.36494958,0.61975453\O,0,0.29745848,1.0561124
 6,1.14759073\H,0,2.6927637,0.21866608,0.09435367\H,0,2.0018777,-0.2799
 5046,-1.45790735\H,0,1.92367904,1.42085058,-0.95352844\H,0,0.75716538,

 Normal termination of Gaussian 16 at Wed Apr  9 03:34:05 2025.
 Gaussian 16:  ES64L-G16RevC.01  3-Jul-2019

 ----------------------------------------------------------------------
 #t hf aug-cc-pvdz iop(5/13=1,5/36=2,99/5=2) pseudo=read geom=check gue
 ss=(read,tcheck) scf=(maxcycle=1)
 ----------------------------------------------------------------------
 -----
 title
 -----
 Structure from the checkpoint file:  "Grambow2020_wb97xd3_007029_forward_mol2.chk"
 Charge =  0 Multiplicity = 1

                         Standard orientation:
 ---------------------------------------------------------------------
 Center     Atomic      Atomic             Coordinates (Angstroms)
 Number     Number       Type             X           Y           Z
 ---------------------------------------------------------------------
      1          6           0       -1.975549   -0.295208    0.404574
      2          6           0       -0.557651   -0.118225   -0.049517
      3          6           0        0.198331   -1.302772   -0.684009
      4          6           0        1.425404   -0.989491    0.212099
      5          6           0        0.672328    0.198860    0.840963
      6          6           0        0.742570    1.490325    0.030087
      7          8           0       -0.363327    1.096996   -0.801009
      8          1           0       -2.627533   -0.422006   -0.463194
      9          1           0       -2.071068   -1.179461    1.037494
     10          1           0       -2.314628    0.577957    0.964027
     11          1           0       -0.254481   -2.274552   -0.481360
     12          1           0        0.342022   -1.194103   -1.758596
     13          1           0        2.348352   -0.730422   -0.308954
     14          1           0        1.647546   -1.783208    0.924849
     15          1           0        0.637576    0.278631    1.925359
     16          1           0        1.658464    1.650391   -0.547989
     17          1           0        0.507780    2.399875    0.591253
 ---------------------------------------------------------------------

 SCF Done:  E(RHF) =  -308.189783714     A.U. after    2 cycles

 The electronic state is 1-A.
 Alpha  occ. eigenvalues --  -20.52876 -11.28438 -11.28066 -11.23168 -11.23149
 Alpha  occ. eigenvalues --  -11.22464 -11.22430  -1.46038  -1.12223  -1.00894
 Alpha  occ. eigenvalues --   -0.95672  -0.85480  -0.85131  -0.70761  -0.67745
 Alpha  occ. eigenvalues --   -0.66114  -0.65083  -0.58831  -0.57575  -0.57185
 Alpha  occ. eigenvalues --   -0.54129  -0.52830  -0.48060  -0.47826  -0.44748
 Alpha  occ. eigenvalues --   -0.41532  -0.39155
 Alpha virt. eigenvalues --    0.03372   0.03836   0.03898   0.04508   0.05670
 Alpha virt. eigenvalues --    0.06136   0.06363   0.06832   0.07388   0.09329
 Alpha virt. eigenvalues --    0.10901   0.12552   0.13328   0.13973   0.14222

 Mulliken charges:
               1
     1  C   -0.450930
     2  C    0.846178
     3  C    0.068222
     4  C    0.062360
     5  C   -0.300432
     6  C    0.716147
     7  O   -1.610014
     8  H    0.248259
     9  H    0.227143
    10  H    0.200926
    11  H    0.055599
    12  H    0.062372
    13  H    0.005265
    14  H    0.026424
    15  H   -0.194912
    16  H    0.025074
    17  H    0.012319
 Sum of Mulliken charges =  -0.00000

 Dipole moment (field-independent basis, Debye):
    X=              0.6885    Y=             -0.9476    Z=              1.5105  Tot=              1.9114

 Test job not archived.
 1\1\GINC-SE126\SP\RHF\Aug-CC-pVDZ\C6H10O1\OHZDE\09-Apr-2025\0\\#t hf a
 ug-cc-pvdz iop(5/13=1,5/36=2,99/5=2) pseudo=read geom=check guess=(rea
 d,tcheck) scf=(maxcycle=1)\\title\\0,1\C,0,1.87031,0.38838579,-0.60489
 329\C,0,0.56232043,0.12488294,0.07898181\C,0,0.18046525,-1.31521324,0.
 47590571\C,0,-1.23580873,-1.09497392,-0.11783193\C,0,-0.85634753,0.346
 75448,-0.50796008\C,0,-1.00425027,1.36494958,0.61975453\O,0,0.29745848
 ,1.05611246,1.14759073\H,0,2.6927637,0.21866608,0.09435367\H,0,2.00187
 77,-0.27995046,-1.45790735\H,0,1.92367904,1.42085058,-0.95352844\H,0,0

 Normal termination of Gaussian 16 at Wed Apr  9 03:34:12 2025.
