 Gaussian 16, Revision C.01,

 ----------------------------------------------------------------------
 #t hf aug-cc-pvdz symm=none int=(grid=ultrafine) guess=(read,tcheck) s
 table=(opt,rrhf)
 ----------------------------------------------------------------------
 -----
 title
 -----
 Symbolic Z-matrix:
 Charge =  0 Multiplicity = 1

 SCF Done:  E(RHF) =  -320.703323710     A.U. after   14 cycles
 Normal termination of Gaussian 16 at Wed Apr  9 16:06:40 2025.
 Gaussian 16:  ES64L-G16RevC.01  3-Jul-2019

 ----------------------------------------------------------------------
 #t hf aug-cc-pvdz iop(5/13=1,5/36=2,99/5=2) pseudo=read geom=check gue
 ss=(read,tcheck) scf=(maxcycle=1)
 ----------------------------------------------------------------------
 -----
 title
 -----
 Structure from the checkpoint file:  "Grambow2020_b97d3_007125_reverse_mol2.chk"
 Charge =  0 Multiplicity = 1

                         Standard orientation:
 ---------------------------------------------------------------------
 Center     Atomic      Atomic             Coordinates (Angstroms)
 Number     Number       Type             X           Y           Z
 ---------------------------------------------------------------------
      1          6           0        2.299513   -0.111046   -0.000520
      2          7           0        0.065744    1.405743    0.000824
      3          6           0       -0.050512    0.131791    0.000082
      4          8           0        0.995017   -0.724826   -0.000407
      5          6           0       -1.358334   -0.632066    0.001202
      6          8           0       -2.436023   -0.066099   -0.001535
      7          1           0        3.010063   -0.942604   -0.007475
      8          1           0        2.424102    0.520751   -0.888888
      9          1           0        2.428970    0.509199    0.895298
     10          1           0       -0.881976    1.808043    0.001037
     11          1           0       -1.257332   -1.740262    0.005201
 ---------------------------------------------------------------------

 SCF Done:  E(RHF) =  -321.022309654     A.U. after    2 cycles

 The electronic state is 1-A.
 Alpha  occ. eigenvalues --  -20.60291 -20.58360 -15.51037 -11.37507 -11.36711
 Alpha  occ. eigenvalues --  -11.30652  -1.52990  -1.50046  -1.22117  -1.01119
 Alpha  occ. eigenvalues --   -0.90878  -0.80649  -0.74782  -0.71455  -0.67671
 Alpha  occ. eigenvalues --   -0.66575  -0.61605  -0.57550  -0.53961  -0.52349
 Alpha  occ. eigenvalues --   -0.52018  -0.45175  -0.44003
 Alpha virt. eigenvalues --    0.03398   0.04387   0.04572   0.04847   0.05873
 Alpha virt. eigenvalues --    0.06770   0.08804   0.10620   0.11698   0.13793
 Alpha virt. eigenvalues --    0.13960   0.14155   0.15550   0.15609   0.15863

 Mulliken charges:
               1
     1  C    0.081530
     2  N    0.685827
     3  C   -0.092702
     4  O   -1.419177
     5  C    1.133856
     6  O   -1.122741
     7  H   -0.019565
     8  H    0.217596
     9  H    0.216804
    10  H    0.166502
    11  H    0.152069
 Sum of Mulliken charges =  -0.00000

 Dipole moment (field-independent basis, Debye):
    X=              1.9241    Y=             -1.9360    Z=              0.0050  Tot=              2.7295

 Test job not archived.
 1\1\GINC-SE114\SP\RHF\Aug-CC-pVDZ\C3H5N1O2\OHZDE\09-Apr-2025\0\\#t hf
 aug-cc-pvdz iop(5/13=1,5/36=2,99/5=2) pseudo=read geom=check guess=(re
 ad,tcheck) scf=(maxcycle=1)\\title\\0,1\C,0,-1.61316051,0.84034537,0.1
 7699593\N,0,1.03541577,0.94885173,-0.33646477\C,0,0.50261285,-0.182344
 2,-0.06630513\O,0,-0.80981889,-0.35641607,0.20598803\C,0,1.23418409,-1
 .50711214,-0.00571432\O,0,2.43040042,-1.59361687,-0.21385365\H,0,-2.62
 75501,0.51342035,0.42307083\H,0,-1.24398123,1.56589957,0.91263494\H,0,
 -1.5786232,1.29852015,-0.81941553\H,0,2.03958575,0.79221441,-0.5011684

 Normal termination of Gaussian 16 at Wed Apr  9 16:06:44 2025.
