 Gaussian 16, Revision C.01,

 ----------------------------------------------------------------------
 #t hf aug-cc-pvdz symm=none int=(grid=ultrafine) guess=(read,tcheck) s
 table=(opt,rrhf)
 ----------------------------------------------------------------------
 -----
 title
 -----
 Symbolic Z-matrix:
 Charge =  0 Multiplicity = 1

 SCF Done:  E(RHF) =  -320.721829167     A.U. after   13 cycles
 Normal termination of Gaussian 16 at Wed Apr  9 16:12:41 2025.
 Gaussian 16:  ES64L-G16RevC.01  3-Jul-2019

 ----------------------------------------------------------------------
 #t hf aug-cc-pvdz iop(5/13=1,5/36=2,99/5=2) pseudo=read geom=check gue
 ss=(read,tcheck) scf=(maxcycle=1)
 ----------------------------------------------------------------------
 -----
 title
 -----
 Structure from the checkpoint file:  "Grambow2020_b97d3_007155_reverse_mol2.chk"
 Charge =  0 Multiplicity = 1

                         Standard orientation:
 ---------------------------------------------------------------------
 Center     Atomic      Atomic             Coordinates (Angstroms)
 Number     Number       Type             X           Y           Z
 ---------------------------------------------------------------------
      1          8           0        1.962327   -0.529402    0.476756
      2          6           0        0.953643   -0.064218   -0.004715
      3          7           0        0.778257    1.225221   -0.419195
      4          6           0       -1.998458    0.425738    0.520767
      5          6           0       -1.443414   -0.521295   -0.252853
      6          8           0       -0.127840   -0.913991   -0.303621
      7          1           0        1.487018    1.889896   -0.137065
      8          1           0       -1.431529    1.019804    1.235053
      9          1           0       -3.072983    0.584728    0.466787
     10          1           0       -0.139172    1.575727   -0.670458
     11          1           0       -2.037660   -1.140914   -0.924222
 ---------------------------------------------------------------------

 SCF Done:  E(RHF) =  -321.041689706     A.U. after    2 cycles

 The electronic state is 1-A.
 Alpha  occ. eigenvalues --  -20.60784 -20.53057 -15.54750 -11.43336 -11.33674
 Alpha  occ. eigenvalues --  -11.25756  -1.54908  -1.46066  -1.23882  -1.05853
 Alpha  occ. eigenvalues --   -0.90802  -0.83211  -0.77245  -0.73218  -0.70151
 Alpha  occ. eigenvalues --   -0.65568  -0.62456  -0.58884  -0.57235  -0.53693
 Alpha  occ. eigenvalues --   -0.45941  -0.45710  -0.38453
 Alpha virt. eigenvalues --    0.02785   0.03683   0.04319   0.05534   0.06527
 Alpha virt. eigenvalues --    0.09135   0.10323   0.10862   0.11806   0.13163
 Alpha virt. eigenvalues --    0.13483   0.14332   0.15157   0.15961   0.16531

 Mulliken charges:
               1
     1  O   -1.102334
     2  C    1.152524
     3  N    0.413404
     4  C   -0.125496
     5  C    0.984479
     6  O   -1.412403
     7  H    0.131519
     8  H   -0.027925
     9  H   -0.060754
    10  H    0.077393
    11  H   -0.030407
 Sum of Mulliken charges =  -0.00000

 Dipole moment (field-independent basis, Debye):
    X=             -3.2437    Y=              3.2080    Z=             -0.8337  Tot=              4.6377

 Test job not archived.
 1\1\GINC-SE037\SP\RHF\Aug-CC-pVDZ\C3H5N1O2\OHZDE\09-Apr-2025\0\\#t hf
 aug-cc-pvdz iop(5/13=1,5/36=2,99/5=2) pseudo=read geom=check guess=(re
 ad,tcheck) scf=(maxcycle=1)\\title\\0,1\O,0,2.48716431,-0.1891881,-0.7
 657261\C,0,1.45119168,0.04257707,-0.18374673\N,0,1.11616168,-0.3871775
 2,1.06856053\C,0,-1.56579188,-0.27289496,-0.35513467\C,0,-0.83715334,0
 .83303497,-0.57747986\O,0,0.52194408,0.93481343,-0.75073736\H,0,1.7047
 4284,-1.10476814,1.47150998\H,0,-1.13182775,-1.26851557,-0.28483243\H,
 0,-2.64716757,-0.18332709,-0.28164108\H,0,0.17370735,-0.27919787,1.426

 Normal termination of Gaussian 16 at Wed Apr  9 16:12:44 2025.
