 Gaussian 16, Revision C.01,

 ----------------------------------------------------------------------
 #t hf aug-cc-pvdz symm=none int=(grid=ultrafine) guess=(read,tcheck) s
 table=(opt,rrhf)
 ----------------------------------------------------------------------
 -----
 title
 -----
 Symbolic Z-matrix:
 Charge =  0 Multiplicity = 1

 SCF Done:  E(RHF) =  -344.687212637     A.U. after   13 cycles

 1\1\GINC-SE080\Stability\RHF\Aug-CC-pVDZ\C5H10O2\OHZDE\09-Apr-2025\0\\
 #t hf aug-cc-pvdz symm=none int=(grid=ultrafine) guess=(read,tcheck) s
 table=(opt,rrhf)\\title\\0,1\C,0,1.5151622,1.40644571,-0.64227421\O,0,
 1.33221719,0.50538391,0.29047435\C,0,0.52238671,-0.49858967,0.20626825
 \C,0,0.15694006,-1.40417113,1.34223829\O,0,-1.18168088,-1.48208591,0.8
 1776764\C,0,-0.91747676,-0.55376122,-0.25928474\C,0,-1.75039556,0.7065
 4525,-0.14666156\H,0,1.84957039,-0.24029837,-1.78870821\H,0,0.72002177
 ,1.6076071,-1.34548713\H,0,2.2777359,2.13024778,-0.40582863\H,0,1.5191

 Normal termination of Gaussian 16 at Wed Apr  9 03:27:30 2025.
 Gaussian 16:  ES64L-G16RevC.01  3-Jul-2019

 ----------------------------------------------------------------------
 #t hf aug-cc-pvdz iop(5/13=1,5/36=2,99/5=2) pseudo=read geom=check gue
 ss=(read,tcheck) scf=(maxcycle=1)
 ----------------------------------------------------------------------
 -----
 title
 -----
 Structure from the checkpoint file:  "Grambow2020_wb97xd3_006660_forward_mol1.chk"
 Charge =  0 Multiplicity = 1

                         Standard orientation:
 ---------------------------------------------------------------------
 Center     Atomic      Atomic             Coordinates (Angstroms)
 Number     Number       Type             X           Y           Z
 ---------------------------------------------------------------------
      1          6           0       -2.321111    0.244168   -0.069110
      2          8           0       -1.348719   -0.576850   -0.378601
      3          6           0       -0.184173   -0.595585    0.182076
      4          6           0        0.991406   -1.384687   -0.307201
      5          8           0        1.853129   -0.302102    0.090906
      6          6           0        0.757795    0.543188    0.512049
      7          6           0        0.660535    1.809112   -0.314260
      8          1           0       -1.963595   -0.468216    1.802413
      9          1           0       -2.083338    1.205384    0.363037
     10          1           0       -3.235197    0.060986   -0.609670
     11          1           0       -1.234824   -0.769588    1.857975
     12          1           0        1.024690   -1.571501   -1.387037
     13          1           0        1.226319   -2.307224    0.230714
     14          1           0        0.853306    0.786045    1.575558
     15          1           0       -0.122387    2.471038    0.059596
     16          1           0        1.610624    2.341098   -0.248299
     17          1           0        0.462413    1.586411   -1.364054
 ---------------------------------------------------------------------

 SCF Done:  E(RHF) =  -345.044918554     A.U. after    2 cycles

 The electronic state is 1-A.
 Alpha  occ. eigenvalues --  -20.66993 -20.54928 -11.30922 -11.30618 -11.29953
 Alpha  occ. eigenvalues --  -11.29942 -11.23923  -1.60042  -1.47724  -1.05902
 Alpha  occ. eigenvalues --   -1.03091  -0.93290  -0.89325  -0.78803  -0.73594
 Alpha  occ. eigenvalues --   -0.72022  -0.69931  -0.65430  -0.62102  -0.59502
 Alpha  occ. eigenvalues --   -0.57042  -0.56079  -0.54526  -0.53049  -0.50504
 Alpha  occ. eigenvalues --   -0.47256  -0.43052  -0.27050
 Alpha virt. eigenvalues --    0.03540   0.03761   0.04236   0.04533   0.06048
 Alpha virt. eigenvalues --    0.06055   0.06704   0.07411   0.07961   0.08226
 Alpha virt. eigenvalues --    0.10378   0.10748   0.12832   0.13293   0.13786

 Mulliken charges:
               1
     1  C    0.400884
     2  O   -1.114607
     3  C    0.359665
     4  C    0.408402
     5  O   -1.407052
     6  C    0.833982
     7  C   -0.312039
     8  H    0.007714
     9  H    0.068842
    10  H   -0.099005
    11  H    0.119363
    12  H    0.075450
    13  H    0.084488
    14  H    0.047539
    15  H    0.200386
    16  H    0.161696
    17  H    0.164293
 Sum of Mulliken charges =  -0.00000

 Dipole moment (field-independent basis, Debye):
    X=             -0.7892    Y=              0.8822    Z=             -0.9044  Tot=              1.4896

 Test job not archived.
 1\1\GINC-SE080\SP\RHF\Aug-CC-pVDZ\C5H10O2\OHZDE\09-Apr-2025\0\\#t hf a
 ug-cc-pvdz iop(5/13=1,5/36=2,99/5=2) pseudo=read geom=check guess=(rea
 d,tcheck) scf=(maxcycle=1)\\title\\0,1\C,0,1.5151622,1.40644571,-0.642
 27421\O,0,1.33221719,0.50538391,0.29047435\C,0,0.52238671,-0.49858967,
 0.20626825\C,0,0.15694006,-1.40417113,1.34223829\O,0,-1.18168088,-1.48
 208591,0.81776764\C,0,-0.91747676,-0.55376122,-0.25928474\C,0,-1.75039
 556,0.70654525,-0.14666156\H,0,1.84957039,-0.24029837,-1.78870821\H,0,
 0.72002177,1.6076071,-1.34548713\H,0,2.2777359,2.13024778,-0.40582863\

 Normal termination of Gaussian 16 at Wed Apr  9 03:27:36 2025.
