 Gaussian 16, Revision C.01,

 ----------------------------------------------------------------------
 #t hf aug-cc-pvdz symm=none int=(grid=ultrafine) guess=(read,tcheck) s
 table=(opt,rrhf)
 ----------------------------------------------------------------------
 -----
 title
 -----
 Symbolic Z-matrix:
 Charge =  0 Multiplicity = 1

 SCF Done:  E(RHF) =  -344.697776279     A.U. after   16 cycles

 1\1\GINC-SE220\Stability\RHF\Aug-CC-pVDZ\C5H10O2\OHZDE\09-Apr-2025\0\\
 #t hf aug-cc-pvdz symm=none int=(grid=ultrafine) guess=(read,tcheck) s
 table=(opt,rrhf)\\title\\0,1\C,0,2.1493861,0.40065686,-0.66798778\C,0,
 0.99640026,-0.46619178,-0.2269056\C,0,0.29836659,-0.02052667,1.0576706
 4\O,0,-1.04831173,-0.46763671,0.87842758\C,0,-1.18761557,-0.96468664,-
 0.59906064\C,0,-2.27648229,0.58824625,0.19211013\O,0,-0.06191965,-0.38
 921432,-1.17145832\H,0,2.55766378,0.03343925,-1.60948113\H,0,2.9468487
 3,0.39566498,0.07734005\H,0,1.81197765,1.42809744,-0.81523821\H,0,1.31

 Normal termination of Gaussian 16 at Wed Apr  9 18:07:00 2025.
 Gaussian 16:  ES64L-G16RevC.01  3-Jul-2019

 ----------------------------------------------------------------------
 #t hf aug-cc-pvdz iop(5/13=1,5/36=2,99/5=2) pseudo=read geom=check gue
 ss=(read,tcheck) scf=(maxcycle=1)
 ----------------------------------------------------------------------
 -----
 title
 -----
 Structure from the checkpoint file:  "Grambow2020_wb97xd3_007104_forward_mol1.chk"
 Charge =  0 Multiplicity = 1

                         Standard orientation:
 ---------------------------------------------------------------------
 Center     Atomic      Atomic             Coordinates (Angstroms)
 Number     Number       Type             X           Y           Z
 ---------------------------------------------------------------------
      1          6           0       -2.376616    0.039479    0.518126
      2          6           0       -1.141175   -0.047946   -0.342919
      3          6           0       -0.204009    1.156879   -0.264667
      4          8           0        1.085990    0.593649   -0.518148
      5          6           0        0.929858   -0.963605   -0.514128
      6          6           0        2.127110    0.068658    0.798960
      7          8           0       -0.300065   -1.097367    0.114678
      8          1           0       -2.961573   -0.876053    0.431083
      9          1           0       -3.004568    0.878544    0.212953
     10          1           0       -2.096479    0.172145    1.564589
     11          1           0       -1.410206   -0.229547   -1.394212
     12          1           0       -0.214079    1.612927    0.731085
     13          1           0       -0.405478    1.919757   -1.018137
     14          1           0        0.820456   -1.203490   -1.587149
     15          1           0        2.226233    1.110872    1.127019
     16          1           0        1.687128   -0.553880    1.567580
     17          1           0        3.060157   -0.322326    0.420722
 ---------------------------------------------------------------------

 SCF Done:  E(RHF) =  -345.057629671     A.U. after    2 cycles

 The electronic state is 1-A.
 Alpha  occ. eigenvalues --  -20.58058 -20.53515 -11.34135 -11.29339 -11.28567
 Alpha  occ. eigenvalues --  -11.25641 -11.23103  -1.51245  -1.42352  -1.06315
 Alpha  occ. eigenvalues --   -0.97787  -0.92247  -0.83337  -0.81786  -0.71260
 Alpha  occ. eigenvalues --   -0.66862  -0.64836  -0.63306  -0.61177  -0.59029
 Alpha  occ. eigenvalues --   -0.57316  -0.54919  -0.53782  -0.49256  -0.48400
 Alpha  occ. eigenvalues --   -0.46722  -0.43198  -0.27881
 Alpha virt. eigenvalues --    0.03236   0.03619   0.04113   0.04516   0.05887
 Alpha virt. eigenvalues --    0.06330   0.06493   0.06873   0.08243   0.09089
 Alpha virt. eigenvalues --    0.11262   0.12023   0.12922   0.13962   0.14068

 Mulliken charges:
               1
     1  C   -0.320433
     2  C    0.124633
     3  C    0.729600
     4  O   -1.255097
     5  C    0.726665
     6  C   -0.025017
     7  O   -1.410131
     8  H    0.168248
     9  H    0.222105
    10  H    0.214510
    11  H    0.058883
    12  H    0.123885
    13  H    0.076474
    14  H    0.035401
    15  H    0.031162
    16  H    0.331861
    17  H    0.167250
 Sum of Mulliken charges =  -0.00000

 Dipole moment (field-independent basis, Debye):
    X=             -0.3795    Y=              2.8807    Z=              0.9623  Tot=              3.0608

 Test job not archived.
 1\1\GINC-SE220\SP\RHF\Aug-CC-pVDZ\C5H10O2\OHZDE\09-Apr-2025\0\\#t hf a
 ug-cc-pvdz iop(5/13=1,5/36=2,99/5=2) pseudo=read geom=check guess=(rea
 d,tcheck) scf=(maxcycle=1)\\title\\0,1\C,0,2.1493861,0.40065686,-0.667
 98778\C,0,0.99640026,-0.46619178,-0.2269056\C,0,0.29836659,-0.02052667
 ,1.05767064\O,0,-1.04831173,-0.46763671,0.87842758\C,0,-1.18761557,-0.
 96468664,-0.59906064\C,0,-2.27648229,0.58824625,0.19211013\O,0,-0.0619
 1965,-0.38921432,-1.17145832\H,0,2.55766378,0.03343925,-1.60948113\H,0
 ,2.94684873,0.39566498,0.07734005\H,0,1.81197765,1.42809744,-0.8152382

 Normal termination of Gaussian 16 at Wed Apr  9 18:07:06 2025.
