 Gaussian 16, Revision C.01,

 ----------------------------------------------------------------------
 #t hf aug-cc-pvdz symm=none int=(grid=ultrafine) guess=(read,tcheck) s
 table=(opt,rrhf)
 ----------------------------------------------------------------------
 -----
 title
 -----
 Symbolic Z-matrix:
 Charge =  0 Multiplicity = 1

 SCF Done:  E(RHF) =  -324.925425301     A.U. after   15 cycles
 Normal termination of Gaussian 16 at Wed Apr  9 03:52:28 2025.
 Gaussian 16:  ES64L-G16RevC.01  3-Jul-2019

 ----------------------------------------------------------------------
 #t hf aug-cc-pvdz iop(5/13=1,5/36=2,99/5=2) pseudo=read geom=check gue
 ss=(read,tcheck) scf=(maxcycle=1)
 ----------------------------------------------------------------------
 -----
 title
 -----
 Structure from the checkpoint file:  "Grambow2020_wb97xd3_008230_forward_mol1.chk"
 Charge =  0 Multiplicity = 1

                         Standard orientation:
 ---------------------------------------------------------------------
 Center     Atomic      Atomic             Coordinates (Angstroms)
 Number     Number       Type             X           Y           Z
 ---------------------------------------------------------------------
      1          6           0        1.655729    1.218758    0.458483
      2          6           0        1.937860   -0.164172    0.048160
      3          6           0        0.928451   -1.030553   -0.512296
      4          7           0       -0.323691   -1.029222    0.137894
      5          6           0       -1.138457   -0.013450   -0.186164
      6          8           0       -0.924456    0.804234   -1.094643
      7          6           0       -2.401894    0.084971    0.636289
      8          1           0        0.762386    1.272538    1.079430
      9          1           0        2.507367    1.689278    0.944460
     10          1           0        1.395289    1.775339   -0.453483
     11          1           0        2.979737   -0.440060   -0.114177
     12          1           0        1.484874   -0.937691    1.783732
     13          1           0        0.785860   -0.464066   -1.474861
     14          1           0        1.313482   -2.026078   -0.735726
     15          1           0        0.703260   -1.050266    1.624284
     16          1           0       -2.459798    1.079389    1.081328
     17          1           0       -2.438475   -0.674972    1.414393
     18          1           0       -3.262629   -0.026058   -0.024322
 ---------------------------------------------------------------------

 SCF Done:  E(RHF) =  -325.267979429     A.U. after    2 cycles

 The electronic state is 1-A.
 Alpha  occ. eigenvalues --  -20.46045 -15.44261 -11.38946 -11.30326 -11.27866
 Alpha  occ. eigenvalues --  -11.27691 -11.20669  -1.40559  -1.20389  -1.10901
 Alpha  occ. eigenvalues --   -1.00167  -0.95318  -0.83600  -0.74108  -0.72235
 Alpha  occ. eigenvalues --   -0.68577  -0.63984  -0.61208  -0.60271  -0.58492
 Alpha  occ. eigenvalues --   -0.57179  -0.55663  -0.53643  -0.52317  -0.47993
 Alpha  occ. eigenvalues --   -0.42786  -0.37526  -0.35477
 Alpha virt. eigenvalues --    0.01006   0.01863   0.03087   0.04313   0.04759
 Alpha virt. eigenvalues --    0.05669   0.06356   0.06853   0.07458   0.07570
 Alpha virt. eigenvalues --    0.09408   0.10597   0.11819   0.12256   0.12949

 Mulliken charges:
               1
     1  C   -0.429885
     2  C    0.083993
     3  C   -0.732221
     4  N    0.702141
     5  C    0.269444
     6  O   -1.393590
     7  C   -0.352419
     8  H    0.218799
     9  H    0.110889
    10  H    0.357920
    11  H   -0.058069
    12  H   -0.011047
    13  H    0.408683
    14  H   -0.033788
    15  H    0.259184
    16  H    0.214267
    17  H    0.177639
    18  H    0.208059
 Sum of Mulliken charges =   0.00000

 Dipole moment (field-independent basis, Debye):
    X=              6.0675    Y=              0.6414    Z=              1.3923  Tot=              6.2581

 Test job not archived.
 1\1\GINC-SE095\SP\RHF\Aug-CC-pVDZ\C5H11N1O1\OHZDE\09-Apr-2025\0\\#t hf
  aug-cc-pvdz iop(5/13=1,5/36=2,99/5=2) pseudo=read geom=check guess=(r
 ead,tcheck) scf=(maxcycle=1)\\title\\0,1\C,0,-1.38608414,0.55435677,-1
 .07782932\C,0,-1.58398397,0.75820724,0.36430083\C,0,-0.49068554,0.7605
 048,1.3068102\N,0,0.46680238,-0.26409155,1.15179989\C,0,1.39430182,-0.
 04578631,0.20695187\O,0,1.54192954,1.02210133,-0.40750634\C,0,2.309259
 19,-1.21371889,-0.07796062\H,0,-0.75326044,-0.31078577,-1.27171416\H,0
 ,-2.32634342,0.48956169,-1.6205672\H,0,-0.80480114,1.4127714,-1.444608

 Normal termination of Gaussian 16 at Wed Apr  9 03:52:35 2025.
