 Gaussian 16, Revision C.01,

 ----------------------------------------------------------------------
 #t hf aug-cc-pvdz symm=none int=(grid=ultrafine) guess=(read,tcheck) s
 table=(opt,rrhf)
 ----------------------------------------------------------------------
 -----
 title
 -----
 Symbolic Z-matrix:
 Charge =  0 Multiplicity = 1

 SCF Done:  E(RHF) =  -374.453468282     A.U. after   15 cycles
 Normal termination of Gaussian 16 at Wed Apr  9 18:20:25 2025.
 Gaussian 16:  ES64L-G16RevC.01  3-Jul-2019

 ----------------------------------------------------------------------
 #t hf aug-cc-pvdz iop(5/13=1,5/36=2,99/5=2) pseudo=read geom=check gue
 ss=(read,tcheck) scf=(maxcycle=1)
 ----------------------------------------------------------------------
 -----
 title
 -----
 Structure from the checkpoint file:  "Grambow2020_wb97xd3_007338_reverse_mol1.chk"
 Charge =  0 Multiplicity = 1

                         Standard orientation:
 ---------------------------------------------------------------------
 Center     Atomic      Atomic             Coordinates (Angstroms)
 Number     Number       Type             X           Y           Z
 ---------------------------------------------------------------------
      1          7           0       -2.369443   -0.280710    0.077285
      2          6           0       -0.956558   -0.182170   -0.168384
      3          6           0       -0.648097    1.109453   -0.077615
      4          8           0        0.734433    1.167903    0.020072
      5          6           0        1.240132   -0.109928    0.033867
      6          8           0        2.402796   -0.381781    0.035240
      7          7           0        0.158104   -0.995357    0.028620
      8          1           0       -2.943075   -0.706581   -0.643762
      9          1           0       -2.639858   -0.621347    0.996018
     10          1           0       -2.163566    0.974987    0.099917
     11          1           0        0.315174   -1.907703   -0.363217
 ---------------------------------------------------------------------

 SCF Done:  E(RHF) =  -374.827034041     A.U. after    2 cycles

 The electronic state is 1-A.
 Alpha  occ. eigenvalues --  -20.59473 -20.51683 -15.62488 -15.55431 -11.40905
 Alpha  occ. eigenvalues --  -11.28840 -11.26072  -1.55083  -1.45841  -1.31739
 Alpha  occ. eigenvalues --   -1.25309  -1.02653  -0.87338  -0.84161  -0.82728
 Alpha  occ. eigenvalues --   -0.80610  -0.70754  -0.67479  -0.65218  -0.63223
 Alpha  occ. eigenvalues --   -0.55330  -0.52854  -0.49759  -0.46217  -0.40068
 Alpha  occ. eigenvalues --   -0.33595
 Alpha virt. eigenvalues --    0.00502   0.03783   0.03991   0.05231   0.08529
 Alpha virt. eigenvalues --    0.10076   0.10105   0.10770   0.11079   0.11672
 Alpha virt. eigenvalues --    0.12449   0.14499   0.15494   0.15804   0.17000

 Mulliken charges:
               1
     1  N    0.020373
     2  C   -1.682290
     3  C    0.630695
     4  O   -1.327241
     5  C    1.388809
     6  O   -1.199809
     7  N    0.766088
     8  H    0.338007
     9  H    0.342767
    10  H    0.636588
    11  H    0.086012
 Sum of Mulliken charges =  -0.00000

 Dipole moment (field-independent basis, Debye):
    X=             -7.4312    Y=             -3.7308    Z=             -0.0210  Tot=              8.3152

 Test job not archived.
 1\1\GINC-SE117\SP\RHF\Aug-CC-pVDZ\C3H4N2O2\OHZDE\09-Apr-2025\0\\#t hf
 aug-cc-pvdz iop(5/13=1,5/36=2,99/5=2) pseudo=read geom=check guess=(re
 ad,tcheck) scf=(maxcycle=1)\\title\\0,1\N,0,-1.75566727,0.10098676,-0.
 03823664\C,0,-0.32914141,0.010009,-0.19007373\C,0,0.12924941,1.2596252
 4,-0.19388761\O,0,1.50010533,1.16612269,-0.00321062\C,0,1.84363922,-0.
 15434675,0.1614711\O,0,2.96201278,-0.55815617,0.27042199\N,0,0.6635546
 8,-0.9041383,0.15841638\H,0,-2.33267644,-0.32370604,-0.7572811\H,0,-2.
 12064315,-0.1144149,0.88568002\H,0,-1.39919759,1.32036593,-0.11384657\

 Normal termination of Gaussian 16 at Wed Apr  9 18:20:29 2025.
