 Gaussian 16, Revision C.01,

 ----------------------------------------------------------------------
 #t hf aug-cc-pvdz symm=none int=(grid=ultrafine) guess=(read,tcheck) s
 table=(opt,rrhf)
 ----------------------------------------------------------------------
 -----
 title
 -----
 Symbolic Z-matrix:
 Charge =  0 Multiplicity = 1

 SCF Done:  E(RHF) =  -284.698490830     A.U. after   15 cycles
 Normal termination of Gaussian 16 at Wed Apr  9 17:06:19 2025.
 Gaussian 16:  ES64L-G16RevC.01  3-Jul-2019

 ----------------------------------------------------------------------
 #t hf aug-cc-pvdz iop(5/13=1,5/36=2,99/5=2) pseudo=read geom=check gue
 ss=(read,tcheck) scf=(maxcycle=1)
 ----------------------------------------------------------------------
 -----
 title
 -----
 Structure from the checkpoint file:  "Grambow2020_wb97xd3_006245_forward_mol1.chk"
 Charge =  0 Multiplicity = 1

                         Standard orientation:
 ---------------------------------------------------------------------
 Center     Atomic      Atomic             Coordinates (Angstroms)
 Number     Number       Type             X           Y           Z
 ---------------------------------------------------------------------
      1          8           0       -2.275126   -0.362398    0.042377
      2          6           0       -1.428887    0.472793   -0.035207
      3          7           0       -0.056350    0.167946   -0.248876
      4          6           0        0.687041   -1.070462    0.185911
      5          6           0        1.892193   -0.252764   -0.282961
      6          6           0        1.128083    0.966651    0.228304
      7          1           0       -1.616604    1.558995   -0.006176
      8          1           0        0.541244   -1.180238    1.272096
      9          1           0        0.370892   -1.969537   -0.339605
     10          1           0        2.890221   -0.474747    0.087145
     11          1           0        0.481550    0.071218   -1.248734
     12          1           0        1.223601    1.937819   -0.258972
     13          1           0        1.033968    1.082743    1.321079
 ---------------------------------------------------------------------

 SCF Done:  E(RHF) =  -284.995225046     A.U. after    2 cycles

 The electronic state is 1-A.
 Alpha  occ. eigenvalues --  -20.58688 -15.60142 -11.40755 -11.29163 -11.28593
 Alpha  occ. eigenvalues --  -11.18612  -1.53108  -1.33782  -1.06248  -0.95535
 Alpha  occ. eigenvalues --   -0.86903  -0.81295  -0.76040  -0.72575  -0.70635
 Alpha  occ. eigenvalues --   -0.60968  -0.59506  -0.56516  -0.54364  -0.52642
 Alpha  occ. eigenvalues --   -0.48686  -0.47028  -0.28721
 Alpha virt. eigenvalues --    0.02915   0.04071   0.04688   0.04938   0.05759
 Alpha virt. eigenvalues --    0.06287   0.06552   0.08362   0.09310   0.10112
 Alpha virt. eigenvalues --    0.12517   0.13775   0.14274   0.14570   0.15068

 Mulliken charges:
               1
     1  O   -0.999609
     2  C    0.726182
     3  N    0.051680
     4  C   -0.195729
     5  C    0.127874
     6  C   -0.213434
     7  H    0.162114
     8  H   -0.046282
     9  H   -0.018790
    10  H   -0.159704
    11  H    0.633908
    12  H   -0.029323
    13  H   -0.038888
 Sum of Mulliken charges =   0.00000

 Dipole moment (field-independent basis, Debye):
    X=             -0.8396    Y=              2.2063    Z=              1.1265  Tot=              2.6157

 Test job not archived.
 1\1\GINC-SE219\SP\RHF\Aug-CC-pVDZ\C4H7N1O1\OHZDE\09-Apr-2025\0\\#t hf
 aug-cc-pvdz iop(5/13=1,5/36=2,99/5=2) pseudo=read geom=check guess=(re
 ad,tcheck) scf=(maxcycle=1)\\title\\0,1\O,0,2.15921214,1.24586734,-1.2
 0624463\C,0,1.7038976,0.18813727,-0.90033549\N,0,0.33518006,0.00209676
 ,-0.56203621\C,0,-0.59672522,1.00252797,0.07515498\C,0,-1.50736311,-0.
 22363348,0.16532769\C,0,-0.2263821,-1.02549437,0.38517851\H,0,2.267950
 83,-0.75936068,-0.89803536\H,0,-0.12258662,1.35072761,1.00631283\H,0,-
 0.83662671,1.84229285,-0.57422567\H,0,-2.3149447,-0.26175972,0.8924269

 Normal termination of Gaussian 16 at Wed Apr  9 17:06:26 2025.
