 Gaussian 16, Revision C.01,

 ----------------------------------------------------------------------
 #t hf aug-cc-pvdz symm=none int=(grid=ultrafine) guess=(read,tcheck) s
 table=(opt,rrhf)
 ----------------------------------------------------------------------
 -----
 title
 -----
 Symbolic Z-matrix:
 Charge =  0 Multiplicity = 1

 SCF Done:  E(RHF) =  -268.675520489     A.U. after   14 cycles
 Normal termination of Gaussian 16 at Wed Apr  9 03:21:05 2025.
 Gaussian 16:  ES64L-G16RevC.01  3-Jul-2019

 ----------------------------------------------------------------------
 #t hf aug-cc-pvdz iop(5/13=1,5/36=2,99/5=2) pseudo=read geom=check gue
 ss=(read,tcheck) scf=(maxcycle=1)
 ----------------------------------------------------------------------
 -----
 title
 -----
 Structure from the checkpoint file:  "Grambow2020_wb97xd3_006046_reverse_mol1.chk"
 Charge =  0 Multiplicity = 1

                         Standard orientation:
 ---------------------------------------------------------------------
 Center     Atomic      Atomic             Coordinates (Angstroms)
 Number     Number       Type             X           Y           Z
 ---------------------------------------------------------------------
      1          6           0       -1.832052   -0.799184    0.305426
      2          8           0       -0.877086   -0.162070   -0.543662
      3          6           0       -0.448398    1.279512   -0.104602
      4          6           0        0.954575    1.304508    0.308232
      5          6           0        1.492205    0.168727    0.195051
      6          6           0        1.678254   -1.148011   -0.067668
      7          1           0       -2.800428   -0.323358    0.161058
      8          1           0       -1.886645   -1.845067    0.005590
      9          1           0       -1.524423   -0.726699    1.350885
     10          1           0       -0.660500    1.859708   -1.000379
     11          1           0       -1.156007    1.525200    0.687817
     12          1           0        2.180272   -1.451186   -0.981712
     13          1           0        1.699293   -1.866418    0.747055
     14          1           0        0.097623   -0.708934   -0.439653
 ---------------------------------------------------------------------

 SCF Done:  E(RHF) =  -268.958973213     A.U. after    2 cycles

 The electronic state is 1-A.
 Alpha  occ. eigenvalues --  -20.63408 -11.33296 -11.33000 -11.24018 -11.22075
 Alpha  occ. eigenvalues --  -11.18516  -1.53741  -1.09480  -1.00477  -0.97126
 Alpha  occ. eigenvalues --   -0.88421  -0.75275  -0.70887  -0.69571  -0.65510
 Alpha  occ. eigenvalues --   -0.61478  -0.59667  -0.58580  -0.56753  -0.53358
 Alpha  occ. eigenvalues --   -0.42591  -0.35514  -0.30824
 Alpha virt. eigenvalues --    0.02431   0.03320   0.03971   0.04814   0.06167
 Alpha virt. eigenvalues --    0.06582   0.07084   0.08313   0.09686   0.11602
 Alpha virt. eigenvalues --    0.12200   0.13055   0.14222   0.14598   0.14855

 Mulliken charges:
               1
     1  C    0.182240
     2  O   -1.523368
     3  C    0.445618
     4  C   -0.619604
     5  C    0.473845
     6  C   -0.481111
     7  H    0.068979
     8  H    0.056244
     9  H    0.233451
    10  H    0.092079
    11  H    0.167783
    12  H   -0.040384
    13  H   -0.050736
    14  H    0.994963
 Sum of Mulliken charges =  -0.00000

 Dipole moment (field-independent basis, Debye):
    X=             -5.1266    Y=             -2.5872    Z=             -0.4611  Tot=              5.7609

 Test job not archived.
 1\1\GINC-SE049\SP\RHF\Aug-CC-pVDZ\C5H8O1\OHZDE\09-Apr-2025\0\\#t hf au
 g-cc-pvdz iop(5/13=1,5/36=2,99/5=2) pseudo=read geom=check guess=(read
 ,tcheck) scf=(maxcycle=1)\\title\\0,1\C,0,-1.60693206,0.75900192,-0.21
 949689\O,0,-0.73133407,-0.31750644,0.11707751\C,0,-0.34384404,-1.26125
 948,-1.07199251\C,0,1.07772619,-1.13941758,-1.39398791\C,0,1.65871304,
 -0.3216272,-0.6287908\C,0,1.88871792,0.58051414,0.35643676\H,0,-2.6023
 9485,0.35674434,-0.39906914\H,0,-1.63124852,1.43670706,0.63307464\H,0,
 -1.24409555,1.2862188,-1.10452023\H,0,-0.63233185,-2.23742602,-0.68740

 Normal termination of Gaussian 16 at Wed Apr  9 03:21:09 2025.
