 Gaussian 16, Revision C.01,

 ----------------------------------------------------------------------
 #t hf aug-cc-pvdz symm=none int=(grid=ultrafine) guess=(read,tcheck) s
 table=(opt,rrhf)
 ----------------------------------------------------------------------
 -----
 title
 -----
 Symbolic Z-matrix:
 Charge =  0 Multiplicity = 1

 SCF Done:  E(RHF) =  -268.713791499     A.U. after   18 cycles
 Normal termination of Gaussian 16 at Wed Apr  9 17:09:22 2025.
 Gaussian 16:  ES64L-G16RevC.01  3-Jul-2019

 ----------------------------------------------------------------------
 #t hf aug-cc-pvdz iop(5/13=1,5/36=2,99/5=2) pseudo=read geom=check gue
 ss=(read,tcheck) scf=(maxcycle=1)
 ----------------------------------------------------------------------
 -----
 title
 -----
 Structure from the checkpoint file:  "Grambow2020_wb97xd3_006266_reverse_mol1.chk"
 Charge =  0 Multiplicity = 1

                         Standard orientation:
 ---------------------------------------------------------------------
 Center     Atomic      Atomic             Coordinates (Angstroms)
 Number     Number       Type             X           Y           Z
 ---------------------------------------------------------------------
      1          6           0       -1.841206   -0.762592    0.106647
      2          6           0       -0.603101   -0.090792   -0.441723
      3          6           0       -0.454382    1.403816   -0.113595
      4          6           0        0.849772    0.970167    0.409192
      5          6           0        0.745953   -0.542757    0.404632
      6          8           0        1.750453   -0.860047   -0.326643
      7          1           0       -1.934341   -0.598869    1.182478
      8          1           0       -2.734721   -0.353287   -0.371954
      9          1           0       -1.810873   -1.838771   -0.070319
     10          1           0       -0.388397   -0.315212   -1.481496
     11          1           0       -1.156061    1.718710    0.661540
     12          1           0       -0.457011    2.120825   -0.932486
     13          1           0        1.813029    1.386663    0.120787
     14          1           0        0.482539   -1.106731    1.313679
 ---------------------------------------------------------------------

 SCF Done:  E(RHF) =  -268.995221341     A.U. after    2 cycles

 The electronic state is 1-A.
 Alpha  occ. eigenvalues --  -20.46390 -11.33866 -11.30391 -11.26947 -11.26913
 Alpha  occ. eigenvalues --  -11.24792  -1.38928  -1.16721  -1.00925  -0.90609
 Alpha  occ. eigenvalues --   -0.85213  -0.77372  -0.68893  -0.64337  -0.62526
 Alpha  occ. eigenvalues --   -0.59593  -0.58926  -0.55380  -0.52445  -0.51549
 Alpha  occ. eigenvalues --   -0.47497  -0.35559  -0.33808
 Alpha virt. eigenvalues --    0.02150   0.02987   0.03502   0.03968   0.04852
 Alpha virt. eigenvalues --    0.06181   0.06503   0.06891   0.07260   0.10647
 Alpha virt. eigenvalues --    0.12048   0.12678   0.14449   0.14866   0.15078

 Mulliken charges:
               1
     1  C   -0.238349
     2  C   -0.658997
     3  C    0.042427
     4  C    0.169937
     5  C    1.334066
     6  O   -1.451967
     7  H    0.206459
     8  H    0.160236
     9  H    0.185695
    10  H   -0.025584
    11  H    0.167857
    12  H    0.051139
    13  H   -0.030106
    14  H    0.087185
 Sum of Mulliken charges =  -0.00000

 Dipole moment (field-independent basis, Debye):
    X=             -3.8141    Y=              3.2592    Z=              1.0922  Tot=              5.1345

 Test job not archived.
 1\1\GINC-SE173\SP\RHF\Aug-CC-pVDZ\C5H8O1\OHZDE\09-Apr-2025\0\\#t hf au
 g-cc-pvdz iop(5/13=1,5/36=2,99/5=2) pseudo=read geom=check guess=(read
 ,tcheck) scf=(maxcycle=1)\\title\\0,1\C,0,-1.30067595,-1.02923682,-0.0
 7274315\C,0,-0.26971805,0.00544423,-0.46196218\C,0,-0.18392228,1.23839
 965,0.45242156\C,0,1.23385636,0.85553273,0.52654388\C,0,1.26203113,-0.
 51812705,-0.11533198\O,0,2.11188734,-0.33606998,-1.05822964\H,0,-1.177
 03919,-1.33621036,0.96810948\H,0,-2.30725788,-0.61715142,-0.1819933\H,
 0,-1.21610098,-1.91805848,-0.69983134\H,0,-0.26214047,0.26369255,-1.51

 Normal termination of Gaussian 16 at Wed Apr  9 17:09:26 2025.
