 Gaussian 16, Revision C.01,

 ----------------------------------------------------------------------
 #t hf aug-cc-pvdz symm=none int=(grid=ultrafine) guess=(read,tcheck) s
 table=(opt,rrhf)
 ----------------------------------------------------------------------
 -----
 title
 -----
 Symbolic Z-matrix:
 Charge =  0 Multiplicity = 1

 SCF Done:  E(RHF) =  -343.662463799     A.U. after   15 cycles
 Normal termination of Gaussian 16 at Wed Apr  9 03:28:24 2025.
 Gaussian 16:  ES64L-G16RevC.01  3-Jul-2019

 ----------------------------------------------------------------------
 #t hf aug-cc-pvdz iop(5/13=1,5/36=2,99/5=2) pseudo=read geom=check gue
 ss=(read,tcheck) scf=(maxcycle=1)
 ----------------------------------------------------------------------
 -----
 title
 -----
 Structure from the checkpoint file:  "Grambow2020_wb97xd3_006678_reverse_mol1.chk"
 Charge =  0 Multiplicity = 1

                         Standard orientation:
 ---------------------------------------------------------------------
 Center     Atomic      Atomic             Coordinates (Angstroms)
 Number     Number       Type             X           Y           Z
 ---------------------------------------------------------------------
      1          6           0       -1.624724   -1.180849   -0.240851
      2          6           0       -0.809390    0.044988   -0.063486
      3          8           0       -1.399451    1.139146    0.270307
      4          6           0        1.039227   -0.820045    0.919448
      5          6           0        1.543605   -0.817803   -0.476296
      6          6           0        0.580290    0.304072   -0.315009
      7          8           0        0.885874    1.547116   -0.198380
      8          1           0       -2.191342   -1.395684    0.665994
      9          1           0       -2.343472   -0.994079   -1.041166
     10          1           0       -1.020959   -2.044980   -0.507901
     11          1           0       -0.542080    1.774777    0.173526
     12          1           0        1.574015   -0.243248    1.660516
     13          1           0        0.445996   -1.648962    1.278750
     14          1           0        2.551907   -0.463171   -0.646385
     15          1           0        1.260505   -1.656927   -1.101591
 ---------------------------------------------------------------------

 SCF Done:  E(RHF) =  -344.017761609     A.U. after    2 cycles

 The electronic state is 1-A.
 Alpha  occ. eigenvalues --  -20.58493 -20.47159 -11.36956 -11.31648 -11.27512
 Alpha  occ. eigenvalues --  -11.27507 -11.26358  -1.53739  -1.39763  -1.15284
 Alpha  occ. eigenvalues --   -1.05050  -0.91684  -0.85847  -0.78581  -0.73033
 Alpha  occ. eigenvalues --   -0.68622  -0.64908  -0.63327  -0.62040  -0.59770
 Alpha  occ. eigenvalues --   -0.56962  -0.55302  -0.53114  -0.51735  -0.47761
 Alpha  occ. eigenvalues --   -0.40342  -0.32154
 Alpha virt. eigenvalues --    0.02648   0.03547   0.03701   0.04843   0.05947
 Alpha virt. eigenvalues --    0.06681   0.07185   0.07602   0.08772   0.10855
 Alpha virt. eigenvalues --    0.12049   0.12822   0.13490   0.14143   0.14589

 Mulliken charges:
               1
     1  C   -0.480317
     2  C    1.211047
     3  O   -1.604696
     4  C    0.074765
     5  C    0.314324
     6  C    1.479261
     7  O   -1.797998
     8  H    0.262983
     9  H    0.209972
    10  H    0.119705
    11  H    0.374945
    12  H   -0.047184
    13  H   -0.085078
    14  H   -0.017336
    15  H   -0.014393
 Sum of Mulliken charges =  -0.00000

 Dipole moment (field-independent basis, Debye):
    X=             -1.3461    Y=             -4.8092    Z=             -0.0013  Tot=              4.9941

 Test job not archived.
 1\1\GINC-SE108\SP\RHF\Aug-CC-pVDZ\C5H8O2\OHZDE\09-Apr-2025\0\\#t hf au
 g-cc-pvdz iop(5/13=1,5/36=2,99/5=2) pseudo=read geom=check guess=(read
 ,tcheck) scf=(maxcycle=1)\\title\\0,1\C,0,-1.63005757,-0.76776564,-0.0
 1709734\C,0,-0.71964165,0.29253083,-0.51289693\O,0,-1.2284982,1.341421
 88,-1.05848325\C,0,0.86569705,0.2737754,1.10518023\C,0,1.5601368,-0.61
 608892,0.14164589\C,0,0.71151665,0.34053274,-0.61816506\O,0,1.1308774,
 1.37115946,-1.26166106\H,0,-2.33952923,-0.35509972,0.70118807\H,0,-2.2
 0341341,-1.14345426,-0.86686697\H,0,-1.09215672,-1.59729323,0.43580189

 Normal termination of Gaussian 16 at Wed Apr  9 03:28:30 2025.
