 Gaussian 16, Revision C.01,

 ----------------------------------------------------------------------
 #t hf aug-cc-pvdz symm=none int=(grid=ultrafine) guess=(read,tcheck) s
 table=(opt,rrhf)
 ----------------------------------------------------------------------
 -----
 title
 -----
 Symbolic Z-matrix:
 Charge =  0 Multiplicity = 1

 SCF Done:  E(RHF) =  -394.272016837     A.U. after   16 cycles
 Normal termination of Gaussian 16 at Wed Apr  9 18:13:53 2025.
 Gaussian 16:  ES64L-G16RevC.01  3-Jul-2019

 ----------------------------------------------------------------------
 #t hf aug-cc-pvdz iop(5/13=1,5/36=2,99/5=2) pseudo=read geom=check gue
 ss=(read,tcheck) scf=(maxcycle=1)
 ----------------------------------------------------------------------
 -----
 title
 -----
 Structure from the checkpoint file:  "Grambow2020_wb97xd3_007208_reverse_mol1.chk"
 Charge =  0 Multiplicity = 1

                         Standard orientation:
 ---------------------------------------------------------------------
 Center     Atomic      Atomic             Coordinates (Angstroms)
 Number     Number       Type             X           Y           Z
 ---------------------------------------------------------------------
      1          7           0        1.226769   -1.604522    0.345783
      2          6           0        0.647449   -0.573380   -0.053698
      3          8           0       -0.490860   -0.581216   -0.864096
      4          6           0       -1.613088   -0.065678   -0.384132
      5          8           0       -1.661309    0.244959    0.852236
      6          6           0        1.260985    0.780307    0.204579
      7          8           0        0.823064    1.795004   -0.247140
      8          1           0        0.729272   -2.454353    0.086657
      9          1           0       -2.619606    0.442751    0.128682
     10          1           0        2.163720    0.725788    0.835682
 ---------------------------------------------------------------------

 SCF Done:  E(RHF) =  -394.652191591     A.U. after    2 cycles

 The electronic state is 1-A.
 Alpha  occ. eigenvalues --  -20.64226 -20.60624 -20.58450 -15.54836 -11.40443
 Alpha  occ. eigenvalues --  -11.38787 -11.37477  -1.60903  -1.52434  -1.51425
 Alpha  occ. eigenvalues --   -1.27446  -0.98581  -0.90874  -0.80014  -0.79065
 Alpha  occ. eigenvalues --   -0.77228  -0.73601  -0.67914  -0.63724  -0.61186
 Alpha  occ. eigenvalues --   -0.57488  -0.55887  -0.52510  -0.50128  -0.45991
 Alpha  occ. eigenvalues --   -0.40621
 Alpha virt. eigenvalues --    0.03332   0.04027   0.04407   0.05150   0.08610
 Alpha virt. eigenvalues --    0.08721   0.10079   0.10587   0.11174   0.12498
 Alpha virt. eigenvalues --    0.12941   0.14023   0.14626   0.16349   0.17121

 Mulliken charges:
               1
     1  N    0.751284
     2  C   -0.142849
     3  O   -1.268877
     4  C    0.498326
     5  O   -0.966604
     6  C    1.081836
     7  O   -1.075520
     8  H    0.188087
     9  H    0.750474
    10  H    0.183843
 Sum of Mulliken charges =   0.00000

 Dipole moment (field-independent basis, Debye):
    X=             -0.5330    Y=             -1.3554    Z=              0.1471  Tot=              1.4639

 Test job not archived.
 1\1\GINC-SE229\SP\RHF\Aug-CC-pVDZ\C3H3N1O3\OHZDE\09-Apr-2025\0\\#t hf
 aug-cc-pvdz iop(5/13=1,5/36=2,99/5=2) pseudo=read geom=check guess=(re
 ad,tcheck) scf=(maxcycle=1)\\title\\0,1\N,0,-0.86243332,1.56021792,-0.
 67416086\C,0,-0.51017533,0.39368341,-0.40293581\O,0,0.57121435,-0.2555
 015,-1.00435837\C,0,1.59388167,-0.61860087,-0.24419315\O,0,1.63662511,
 -0.20075838,0.96038494\C,0,-1.3599891,-0.45390732,0.5108519\O,0,-1.145
 53008,-1.60968322,0.71971592\H,0,-0.22312658,2.01828197,-1.3209425\H,0
 ,2.50593523,-0.93650206,0.53147043\H,0,-2.20644394,0.10403605,0.944910

 Normal termination of Gaussian 16 at Wed Apr  9 18:13:56 2025.
