 Gaussian 16, Revision C.01,

 ----------------------------------------------------------------------
 #t hf aug-cc-pvdz symm=none int=(grid=ultrafine) guess=(read,tcheck) s
 table=(opt,rrhf)
 ----------------------------------------------------------------------
 -----
 title
 -----
 Symbolic Z-matrix:
 Charge =  0 Multiplicity = 1

 SCF Done:  E(RHF) =  -245.595357829     A.U. after   15 cycles
 Normal termination of Gaussian 16 at Wed Apr  9 16:18:37 2025.
 Gaussian 16:  ES64L-G16RevC.01  3-Jul-2019

 ----------------------------------------------------------------------
 #t hf aug-cc-pvdz iop(5/13=1,5/36=2,99/5=2) pseudo=read geom=check gue
 ss=(read,tcheck) scf=(maxcycle=1)
 ----------------------------------------------------------------------
 -----
 title
 -----
 Structure from the checkpoint file:  "Grambow2020_b97d3_007198_forward_mol1.chk"
 Charge =  0 Multiplicity = 1

                         Standard orientation:
 ---------------------------------------------------------------------
 Center     Atomic      Atomic             Coordinates (Angstroms)
 Number     Number       Type             X           Y           Z
 ---------------------------------------------------------------------
      1          8           0       -1.715591    0.204299   -0.192656
      2          6           0       -0.824466   -0.502802    0.447763
      3          6           0        0.382181   -0.612727   -0.363342
      4          6           0        0.599846    0.873912   -0.000224
      5          7           0        1.702641   -0.084196   -0.045800
      6          1           0       -0.957980   -0.759758    1.502377
      7          1           0        0.219916   -0.765597   -1.430920
      8          1           0       -0.801705    1.000662   -0.627497
      9          1           0        0.373319    1.246331    1.013371
     10          1           0        2.027319   -0.316957    0.899331
 ---------------------------------------------------------------------

 SCF Done:  E(RHF) =  -245.848286006     A.U. after    2 cycles

 The electronic state is 1-A.
 Alpha  occ. eigenvalues --  -20.56936 -15.54636 -11.38138 -11.30618 -11.29136
 Alpha  occ. eigenvalues --   -1.48628  -1.29685  -1.00960  -0.87327  -0.84563
 Alpha  occ. eigenvalues --   -0.75345  -0.66833  -0.64689  -0.62394  -0.59068
 Alpha  occ. eigenvalues --   -0.51459  -0.47736  -0.43573  -0.33913
 Alpha virt. eigenvalues --    0.02786   0.04107   0.04719   0.05457   0.07186
 Alpha virt. eigenvalues --    0.07465   0.10465   0.10821   0.11027   0.11738
 Alpha virt. eigenvalues --    0.13083   0.14801   0.15113   0.16336   0.16753

 Mulliken charges:
               1
     1  O   -1.350245
     2  C    1.152002
     3  C   -0.477851
     4  C   -0.876868
     5  N    0.325399
     6  H    0.041495
     7  H    0.033618
     8  H    0.808483
     9  H    0.063217
    10  H    0.280750
 Sum of Mulliken charges =  -0.00000

 Dipole moment (field-independent basis, Debye):
    X=              0.0912    Y=             -1.3085    Z=              2.5984  Tot=              2.9107

 Test job not archived.
 1\1\GINC-SE114\SP\RHF\Aug-CC-pVDZ\C3H5N1O1\OHZDE\09-Apr-2025\0\\#t hf
 aug-cc-pvdz iop(5/13=1,5/36=2,99/5=2) pseudo=read geom=check guess=(re
 ad,tcheck) scf=(maxcycle=1)\\title\\0,1\O,0,0.61999296,-1.68638066,-0.
 30550282\C,0,0.98868403,-0.52026989,0.15109936\C,0,0.29594345,0.530384
 36,-0.58524823\C,0,-0.95119908,0.07830291,0.2082166\N,0,-0.66419335,1.
 48777124,-0.05107407\H,0,1.56707337,-0.43196332,1.07507514\H,0,0.19443
 134,0.36509873,-1.65846656\H,0,-0.59357044,-1.27532041,-0.4349694\H,0,
 -0.87137825,-0.20552762,1.27144494\H,0,-0.34769103,1.96196366,0.802057

 Normal termination of Gaussian 16 at Wed Apr  9 16:18:40 2025.
