 Gaussian 16, Revision C.01,

 ----------------------------------------------------------------------
 #t hf aug-cc-pvdz symm=none int=(grid=ultrafine) guess=(read,tcheck) s
 table=(opt,rrhf)
 ----------------------------------------------------------------------
 -----
 title
 -----
 Symbolic Z-matrix:
 Charge =  0 Multiplicity = 1

 SCF Done:  E(RHF) =  -344.823293235     A.U. after   13 cycles

 1\1\GINC-SE455\Stability\RHF\Aug-CC-pVDZ\C5H10O2\OHZDE\09-Apr-2025\0\\
 #t hf aug-cc-pvdz symm=none int=(grid=ultrafine) guess=(read,tcheck) s
 table=(opt,rrhf)\\title\\0,1\C,0,2.38069959,1.50867582,-0.16099605\O,0
 ,1.45917872,1.43042124,0.90297417\C,0,-0.60477214,-0.56602341,-0.58462
 261\C,0,-0.29617431,-1.65879224,0.42368591\O,0,-1.70232642,-1.95620927
 ,0.58743523\C,0,-2.02836329,-1.00322576,-0.41152896\C,0,-1.64019528,0.
 36669433,0.0116931\H,0,3.32791162,1.85159164,0.2543422\H,0,2.54822001,
 0.53452537,-0.63637218\H,0,2.06647798,2.22445401,-0.9295852\H,0,-0.048

 Normal termination of Gaussian 16 at Wed Apr  9 03:27:25 2025.
 Gaussian 16:  ES64L-G16RevC.01  3-Jul-2019

 ----------------------------------------------------------------------
 #t hf aug-cc-pvdz iop(5/13=1,5/36=2,99/5=2) pseudo=read geom=check gue
 ss=(read,tcheck) scf=(maxcycle=1)
 ----------------------------------------------------------------------
 -----
 title
 -----
 Structure from the checkpoint file:  "Grambow2020_wb97xd3_006664_reverse_mol2.chk"
 Charge =  0 Multiplicity = 1

                         Standard orientation:
 ---------------------------------------------------------------------
 Center     Atomic      Atomic             Coordinates (Angstroms)
 Number     Number       Type             X           Y           Z
 ---------------------------------------------------------------------
      1          6           0       -3.085565   -0.131825    0.427290
      2          8           0       -2.343535    0.027991   -0.760653
      3          6           0        0.557493    0.129967    0.664922
      4          6           0        0.947164   -1.176889   -0.003168
      5          8           0        2.236130   -0.641349   -0.383033
      6          6           0        1.945283    0.566174    0.302317
      7          6           0        0.787915    1.263695   -0.314477
      8          1           0       -4.058166   -0.537736    0.150537
      9          1           0       -2.607834   -0.832382    1.122996
     10          1           0       -3.248544    0.820449    0.945378
     11          1           0        0.012061    0.241934    1.590427
     12          1           0        0.355175   -1.500202   -0.863081
     13          1           0        1.074667   -2.001210    0.701191
     14          1           0        2.731673    1.040920    0.873404
     15          1           0        0.572411    2.251013    0.075034
     16          1           0        0.598551    1.124300   -1.374240
     17          1           0       -1.484491    0.393043   -0.533454
 ---------------------------------------------------------------------

 SCF Done:  E(RHF) =  -345.185365290     A.U. after    2 cycles

 The electronic state is 1-A.
 Alpha  occ. eigenvalues --  -20.54927 -20.54316 -11.30440 -11.29846 -11.28173
 Alpha  occ. eigenvalues --  -11.25625 -11.25363  -1.48568  -1.44564  -1.14662
 Alpha  occ. eigenvalues --   -0.96507  -0.92840  -0.84509  -0.77049  -0.73681
 Alpha  occ. eigenvalues --   -0.69443  -0.66164  -0.65350  -0.62211  -0.59628
 Alpha  occ. eigenvalues --   -0.57884  -0.55774  -0.52365  -0.49998  -0.49157
 Alpha  occ. eigenvalues --   -0.44115  -0.42361  -0.39279
 Alpha virt. eigenvalues --    0.02936   0.03538   0.03851   0.04656   0.05538
 Alpha virt. eigenvalues --    0.06536   0.06798   0.07283   0.07643   0.09373
 Alpha virt. eigenvalues --    0.11722   0.12204   0.12930   0.13631   0.13903

 Mulliken charges:
               1
     1  C    0.382768
     2  O   -1.174045
     3  C   -0.050532
     4  C    0.505955
     5  O   -1.406814
     6  C    1.374417
     7  C    0.046567
     8  H   -0.012852
     9  H    0.106479
    10  H    0.110192
    11  H   -0.321589
    12  H    0.062166
    13  H    0.038615
    14  H   -0.139570
    15  H   -0.103223
    16  H   -0.079962
    17  H    0.661428
 Sum of Mulliken charges =  -0.00000

 Dipole moment (field-independent basis, Debye):
    X=             -0.4542    Y=              1.0373    Z=              2.6502  Tot=              2.8820

 Test job not archived.
 1\1\GINC-SE455\SP\RHF\Aug-CC-pVDZ\C5H10O2\OHZDE\09-Apr-2025\0\\#t hf a
 ug-cc-pvdz iop(5/13=1,5/36=2,99/5=2) pseudo=read geom=check guess=(rea
 d,tcheck) scf=(maxcycle=1)\\title\\0,1\C,0,2.38069959,1.50867582,-0.16
 099605\O,0,1.45917872,1.43042124,0.90297417\C,0,-0.60477214,-0.5660234
 1,-0.58462261\C,0,-0.29617431,-1.65879224,0.42368591\O,0,-1.70232642,-
 1.95620927,0.58743523\C,0,-2.02836329,-1.00322576,-0.41152896\C,0,-1.6
 4019528,0.36669433,0.0116931\H,0,3.32791162,1.85159164,0.2543422\H,0,2
 .54822001,0.53452537,-0.63637218\H,0,2.06647798,2.22445401,-0.9295852\

 Normal termination of Gaussian 16 at Wed Apr  9 03:27:30 2025.
