 Gaussian 16, Revision C.01,

 ----------------------------------------------------------------------
 #t hf aug-cc-pvdz symm=none int=(grid=ultrafine) guess=(read,tcheck) s
 table=(opt,rrhf)
 ----------------------------------------------------------------------
 -----
 title
 -----
 Symbolic Z-matrix:
 Charge =  0 Multiplicity = 1

 SCF Done:  E(RHF) =  -360.780364638     A.U. after   15 cycles
 Normal termination of Gaussian 16 at Wed Apr  9 03:58:44 2025.
 Gaussian 16:  ES64L-G16RevC.01  3-Jul-2019

 ----------------------------------------------------------------------
 #t hf aug-cc-pvdz iop(5/13=1,5/36=2,99/5=2) pseudo=read geom=check gue
 ss=(read,tcheck) scf=(maxcycle=1)
 ----------------------------------------------------------------------
 -----
 title
 -----
 Structure from the checkpoint file:  "Grambow2020_wb97xd3_008685_reverse_mol1.chk"
 Charge =  0 Multiplicity = 1

                         Standard orientation:
 ---------------------------------------------------------------------
 Center     Atomic      Atomic             Coordinates (Angstroms)
 Number     Number       Type             X           Y           Z
 ---------------------------------------------------------------------
      1          6           0        2.331041   -0.435396   -0.733224
      2          7           0        1.877720   -0.030809    0.582843
      3          6           0        0.499082   -0.287196    0.873568
      4          6           0       -0.445122    0.478729   -0.060816
      5          8           0       -0.538978    1.621446   -0.328679
      6          8           0       -2.007728   -0.340851    0.610632
      7          6           0       -1.995148   -0.710874   -0.623062
      8          1           0        2.154946   -1.505921   -0.863132
      9          1           0        3.404872   -0.266015   -0.812892
     10          1           0        1.840785    0.095584   -1.561739
     11          1           0        2.114583    0.932222    0.772896
     12          1           0        0.264042    0.049527    1.882391
     13          1           0        0.278167   -1.351269    0.805859
     14          1           0       -1.968343   -1.785694   -0.867118
     15          1           0       -0.706295   -0.379331   -1.046768
     16          1           0       -2.492266   -0.089771   -1.383824
 ---------------------------------------------------------------------

 SCF Done:  E(RHF) =  -361.151986659     A.U. after    2 cycles

 The electronic state is 1-A.
 Alpha  occ. eigenvalues --  -20.55810 -20.52094 -15.50833 -11.41792 -11.36503
 Alpha  occ. eigenvalues --  -11.30129 -11.27015  -1.52309  -1.44671  -1.23678
 Alpha  occ. eigenvalues --   -1.01987  -0.94029  -0.91366  -0.80675  -0.73181
 Alpha  occ. eigenvalues --   -0.69908  -0.69366  -0.66536  -0.65340  -0.61387
 Alpha  occ. eigenvalues --   -0.60475  -0.58784  -0.55392  -0.55018  -0.47994
 Alpha  occ. eigenvalues --   -0.42968  -0.41514  -0.39113
 Alpha virt. eigenvalues --    0.02935   0.03680   0.04236   0.04668   0.05821
 Alpha virt. eigenvalues --    0.06451   0.06846   0.07183   0.08636   0.10052
 Alpha virt. eigenvalues --    0.10659   0.12324   0.13019   0.14044   0.14221

 Mulliken charges:
               1
     1  C   -0.345340
     2  N    0.328970
     3  C   -0.672170
     4  C    1.037138
     5  O   -1.296750
     6  O   -1.120010
     7  C    0.494589
     8  H    0.146996
     9  H    0.019341
    10  H    0.125110
    11  H    0.288010
    12  H    0.162138
    13  H    0.084096
    14  H    0.063059
    15  H    0.582352
    16  H    0.102472
 Sum of Mulliken charges =  -0.00000

 Dipole moment (field-independent basis, Debye):
    X=              1.5783    Y=             -2.2365    Z=             -2.1689  Tot=              3.4924

 Test job not archived.
 1\1\GINC-SE453\SP\RHF\Aug-CC-pVDZ\C4H9N1O2\OHZDE\09-Apr-2025\0\\#t hf
 aug-cc-pvdz iop(5/13=1,5/36=2,99/5=2) pseudo=read geom=check guess=(re
 ad,tcheck) scf=(maxcycle=1)\\title\\0,1\C,0,-1.96801816,0.66964414,-0.
 32862178\N,0,-1.67735468,-0.44112816,0.5562077\C,0,-0.3255263,-0.53148
 167,1.02020617\C,0,0.67071305,-0.7413973,-0.12638836\O,0,0.73276276,-1
 .54560405,-0.98415441\O,0,2.19441875,-0.59693171,0.97893587\C,0,2.3309
 8509,0.39462599,0.16823344\H,0,-1.72386794,1.60752096,0.17604298\H,0,-
 3.03484063,0.68357374,-0.55188481\H,0,-1.42152974,0.64121325,-1.282178

 Normal termination of Gaussian 16 at Wed Apr  9 03:58:49 2025.
