 Gaussian 16, Revision C.01,

 ----------------------------------------------------------------------
 #t hf aug-cc-pvdz symm=none int=(grid=ultrafine) guess=(read,tcheck) s
 table=(opt,rrhf)
 ----------------------------------------------------------------------
 -----
 title
 -----
 Symbolic Z-matrix:
 Charge =  0 Multiplicity = 1

 SCF Done:  E(RHF) =  -308.926096709     A.U. after   15 cycles

 1\1\GINC-SE051\Stability\RHF\Aug-CC-pVDZ\C6H12O1\OHZDE\09-Apr-2025\0\\
 #t hf aug-cc-pvdz symm=none int=(grid=ultrafine) guess=(read,tcheck) s
 table=(opt,rrhf)\\title\\0,1\C,0,1.76364718,-0.50457547,-1.1221355\C,0
 ,1.15457017,0.18312033,0.02914721\O,0,0.5911857,2.02400124,-0.35318036
 \C,0,-0.56833673,1.54766304,0.35265948\C,0,-0.3381512,0.03038224,0.301
 61293\C,0,-0.58025604,-0.70824699,1.61618877\C,0,-1.16612379,-0.594813
 8,-0.82079498\H,0,2.75362131,-0.12092482,-1.36512222\H,0,1.90104467,-1
 .53500535,-0.76000673\H,0,1.14759878,-0.56320793,-2.02412683\H,0,1.368

 Normal termination of Gaussian 16 at Wed Apr  9 17:20:55 2025.
 Gaussian 16:  ES64L-G16RevC.01  3-Jul-2019

 ----------------------------------------------------------------------
 #t hf aug-cc-pvdz iop(5/13=1,5/36=2,99/5=2) pseudo=read geom=check gue
 ss=(read,tcheck) scf=(maxcycle=1)
 ----------------------------------------------------------------------
 -----
 title
 -----
 Structure from the checkpoint file:  "Grambow2020_wb97xd3_006572_reverse_mol1.chk"
 Charge =  0 Multiplicity = 1

                         Standard orientation:
 ---------------------------------------------------------------------
 Center     Atomic      Atomic             Coordinates (Angstroms)
 Number     Number       Type             X           Y           Z
 ---------------------------------------------------------------------
      1          6           0       -1.799505   -1.146969   -0.162855
      2          6           0       -0.802428   -0.188952   -0.670192
      3          8           0       -0.956337    1.605075    0.110960
      4          6           0        0.466808    1.413877    0.198731
      5          6           0        0.570990   -0.103404   -0.012780
      6          6           0        1.666790   -0.551338   -0.977598
      7          6           0        0.719355   -0.817789    1.330294
      8          1           0       -2.804712   -0.939874   -0.527477
      9          1           0       -1.487488   -2.101896   -0.612923
     10          1           0       -1.811964   -1.294428    0.920955
     11          1           0       -1.118642    1.119257   -0.878626
     12          1           0        0.811065    1.750428    1.177310
     13          1           0        0.983522    1.990574   -0.576111
     14          1           0        1.583509   -0.031529   -1.932607
     15          1           0        1.603369   -1.625829   -1.168922
     16          1           0        2.655519   -0.351727   -0.556870
     17          1           0        0.628338   -1.902316    1.229775
     18          1           0       -0.028459   -0.477436    2.049287
     19          1           0        1.704582   -0.608374    1.754928
 ---------------------------------------------------------------------

 SCF Done:  E(RHF) =  -309.257372479     A.U. after    2 cycles

 The electronic state is 1-A.
 Alpha  occ. eigenvalues --  -20.54001 -11.28111 -11.27758 -11.24793 -11.23994
 Alpha  occ. eigenvalues --  -11.23140 -11.22838  -1.43393  -1.11135  -1.01983
 Alpha  occ. eigenvalues --   -0.94468  -0.91727  -0.86055  -0.70951  -0.67979
 Alpha  occ. eigenvalues --   -0.64638  -0.64054  -0.59275  -0.58504  -0.57565
 Alpha  occ. eigenvalues --   -0.56218  -0.54603  -0.53936  -0.50424  -0.48978
 Alpha  occ. eigenvalues --   -0.47048  -0.42207  -0.33551
 Alpha virt. eigenvalues --    0.03411   0.03535   0.03947   0.04450   0.05911
 Alpha virt. eigenvalues --    0.06009   0.06168   0.06488   0.07291   0.09555
 Alpha virt. eigenvalues --    0.09690   0.09949   0.10490   0.12821   0.13421

 Mulliken charges:
               1
     1  C   -0.293783
     2  C   -0.297889
     3  O   -1.380657
     4  C    1.015637
     5  C   -1.569163
     6  C   -0.105636
     7  C   -0.018088
     8  H    0.105058
     9  H    0.315988
    10  H    0.232433
    11  H    0.722131
    12  H    0.040838
    13  H    0.083243
    14  H    0.186317
    15  H    0.194628
    16  H    0.211024
    17  H    0.199028
    18  H    0.239601
    19  H    0.119292
 Sum of Mulliken charges =  -0.00000

 Dipole moment (field-independent basis, Debye):
    X=              1.2860    Y=             -1.8420    Z=              0.2892  Tot=              2.2651

 Test job not archived.
 1\1\GINC-SE051\SP\RHF\Aug-CC-pVDZ\C6H12O1\OHZDE\09-Apr-2025\0\\#t hf a
 ug-cc-pvdz iop(5/13=1,5/36=2,99/5=2) pseudo=read geom=check guess=(rea
 d,tcheck) scf=(maxcycle=1)\\title\\0,1\C,0,1.76364718,-0.50457547,-1.1
 221355\C,0,1.15457017,0.18312033,0.02914721\O,0,0.5911857,2.02400124,-
 0.35318036\C,0,-0.56833673,1.54766304,0.35265948\C,0,-0.3381512,0.0303
 8224,0.30161293\C,0,-0.58025604,-0.70824699,1.61618877\C,0,-1.16612379
 ,-0.5948138,-0.82079498\H,0,2.75362131,-0.12092482,-1.36512222\H,0,1.9
 0104467,-1.53500535,-0.76000673\H,0,1.14759878,-0.56320793,-2.02412683

 Normal termination of Gaussian 16 at Wed Apr  9 17:21:03 2025.
