 Gaussian 16, Revision C.01,

 ----------------------------------------------------------------------
 #t hf aug-cc-pvdz symm=none int=(grid=ultrafine) guess=(read,tcheck) s
 table=(opt,rrhf)
 ----------------------------------------------------------------------
 -----
 title
 -----
 Symbolic Z-matrix:
 Charge =  0 Multiplicity = 1

 SCF Done:  E(RHF) =  -286.797104624     A.U. after   13 cycles
 Normal termination of Gaussian 16 at Wed Apr  9 19:20:08 2025.
 Gaussian 16:  ES64L-G16RevC.01  3-Jul-2019

 ----------------------------------------------------------------------
 #t hf aug-cc-pvdz iop(5/13=1,5/36=2,99/5=2) pseudo=read geom=check gue
 ss=(read,tcheck) scf=(maxcycle=1)
 ----------------------------------------------------------------------
 -----
 title
 -----
 Structure from the checkpoint file:  "Grambow2020_wb97xd3_009353_forward_mol2.chk"
 Charge =  0 Multiplicity = 1

                         Standard orientation:
 ---------------------------------------------------------------------
 Center     Atomic      Atomic             Coordinates (Angstroms)
 Number     Number       Type             X           Y           Z
 ---------------------------------------------------------------------
      1          6           0       -2.034135    0.118588   -0.262477
      2          7           0       -0.891063   -0.427776    0.439726
      3          6           0        0.143750   -1.094769   -0.325346
      4          6           0        1.151958   -0.044975   -0.834936
      5          6           0        0.675056    1.294030   -0.300695
      6          6           0        0.169901    0.487611    0.921751
      7          6           0        1.226072   -0.611447    0.563557
      8          1           0       -1.784261    0.670916   -1.178008
      9          1           0       -2.581070    0.784814    0.408161
     10          1           0       -2.703775   -0.698976   -0.536588
     11          1           0        0.015502   -2.060183   -0.796239
     12          1           0        1.813510   -0.244783   -1.666303
     13          1           0       -0.042696    1.888633   -0.870591
     14          1           0        1.521275    1.918315   -0.013143
     15          1           0        0.004218    0.961475    1.886444
     16          1           0        1.999122   -1.120007    1.117064
 ---------------------------------------------------------------------

 SCF Done:  E(RHF) =  -287.103794609     A.U. after    2 cycles

 The electronic state is 1-A.
 Alpha  occ. eigenvalues --  -15.48637 -11.26747 -11.26054 -11.24264 -11.23722
 Alpha  occ. eigenvalues --  -11.23409 -11.23054  -1.29981  -1.11465  -0.98236
 Alpha  occ. eigenvalues --   -0.94165  -0.85722  -0.76474  -0.73212  -0.72475
 Alpha  occ. eigenvalues --   -0.65128  -0.63793  -0.61602  -0.57058  -0.55217
 Alpha  occ. eigenvalues --   -0.50011  -0.49556  -0.47051  -0.44390  -0.39549
 Alpha  occ. eigenvalues --   -0.36634
 Alpha virt. eigenvalues --    0.03623   0.03877   0.04081   0.04122   0.05430
 Alpha virt. eigenvalues --    0.05683   0.05991   0.06556   0.08964   0.11643
 Alpha virt. eigenvalues --    0.12051   0.12503   0.12984   0.13547   0.13875

 Mulliken charges:
               1
     1  C   -0.290530
     2  N    0.841685
     3  C   -0.251762
     4  C    0.329741
     5  C    0.115841
     6  C   -0.591463
     7  C    0.682681
     8  H    0.163178
     9  H    0.071033
    10  H    0.055872
    11  H   -0.336985
    12  H   -0.248072
    13  H   -0.049725
    14  H    0.058905
    15  H   -0.247876
    16  H   -0.302523
 Sum of Mulliken charges =   0.00000

 Dipole moment (field-independent basis, Debye):
    X=              0.7770    Y=              0.5855    Z=             -0.7085  Tot=              1.2036

 Test job not archived.
 1\1\GINC-SE162\SP\RHF\Aug-CC-pVDZ\C6H9N1\OHZDE\09-Apr-2025\0\\#t hf au
 g-cc-pvdz iop(5/13=1,5/36=2,99/5=2) pseudo=read geom=check guess=(read
 ,tcheck) scf=(maxcycle=1)\\title\\0,1\C,0,1.9157032,0.41058093,0.02845
 791\N,0,0.89634216,-0.54048345,-0.36472698\C,0,0.0073238,-1.06940712,0
 .6506233\C,0,-1.18117373,-0.10410574,0.83474655\C,0,-0.96713746,1.0248
 4397,-0.1579481\C,0,-0.3192779,-0.05545641,-1.05966703\C,0,-1.14770321
 ,-1.12805523,-0.27546651\H,0,1.56641001,1.19494119,0.71291008\H,0,2.32
 590907,0.88539485,-0.86542851\H,0,2.72838429,-0.12665891,0.52129389\H,

 Normal termination of Gaussian 16 at Wed Apr  9 19:20:14 2025.
