 Gaussian 16, Revision C.01,

 ----------------------------------------------------------------------
 #t hf aug-cc-pvdz symm=none int=(grid=ultrafine) guess=(read,tcheck) s
 table=(opt,rrhf)
 ----------------------------------------------------------------------
 -----
 title
 -----
 Symbolic Z-matrix:
 Charge =  0 Multiplicity = 1

 SCF Done:  E(RHF) =  -269.845546465     A.U. after   15 cycles

 1\1\GINC-SE044\Stability\RHF\Aug-CC-pVDZ\C5H10O1\OHZDE\09-Apr-2025\0\\
 #t hf aug-cc-pvdz symm=none int=(grid=ultrafine) guess=(read,tcheck) s
 table=(opt,rrhf)\\title\\0,1\C,0,-0.93752875,0.86196366,0.50343263\C,0
 ,-0.93460534,-0.20327256,-0.60340026\C,0,0.30762285,-1.1228272,-0.4993
 2563\C,0,1.50540373,-0.40016714,0.17307877\C,0,1.69312037,1.01495471,-
 0.26724727\O,0,0.74786383,1.80809415,-0.3523192\H,0,-2.45068139,0.1442
 3188,1.58595946\H,0,-1.61416742,0.36438086,1.60431775\H,0,-1.59693436,
 1.70154594,0.21506129\H,0,-1.85273465,-0.80616734,-0.5476703\H,0,-0.96

 Normal termination of Gaussian 16 at Wed Apr  9 03:09:45 2025.
 Gaussian 16:  ES64L-G16RevC.01  3-Jul-2019

 ----------------------------------------------------------------------
 #t hf aug-cc-pvdz iop(5/13=1,5/36=2,99/5=2) pseudo=read geom=check gue
 ss=(read,tcheck) scf=(maxcycle=1)
 ----------------------------------------------------------------------
 -----
 title
 -----
 Structure from the checkpoint file:  "Grambow2020_b97d3_006646_forward_mol1.chk"
 Charge =  0 Multiplicity = 1

                         Standard orientation:
 ---------------------------------------------------------------------
 Center     Atomic      Atomic             Coordinates (Angstroms)
 Number     Number       Type             X           Y           Z
 ---------------------------------------------------------------------
      1          6           0        1.121637   -0.914653    0.412055
      2          6           0        1.263905    0.260700   -0.566782
      3          6           0        0.287526    1.410594   -0.214686
      4          6           0       -0.977187    0.889128    0.518538
      5          6           0       -1.532303   -0.378930   -0.043218
      6          8           0       -0.811803   -1.343424   -0.326854
      7          1           0        2.856327   -0.698239    1.371560
      8          1           0        1.997109   -0.728203    1.468540
      9          1           0        1.535453   -1.834047   -0.042196
     10          1           0        2.298848    0.632716   -0.560007
     11          1           0        1.085172   -0.079232   -1.596896
     12          1           0        0.773101    2.138784    0.450839
     13          1           0       -0.006230    1.954164   -1.124431
     14          1           0       -1.750407    1.661510    0.617900
     15          1           0       -0.644006    0.589954    1.531913
     16          1           0       -2.632413   -0.491045   -0.137834
 ---------------------------------------------------------------------

 SCF Done:  E(RHF) =  -270.130227331     A.U. after    2 cycles

 The electronic state is 1-A.
 Alpha  occ. eigenvalues --  -20.56634 -11.36062 -11.26040 -11.25598 -11.24759
 Alpha  occ. eigenvalues --  -11.23519  -1.48296  -1.09206  -1.01012  -0.89756
 Alpha  occ. eigenvalues --   -0.82855  -0.75272  -0.70024  -0.66991  -0.62417
 Alpha  occ. eigenvalues --   -0.60189  -0.58485  -0.56475  -0.53063  -0.50507
 Alpha  occ. eigenvalues --   -0.48748  -0.47961  -0.43388  -0.31297
 Alpha virt. eigenvalues --    0.02831   0.03628   0.03922   0.04810   0.05995
 Alpha virt. eigenvalues --    0.06333   0.06651   0.07122   0.08020   0.09605
 Alpha virt. eigenvalues --    0.10737   0.11759   0.13365   0.14304   0.14615

 Mulliken charges:
               1
     1  C   -0.286043
     2  C   -0.423778
     3  C   -0.315781
     4  C   -0.496111
     5  C    1.065462
     6  O   -1.086209
     7  H   -0.144637
     8  H    0.346886
     9  H    0.080244
    10  H    0.156862
    11  H    0.138823
    12  H    0.173235
    13  H    0.162030
    14  H    0.054426
    15  H    0.462150
    16  H    0.112439
 Sum of Mulliken charges =  -0.00000

 Dipole moment (field-independent basis, Debye):
    X=             -2.0210    Y=              2.5536    Z=             -0.7020  Tot=              3.3314

 Test job not archived.
 1\1\GINC-SE044\SP\RHF\Aug-CC-pVDZ\C5H10O1\OHZDE\09-Apr-2025\0\\#t hf a
 ug-cc-pvdz iop(5/13=1,5/36=2,99/5=2) pseudo=read geom=check guess=(rea
 d,tcheck) scf=(maxcycle=1)\\title\\0,1\C,0,-0.93752875,0.86196366,0.50
 343263\C,0,-0.93460534,-0.20327256,-0.60340026\C,0,0.30762285,-1.12282
 72,-0.49932563\C,0,1.50540373,-0.40016714,0.17307877\C,0,1.69312037,1.
 01495471,-0.26724727\O,0,0.74786383,1.80809415,-0.3523192\H,0,-2.45068
 139,0.14423188,1.58595946\H,0,-1.61416742,0.36438086,1.60431775\H,0,-1
 .59693436,1.70154594,0.21506129\H,0,-1.85273465,-0.80616734,-0.5476703

 Normal termination of Gaussian 16 at Wed Apr  9 03:09:50 2025.
