 Gaussian 16, Revision C.01,

 ----------------------------------------------------------------------
 #t hf aug-cc-pvdz symm=none int=(grid=ultrafine) guess=(read,tcheck) s
 table=(opt,rrhf)
 ----------------------------------------------------------------------
 -----
 title
 -----
 Symbolic Z-matrix:
 Charge =  0 Multiplicity = 1

 SCF Done:  E(RHF) =  -336.213657931     A.U. after   18 cycles
 Normal termination of Gaussian 16 at Wed Apr  9 03:46:44 2025.
 Gaussian 16:  ES64L-G16RevC.01  3-Jul-2019

 ----------------------------------------------------------------------
 #t hf aug-cc-pvdz iop(5/13=1,5/36=2,99/5=2) pseudo=read geom=check gue
 ss=(read,tcheck) scf=(maxcycle=1)
 ----------------------------------------------------------------------
 -----
 title
 -----
 Structure from the checkpoint file:  "Grambow2020_wb97xd3_007919_forward_mol1.chk"
 Charge =  0 Multiplicity = 1

                         Standard orientation:
 ---------------------------------------------------------------------
 Center     Atomic      Atomic             Coordinates (Angstroms)
 Number     Number       Type             X           Y           Z
 ---------------------------------------------------------------------
      1          7           0       -1.310315    1.192493   -0.172775
      2          6           0       -1.012266   -0.106552    0.024949
      3          8           0       -1.798342   -1.015964    0.067721
      4          6           0        0.453579   -0.395237    0.193156
      5          6           0        1.287394   -1.377527   -0.109501
      6          6           0        1.986380    0.208921   -0.409145
      7          7           0        1.453003    0.921385    0.400794
      8          1           0       -0.623288    1.915048   -0.061428
      9          1           0       -2.279311    1.437890   -0.273231
 ---------------------------------------------------------------------

 SCF Done:  E(RHF) =  -336.538623262     A.U. after    2 cycles

 The electronic state is 1-A.
 Alpha  occ. eigenvalues --  -20.54779 -15.61484 -15.56255 -11.41785 -11.36429
 Alpha  occ. eigenvalues --  -11.35642 -11.34799  -1.50623  -1.38735  -1.26648
 Alpha  occ. eigenvalues --   -1.10289  -0.94720  -0.84233  -0.76754  -0.74279
 Alpha  occ. eigenvalues --   -0.69096  -0.65338  -0.64364  -0.61291  -0.59694
 Alpha  occ. eigenvalues --   -0.48585  -0.47487  -0.47006  -0.42369
 Alpha virt. eigenvalues --   -0.01603   0.02498   0.05233   0.06026   0.07915
 Alpha virt. eigenvalues --    0.08281   0.08714   0.09372   0.10080   0.10655
 Alpha virt. eigenvalues --    0.11545   0.12928   0.13018   0.14719   0.15583

 Mulliken charges:
               1
     1  N    0.600497
     2  C    0.381017
     3  O   -1.156233
     4  C    0.161783
     5  C   -0.077526
     6  C   -0.577866
     7  N    0.457967
     8  H    0.072097
     9  H    0.138264
 Sum of Mulliken charges =  -0.00000

 Dipole moment (field-independent basis, Debye):
    X=             -0.3918    Y=              3.5671    Z=             -0.5386  Tot=              3.6288

 Test job not archived.
 1\1\GINC-SE143\SP\RHF\Aug-CC-pVDZ\C4H2N2O1\OHZDE\09-Apr-2025\0\\#t hf
 aug-cc-pvdz iop(5/13=1,5/36=2,99/5=2) pseudo=read geom=check guess=(re
 ad,tcheck) scf=(maxcycle=1)\\title\\0,1\N,0,-1.18103974,0.60232988,0.3
 1025378\C,0,-0.62275829,-0.55882747,0.70456485\O,0,-1.19766209,-1.6026
 311,0.86807481\C,0,0.86063975,-0.49341607,0.94033469\C,0,1.89902428,-1
 .30241764,0.80243556\C,0,2.25723746,0.33971785,0.28256943\N,0,1.544234
 93,1.02560008,0.96761811\H,0,-0.6705804,1.46586812,0.32515596\H,0,-2.1
 7382589,0.61328835,0.15688982\\Version=ES64L-G16RevC.01\State=1-A\HF=-

 Normal termination of Gaussian 16 at Wed Apr  9 03:46:47 2025.
