 Gaussian 16, Revision C.01,

 ----------------------------------------------------------------------
 #t hf aug-cc-pvdz symm=none int=(grid=ultrafine) guess=(read,tcheck) s
 table=(opt,rrhf)
 ----------------------------------------------------------------------
 -----
 title
 -----
 Symbolic Z-matrix:
 Charge =  0 Multiplicity = 1

 SCF Done:  E(RHF) =  -321.402157760     A.U. after   18 cycles
 Normal termination of Gaussian 16 at Wed Apr  9 18:53:30 2025.
 Gaussian 16:  ES64L-G16RevC.01  3-Jul-2019

 ----------------------------------------------------------------------
 #t hf aug-cc-pvdz iop(5/13=1,5/36=2,99/5=2) pseudo=read geom=check gue
 ss=(read,tcheck) scf=(maxcycle=1)
 ----------------------------------------------------------------------
 -----
 title
 -----
 Structure from the checkpoint file:  "Grambow2020_wb97xd3_008194_reverse_mol2.chk"
 Charge =  0 Multiplicity = 1

                         Standard orientation:
 ---------------------------------------------------------------------
 Center     Atomic      Atomic             Coordinates (Angstroms)
 Number     Number       Type             X           Y           Z
 ---------------------------------------------------------------------
      1          8           0       -0.191151   -0.266494    0.687374
      2          6           0        0.600155   -1.238005    0.023255
      3          6           0        1.901036   -0.897655   -0.526295
      4          6           0        2.435204    0.320931   -0.242771
      5          6           0        2.955494    1.399186   -0.012596
      6          6           0       -3.142237    0.314828   -0.012319
      7          7           0       -4.222805    0.525282   -0.325659
      8          1           0        0.385460    0.409643    1.055433
      9          1           0        0.841194   -2.079248    0.700977
     10          1           0       -0.015101   -1.691495   -0.760449
     11          1           0       -2.121314    0.116728    0.277028
     12          1           0        3.500696    2.303636    0.131990
 ---------------------------------------------------------------------

 SCF Done:  E(RHF) =  -321.720432801     A.U. after    2 cycles

 The electronic state is 1-A.
 Alpha  occ. eigenvalues --  -20.58718 -15.51623 -11.33173 -11.30986 -11.30890
 Alpha  occ. eigenvalues --  -11.28852 -11.27327  -1.49241  -1.23446  -1.12219
 Alpha  occ. eigenvalues --   -1.04008  -0.90981  -0.79175  -0.77251  -0.73677
 Alpha  occ. eigenvalues --   -0.67074  -0.65298  -0.60771  -0.57551  -0.51325
 Alpha  occ. eigenvalues --   -0.51310  -0.50332  -0.49531  -0.46839  -0.37124
 Alpha virt. eigenvalues --   -0.00187   0.02208   0.03456   0.04328   0.04939
 Alpha virt. eigenvalues --    0.06901   0.07688   0.09016   0.09667   0.09783
 Alpha virt. eigenvalues --    0.11464   0.11722   0.12520   0.13386   0.13815

 Mulliken charges:
               1
     1  O   -1.349271
     2  C    0.786457
     3  C   -0.859054
     4  C    0.766262
     5  C    0.057120
     6  C   -0.736498
     7  N    0.708981
     8  H    0.414512
     9  H    0.257509
    10  H    0.155488
    11  H    0.086841
    12  H   -0.288347
 Sum of Mulliken charges =  -0.00000

 Dipole moment (field-independent basis, Debye):
    X=              5.6818    Y=              0.8080    Z=              1.9970  Tot=              6.0765

 Test job not archived.
 1\1\GINC-SE219\SP\RHF\Aug-CC-pVDZ\C5H5N1O1\OHZDE\09-Apr-2025\0\\#t hf
 aug-cc-pvdz iop(5/13=1,5/36=2,99/5=2) pseudo=read geom=check guess=(re
 ad,tcheck) scf=(maxcycle=1)\\title\\0,1\O,0,-0.23476416,-0.43015554,-0
 .60621988\C,0,-1.00562686,-0.41752655,0.58401699\C,0,-1.06646812,0.764
 8013,1.42576161\C,0,-0.5187293,1.92384644,0.97049073\C,0,-0.04544836,2
 .98561575,0.60311302\C,0,1.85719951,-2.60125706,-1.27436976\N,0,2.6486
 8267,-3.4049608,-1.46857345\H,0,-0.15670433,0.46884476,-0.93910694\H,0
 ,-2.07349533,-0.60721152,0.36317051\H,0,-0.69937345,-1.27632288,1.1898

 Normal termination of Gaussian 16 at Wed Apr  9 18:53:34 2025.
