 Gaussian 16, Revision C.01,

 ----------------------------------------------------------------------
 #t hf aug-cc-pvdz symm=none int=(grid=ultrafine) guess=(read,tcheck) s
 table=(opt,rrhf)
 ----------------------------------------------------------------------
 -----
 title
 -----
 Symbolic Z-matrix:
 Charge =  0 Multiplicity = 1

 SCF Done:  E(RHF) =  -323.932639338     A.U. after   13 cycles
 Normal termination of Gaussian 16 at Wed Apr  9 03:53:46 2025.
 Gaussian 16:  ES64L-G16RevC.01  3-Jul-2019

 ----------------------------------------------------------------------
 #t hf aug-cc-pvdz iop(5/13=1,5/36=2,99/5=2) pseudo=read geom=check gue
 ss=(read,tcheck) scf=(maxcycle=1)
 ----------------------------------------------------------------------
 -----
 title
 -----
 Structure from the checkpoint file:  "Grambow2020_wb97xd3_008324_reverse_mol2.chk"
 Charge =  0 Multiplicity = 1

                         Standard orientation:
 ---------------------------------------------------------------------
 Center     Atomic      Atomic             Coordinates (Angstroms)
 Number     Number       Type             X           Y           Z
 ---------------------------------------------------------------------
      1          7           0        0.842007    1.882677   -0.012169
      2          6           0        0.112229    0.862838    0.066832
      3          6           0        1.964023   -0.857617   -0.149195
      4          6           0        0.582853   -0.537941    0.390028
      5          6           0       -0.568105   -1.389133   -0.145115
      6          6           0       -1.759651   -0.459982    0.036627
      7          8           0       -1.232984    0.861642   -0.126636
      8          1           0        0.291072    2.710256   -0.226214
      9          1           0        1.971492   -0.807253   -1.239901
     10          1           0        2.692570   -0.137591    0.221799
     11          1           0        0.596752   -0.608473    1.484540
     12          1           0        2.274640   -1.859703    0.152274
     13          1           0       -0.411414   -1.602738   -1.205758
     14          1           0       -0.690504   -2.335901    0.380034
     15          1           0       -2.193868   -0.543220    1.037818
     16          1           0       -2.549012   -0.596242   -0.701379
 ---------------------------------------------------------------------

 SCF Done:  E(RHF) =  -324.271736537     A.U. after    2 cycles

 The electronic state is 1-A.
 Alpha  occ. eigenvalues --  -20.57738 -15.46727 -11.33390 -11.30237 -11.25297
 Alpha  occ. eigenvalues --  -11.24829 -11.22886  -1.51526  -1.20205  -1.10693
 Alpha  occ. eigenvalues --   -0.99991  -0.91891  -0.84383  -0.76440  -0.71620
 Alpha  occ. eigenvalues --   -0.70909  -0.65637  -0.61788  -0.59668  -0.57681
 Alpha  occ. eigenvalues --   -0.54301  -0.53561  -0.51004  -0.49491  -0.48006
 Alpha  occ. eigenvalues --   -0.45774  -0.41513
 Alpha virt. eigenvalues --    0.03222   0.03694   0.03841   0.04484   0.05990
 Alpha virt. eigenvalues --    0.06099   0.06430   0.07491   0.08841   0.11454
 Alpha virt. eigenvalues --    0.11567   0.13272   0.13601   0.13901   0.14524

 Mulliken charges:
               1
     1  N    0.821925
     2  C    0.404585
     3  C   -0.171404
     4  C   -1.372858
     5  C   -0.135847
     6  C    0.604614
     7  O   -1.589320
     8  H    0.170694
     9  H    0.251460
    10  H    0.253030
    11  H    0.188560
    12  H    0.169869
    13  H    0.104387
    14  H    0.154502
    15  H    0.099530
    16  H    0.046273
 Sum of Mulliken charges =  -0.00000

 Dipole moment (field-independent basis, Debye):
    X=             -1.9669    Y=             -3.1837    Z=              0.2502  Tot=              3.7507

 Test job not archived.
 1\1\GINC-SE229\SP\RHF\Aug-CC-pVDZ\C5H9N1O1\OHZDE\09-Apr-2025\0\\#t hf
 aug-cc-pvdz iop(5/13=1,5/36=2,99/5=2) pseudo=read geom=check guess=(re
 ad,tcheck) scf=(maxcycle=1)\\title\\0,1\N,0,2.25317879,0.47540958,0.39
 719175\C,0,1.00692598,0.59454268,0.2897215\C,0,0.51128367,-1.8345938,-
 0.24824737\C,0,0.00281145,-0.53533782,0.34671088\C,0,-1.21550418,0.090
 372,-0.33137843\C,0,-1.05444142,1.5614049,0.02394328\O,0,0.35924049,1.
 77500146,0.10519674\H,0,2.71268415,1.38097088,0.34200244\H,0,0.7294867
 5,-1.71079094,-1.31092885\H,0,1.43136824,-2.14424996,0.24613378\H,0,-0

 Normal termination of Gaussian 16 at Wed Apr  9 03:53:53 2025.
