 Gaussian 16, Revision C.01,

 ----------------------------------------------------------------------
 #t hf aug-cc-pvdz symm=none int=(grid=ultrafine) guess=(read,tcheck) s
 table=(opt,rrhf)
 ----------------------------------------------------------------------
 -----
 title
 -----
 Symbolic Z-matrix:
 Charge =  0 Multiplicity = 1

 SCF Done:  E(RHF) =  -306.620119216     A.U. after   15 cycles
 Normal termination of Gaussian 16 at Wed Apr  9 19:09:01 2025.
 Gaussian 16:  ES64L-G16RevC.01  3-Jul-2019

 ----------------------------------------------------------------------
 #t hf aug-cc-pvdz iop(5/13=1,5/36=2,99/5=2) pseudo=read geom=check gue
 ss=(read,tcheck) scf=(maxcycle=1)
 ----------------------------------------------------------------------
 -----
 title
 -----
 Structure from the checkpoint file:  "Grambow2020_wb97xd3_008784_reverse_mol2.chk"
 Charge =  0 Multiplicity = 1

                         Standard orientation:
 ---------------------------------------------------------------------
 Center     Atomic      Atomic             Coordinates (Angstroms)
 Number     Number       Type             X           Y           Z
 ---------------------------------------------------------------------
      1          8           0        0.681609   -0.431366   -1.106087
      2          6           0        0.128332   -1.093576   -0.003439
      3          6           0       -1.328631   -0.870090    0.066689
      4          6           0       -1.325272    0.723490   -0.028063
      5          6           0        0.050642    1.420072    0.194027
      6          6           0        1.229921    0.426093   -0.074573
      7          6           0        1.004505   -0.679862    0.932395
      8          1           0       -1.901671   -1.292477   -0.758456
      9          1           0       -1.743359   -1.216165    1.012679
     10          1           0       -1.681173    0.984757   -1.022830
     11          1           0       -2.051155    1.111103    0.687655
     12          1           0        0.133471    2.266012   -0.492080
     13          1           0        0.136325    1.821425    1.206250
     14          1           0        2.191966    0.886014   -0.314180
     15          1           0        0.905749   -0.666500    2.007443
 ---------------------------------------------------------------------

 SCF Done:  E(RHF) =  -306.939308579     A.U. after    2 cycles

 The electronic state is 1-A.
 Alpha  occ. eigenvalues --  -20.55127 -11.31294 -11.30259 -11.25774 -11.24761
 Alpha  occ. eigenvalues --  -11.24519 -11.22364  -1.50353  -1.10538  -1.02470
 Alpha  occ. eigenvalues --   -1.01201  -0.84980  -0.81991  -0.72561  -0.68316
 Alpha  occ. eigenvalues --   -0.66197  -0.64554  -0.63578  -0.54557  -0.53094
 Alpha  occ. eigenvalues --   -0.52392  -0.51048  -0.49273  -0.47202  -0.44126
 Alpha  occ. eigenvalues --   -0.32895
 Alpha virt. eigenvalues --    0.03404   0.03704   0.03945   0.04451   0.05993
 Alpha virt. eigenvalues --    0.06177   0.06265   0.08422   0.08994   0.10427
 Alpha virt. eigenvalues --    0.11315   0.13285   0.13624   0.14323   0.14717

 Mulliken charges:
               1
     1  O   -1.472444
     2  C    0.694870
     3  C   -0.219457
     4  C   -0.191648
     5  C   -0.301342
     6  C    0.809379
     7  C    0.090119
     8  H    0.147986
     9  H    0.110194
    10  H    0.134871
    11  H    0.159100
    12  H    0.147315
    13  H    0.129232
    14  H   -0.031269
    15  H   -0.206906
 Sum of Mulliken charges =  -0.00000

 Dipole moment (field-independent basis, Debye):
    X=             -1.6377    Y=              1.5311    Z=              1.4941  Tot=              2.6942

 Test job not archived.
 1\1\GINC-SE232\SP\RHF\Aug-CC-pVDZ\C6H8O1\OHZDE\09-Apr-2025\0\\#t hf au
 g-cc-pvdz iop(5/13=1,5/36=2,99/5=2) pseudo=read geom=check guess=(read
 ,tcheck) scf=(maxcycle=1)\\title\\0,1\O,0,0.79236074,-0.69016338,-1.30
 837076\C,0,0.50254951,-1.29744014,-0.08048872\C,0,-0.94432615,-1.24217
 411,0.20429122\C,0,-1.16695553,0.32257188,-0.02040916\C,0,0.12176304,1
 .19624248,-0.08035958\C,0,1.36937694,0.32682736,-0.45239938\C,0,1.4455
 4438,-0.68964817,0.66514661\H,0,-1.57264586,-1.81133963,-0.48048239\H,
 0,-1.16374053,-1.53674742,1.22983964\H,0,-1.6986488,0.4371058,-0.96310

 Normal termination of Gaussian 16 at Wed Apr  9 19:09:06 2025.
