 Gaussian 16, Revision C.01,

 ----------------------------------------------------------------------
 #t hf aug-cc-pvdz symm=none int=(grid=ultrafine) guess=(read,tcheck) s
 table=(opt,rrhf)
 ----------------------------------------------------------------------
 -----
 title
 -----
 Symbolic Z-matrix:
 Charge =  0 Multiplicity = 1

 SCF Done:  E(RHF) =  -233.948003803     A.U. after   14 cycles
 Normal termination of Gaussian 16 at Wed Apr  9 15:51:08 2025.
 Gaussian 16:  ES64L-G16RevC.01  3-Jul-2019

 ----------------------------------------------------------------------
 #t hf aug-cc-pvdz iop(5/13=1,5/36=2,99/5=2) pseudo=read geom=check gue
 ss=(read,tcheck) scf=(maxcycle=1)
 ----------------------------------------------------------------------
 -----
 title
 -----
 Structure from the checkpoint file:  "Grambow2020_b97d3_006829_forward_mol1.chk"
 Charge =  0 Multiplicity = 1

                         Standard orientation:
 ---------------------------------------------------------------------
 Center     Atomic      Atomic             Coordinates (Angstroms)
 Number     Number       Type             X           Y           Z
 ---------------------------------------------------------------------
      1          6           0       -1.007277    1.388736   -0.349752
      2          6           0       -0.451052   -0.013534   -0.077055
      3          6           0       -1.578795   -1.041920    0.024359
      4          6           0        0.837760   -0.416456   -0.861109
      5          6           0        1.695986    0.045874    0.196433
      6          6           0        0.547659    0.026661    1.218138
      7          1           0       -1.688800    1.694861    0.458504
      8          1           0       -0.206717    2.136191   -0.423051
      9          1           0       -1.578272    1.400092   -1.289238
     10          1           0       -2.271048   -0.774275    0.838136
     11          1           0       -1.188793   -2.047519    0.236680
     12          1           0       -2.163295   -1.084082   -0.906755
     13          1           0        0.854020   -1.456008   -1.187737
     14          1           0        2.156911   -0.280500   -1.660563
     15          1           0        2.223445    0.994298    0.116258
     16          1           0        2.753506   -0.488676   -0.763147
     17          1           0        0.420315    0.881208    1.901204
     18          1           0        0.423046   -0.911757    1.773621
 ---------------------------------------------------------------------

 SCF Done:  E(RHF) =  -234.207270537     A.U. after    2 cycles

 The electronic state is 1-A.
 Alpha  occ. eigenvalues --  -11.26469 -11.26376 -11.26000 -11.24503 -11.23294
 Alpha  occ. eigenvalues --  -11.23255  -1.15881  -1.01954  -0.93961  -0.90735
 Alpha  occ. eigenvalues --   -0.82330  -0.72794  -0.66281  -0.62047  -0.61108
 Alpha  occ. eigenvalues --   -0.59039  -0.56998  -0.54233  -0.52944  -0.49285
 Alpha  occ. eigenvalues --   -0.48780  -0.43654  -0.37685  -0.35007
 Alpha virt. eigenvalues --    0.03480   0.03696   0.03787   0.04223   0.05744
 Alpha virt. eigenvalues --    0.06042   0.06255   0.06551   0.06968   0.08231
 Alpha virt. eigenvalues --    0.09601   0.09709   0.10128   0.12020   0.13902

 Mulliken charges:
               1
     1  C   -0.330089
     2  C   -1.101351
     3  C   -0.235902
     4  C    0.257653
     5  C    0.026039
     6  C   -0.090515
     7  H    0.237931
     8  H    0.171387
     9  H    0.177117
    10  H    0.260885
    11  H    0.123778
    12  H    0.210867
    13  H   -0.150318
    14  H    0.208474
    15  H   -0.110892
    16  H    0.221141
    17  H    0.042717
    18  H    0.081078
 Sum of Mulliken charges =  -0.00000

 Dipole moment (field-independent basis, Debye):
    X=             -1.5521    Y=              0.2340    Z=              0.9266  Tot=              1.8227

 Test job not archived.
 1\1\GINC-SE114\SP\RHF\Aug-CC-pVDZ\C6H12\OHZDE\09-Apr-2025\0\\#t hf aug
 -cc-pvdz iop(5/13=1,5/36=2,99/5=2) pseudo=read geom=check guess=(read,
 tcheck) scf=(maxcycle=1)\\title\\0,1\C,0,-1.29634348,-1.01956034,0.531
 55983\C,0,-0.42326384,0.09050799,-0.0647533\C,0,-1.28130145,1.16061154
 ,-0.741743\C,0,0.78873296,0.56329187,0.79876519\C,0,1.67946732,-0.3716
 9102,0.16544578\C,0,0.72762074,-0.56335544,-1.02625782\H,0,-1.89768563
 ,-1.49916544,-0.25573299\H,0,-0.6911016,-1.79475098,1.01912575\H,0,-1.
 99144542,-0.60450174,1.2754405\H,0,-1.88409044,0.71590952,-1.54918704\

 Normal termination of Gaussian 16 at Wed Apr  9 15:51:14 2025.
