 Gaussian 16, Revision C.01,

 ----------------------------------------------------------------------
 #t hf aug-cc-pvdz symm=none int=(grid=ultrafine) guess=(read,tcheck) s
 table=(opt,rrhf)
 ----------------------------------------------------------------------
 -----
 title
 -----
 Symbolic Z-matrix:
 Charge =  0 Multiplicity = 1

 SCF Done:  E(RHF) =  -360.898756009     A.U. after   13 cycles
 Normal termination of Gaussian 16 at Wed Apr  9 19:07:54 2025.
 Gaussian 16:  ES64L-G16RevC.01  3-Jul-2019

 ----------------------------------------------------------------------
 #t hf aug-cc-pvdz iop(5/13=1,5/36=2,99/5=2) pseudo=read geom=check gue
 ss=(read,tcheck) scf=(maxcycle=1)
 ----------------------------------------------------------------------
 -----
 title
 -----
 Structure from the checkpoint file:  "Grambow2020_wb97xd3_008629_reverse_mol2.chk"
 Charge =  0 Multiplicity = 1

                         Standard orientation:
 ---------------------------------------------------------------------
 Center     Atomic      Atomic             Coordinates (Angstroms)
 Number     Number       Type             X           Y           Z
 ---------------------------------------------------------------------
      1          6           0       -1.906401   -1.578363   -0.188576
      2          6           0       -3.090514   -1.038282    0.050762
      3          6           0       -1.149431    1.620276    0.475565
      4          8           0       -0.533509    2.073974   -0.450136
      5          6           0        1.973344   -0.588113   -0.171594
      6          8           0        2.765336   -1.430309    0.180392
      7          7           0        2.103375    0.740643    0.020375
      8          1           0       -1.366374   -2.134788    0.569269
      9          1           0       -1.435022   -1.497189   -1.161733
     10          1           0        1.034197   -0.843409   -0.697460
     11          1           0       -3.632036   -0.495570   -0.716080
     12          1           0       -3.572789   -1.129248    1.017700
     13          1           0       -2.223932    1.829036    0.612528
     14          1           0       -0.670541    0.976363    1.234359
     15          1           0        2.934291    1.088898    0.465846
     16          1           0        1.391982    1.378977   -0.306058
 ---------------------------------------------------------------------

 SCF Done:  E(RHF) =  -361.267499020     A.U. after    2 cycles

 The electronic state is 1-A.
 Alpha  occ. eigenvalues --  -20.58240 -20.50735 -15.51963 -11.37033 -11.35325
 Alpha  occ. eigenvalues --  -11.25933 -11.25792  -1.51357  -1.45593  -1.21852
 Alpha  occ. eigenvalues --   -1.05940  -0.89289  -0.86414  -0.81385  -0.77704
 Alpha  occ. eigenvalues --   -0.71514  -0.68820  -0.67487  -0.67082  -0.62207
 Alpha  occ. eigenvalues --   -0.60631  -0.58176  -0.56051  -0.52999  -0.45488
 Alpha  occ. eigenvalues --   -0.43068  -0.42312  -0.40679
 Alpha virt. eigenvalues --    0.02721   0.03746   0.04005   0.04418   0.05655
 Alpha virt. eigenvalues --    0.06686   0.06862   0.07800   0.08180   0.09481
 Alpha virt. eigenvalues --    0.10404   0.11693   0.11899   0.13269   0.13506

 Mulliken charges:
               1
     1  C    0.211539
     2  C    0.062203
     3  C    0.600101
     4  O   -0.879872
     5  C    0.477239
     6  O   -1.097699
     7  N    0.542716
     8  H   -0.082421
     9  H   -0.073876
    10  H    0.029659
    11  H   -0.068883
    12  H   -0.054609
    13  H    0.040198
    14  H    0.210327
    15  H    0.080412
    16  H    0.002965
 Sum of Mulliken charges =   0.00000

 Dipole moment (field-independent basis, Debye):
    X=             -3.9905    Y=              2.3476    Z=              1.2479  Tot=              4.7950

 Test job not archived.
 1\1\GINC-SE340\SP\RHF\Aug-CC-pVDZ\C4H9N1O2\OHZDE\09-Apr-2025\0\\#t hf
 aug-cc-pvdz iop(5/13=1,5/36=2,99/5=2) pseudo=read geom=check guess=(re
 ad,tcheck) scf=(maxcycle=1)\\title\\0,1\C,0,-1.94322834,-0.19464061,-0
 .56218336\C,0,-2.54727419,0.88427999,-0.09085198\C,0,0.59558227,1.5882
 2461,0.71108399\O,0,1.41390543,1.76799604,-0.14923702\C,0,1.70249121,-
 1.84297256,-0.720404\O,0,1.77719649,-3.04678967,-0.64502181\N,0,2.6180
 4403,-0.96903569,-0.25419496\H,0,-1.91209964,-1.12393565,-0.00450287\H
 ,0,-1.46642506,-0.19482371,-1.53608328\H,0,0.84142974,-1.33290138,-1.1

 Normal termination of Gaussian 16 at Wed Apr  9 19:07:58 2025.
