 Gaussian 16, Revision C.01,

 ----------------------------------------------------------------------
 #t hf aug-cc-pvdz symm=none int=(grid=ultrafine) guess=(read,tcheck) s
 table=(opt,rrhf)
 ----------------------------------------------------------------------
 -----
 title
 -----
 Symbolic Z-matrix:
 Charge =  0 Multiplicity = 1

 SCF Done:  E(RHF) =  -340.491095214     A.U. after   14 cycles
 Normal termination of Gaussian 16 at Wed Apr  9 03:20:27 2025.
 Gaussian 16:  ES64L-G16RevC.01  3-Jul-2019

 ----------------------------------------------------------------------
 #t hf aug-cc-pvdz iop(5/13=1,5/36=2,99/5=2) pseudo=read geom=check gue
 ss=(read,tcheck) scf=(maxcycle=1)
 ----------------------------------------------------------------------
 -----
 title
 -----
 Structure from the checkpoint file:  "Grambow2020_wb97xd3_006041_reverse_mol2.chk"
 Charge =  0 Multiplicity = 1

                         Standard orientation:
 ---------------------------------------------------------------------
 Center     Atomic      Atomic             Coordinates (Angstroms)
 Number     Number       Type             X           Y           Z
 ---------------------------------------------------------------------
      1          8           0       -0.534113    1.515411   -0.244448
      2          6           0       -0.977103    0.426962   -0.097124
      3          8           0        1.705320   -0.807452   -0.083189
      4          6           0        2.374407    0.172870    0.090242
      5          6           0       -1.432677   -0.870969   -0.522345
      6          8           0       -1.426411   -0.332226    0.882775
      7          1           0        1.931202    1.183704    0.086898
      8          1           0        3.464410    0.101345    0.261313
      9          1           0       -2.428915   -1.000593   -0.929605
     10          1           0       -0.712823   -1.663499   -0.684354
 ---------------------------------------------------------------------

 SCF Done:  E(RHF) =  -340.823764176     A.U. after    2 cycles

 The electronic state is 1-A.
 Alpha  occ. eigenvalues --  -20.61060 -20.56876 -20.55910 -11.41341 -11.35351
 Alpha  occ. eigenvalues --  -11.33436  -1.57685  -1.49839  -1.49226  -0.98470
 Alpha  occ. eigenvalues --   -0.87674  -0.81914  -0.72837  -0.70476  -0.69878
 Alpha  occ. eigenvalues --   -0.66398  -0.65973  -0.56620  -0.55409  -0.54381
 Alpha  occ. eigenvalues --   -0.48088  -0.43914  -0.43403
 Alpha virt. eigenvalues --    0.03557   0.03743   0.05571   0.06541   0.07262
 Alpha virt. eigenvalues --    0.08512   0.08618   0.12231   0.12286   0.13631
 Alpha virt. eigenvalues --    0.15147   0.15418   0.16090   0.16290   0.16594

 Mulliken charges:
               1
     1  O   -1.043455
     2  C    1.388122
     3  O   -0.863751
     4  C    0.625139
     5  C    0.498002
     6  O   -1.052208
     7  H    0.161360
     8  H    0.088069
     9  H    0.081372
    10  H    0.117348
 Sum of Mulliken charges =  -0.00000

 Dipole moment (field-independent basis, Debye):
    X=              0.6999    Y=             -1.0358    Z=             -1.1441  Tot=              1.6946

 Test job not archived.
 1\1\GINC-SE195\SP\RHF\Aug-CC-pVDZ\C3H4O3\OHZDE\09-Apr-2025\0\\#t hf au
 g-cc-pvdz iop(5/13=1,5/36=2,99/5=2) pseudo=read geom=check guess=(read
 ,tcheck) scf=(maxcycle=1)\\title\\0,1\O,0,1.22285575,0.30941557,1.2976
 4294\C,0,0.94323383,-0.63289351,0.636938\O,0,-1.12929267,0.85646428,-0
 .84825818\C,0,-0.81948305,1.97684053,-0.55234929\C,0,0.18251067,-1.800
 64833,0.27550551\O,0,1.3897239,-1.25357805,-0.43723342\H,0,-0.02888042
 ,2.18138316,0.19017076\H,0,-1.31519756,2.85069456,-1.0140127\H,0,0.364
 47725,-2.7513082,0.76365157\H,0,-0.73769671,-1.68709902,-0.28383919\\V

 Normal termination of Gaussian 16 at Wed Apr  9 03:20:33 2025.
