 Gaussian 16, Revision C.01,

 ----------------------------------------------------------------------
 #t hf aug-cc-pvdz symm=none int=(grid=ultrafine) guess=(read,tcheck) s
 table=(opt,rrhf)
 ----------------------------------------------------------------------
 -----
 title
 -----
 Symbolic Z-matrix:
 Charge =  0 Multiplicity = 1

 SCF Done:  E(RHF) =  -269.501865597     A.U. after   16 cycles
 Normal termination of Gaussian 16 at Wed Apr  9 17:23:37 2025.
 Gaussian 16:  ES64L-G16RevC.01  3-Jul-2019

 ----------------------------------------------------------------------
 #t hf aug-cc-pvdz iop(5/13=1,5/36=2,99/5=2) pseudo=read geom=check gue
 ss=(read,tcheck) scf=(maxcycle=1)
 ----------------------------------------------------------------------
 -----
 title
 -----
 Structure from the checkpoint file:  "Grambow2020_wb97xd3_006587_forward_mol1.chk"
 Charge =  0 Multiplicity = 1

                         Standard orientation:
 ---------------------------------------------------------------------
 Center     Atomic      Atomic             Coordinates (Angstroms)
 Number     Number       Type             X           Y           Z
 ---------------------------------------------------------------------
      1          6           0       -0.143272    1.596118    0.197405
      2          6           0        0.550505    0.475183    0.680672
      3          6           0       -0.638467   -1.344132    0.506100
      4          6           0       -1.690073   -0.836807   -0.175463
      5          6           0       -2.228225    0.174062   -0.682897
      6          6           0        1.702866    0.000421   -0.030269
      7          6           0        2.666713   -0.394350   -0.625915
      8          1           0       -0.605662    2.252553    0.926308
      9          1           0        0.249442    2.088476   -0.685465
     10          1           0       -1.304174    1.065009   -0.369749
     11          1           0        0.582585    0.322615    1.752110
     12          1           0        0.090924   -1.946686   -0.022489
     13          1           0       -0.770826   -1.593937    1.553634
     14          1           0       -3.089137    0.523434   -1.219721
     15          1           0        3.526569   -0.734427   -1.152431
 ---------------------------------------------------------------------

 SCF Done:  E(RHF) =  -269.786806962     A.U. after    2 cycles

 The electronic state is 1-A.
 Alpha  occ. eigenvalues --  -11.28338 -11.26560 -11.25220 -11.24714 -11.24428
 Alpha  occ. eigenvalues --  -11.24022 -11.23455  -1.11231  -1.06531  -1.00420
 Alpha  occ. eigenvalues --   -0.95777  -0.85340  -0.72767  -0.72708  -0.68033
 Alpha  occ. eigenvalues --   -0.64219  -0.61853  -0.61373  -0.60870  -0.54308
 Alpha  occ. eigenvalues --   -0.45311  -0.40661  -0.39274  -0.36568  -0.32721
 Alpha virt. eigenvalues --    0.03404   0.03479   0.03815   0.04621   0.05747
 Alpha virt. eigenvalues --    0.06187   0.06623   0.07933   0.08892   0.09065
 Alpha virt. eigenvalues --    0.11632   0.11662   0.12292   0.13165   0.13454

 Mulliken charges:
               1
     1  C   -0.708312
     2  C    0.017421
     3  C   -0.324976
     4  C    0.194681
     5  C   -0.179597
     6  C    0.335563
     7  C    0.256120
     8  H    0.110478
     9  H    0.088577
    10  H    0.713973
    11  H    0.000415
    12  H    0.118500
    13  H    0.105147
    14  H   -0.283713
    15  H   -0.444276
 Sum of Mulliken charges =   0.00000

 Dipole moment (field-independent basis, Debye):
    X=             -0.0515    Y=              0.4073    Z=              0.4829  Tot=              0.6338

 Test job not archived.
 1\1\GINC-SE041\SP\RHF\Aug-CC-pVDZ\C7H8\OHZDE\09-Apr-2025\0\\#t hf aug-
 cc-pvdz iop(5/13=1,5/36=2,99/5=2) pseudo=read geom=check guess=(read,t
 check) scf=(maxcycle=1)\\title\\0,1\C,0,0.14633412,-1.40551617,0.51116
 958\C,0,-0.58066488,-0.23019139,0.75906861\C,0,0.54081623,1.54737762,0
 .17892555\C,0,1.60117547,0.94053277,-0.40000376\C,0,2.16845782,-0.1374
 2459,-0.69181136\C,0,-1.75788863,0.04529765,-0.01360367\C,0,-2.7424611
 6,0.27323455,-0.66036533\H,0,0.64073534,-1.87666754,1.35354401\H,0,-0.
 23964327,-2.08677921,-0.23916521\H,0,1.28053318,-0.97041341,-0.1785486

 Normal termination of Gaussian 16 at Wed Apr  9 17:23:42 2025.
