 Gaussian 16, Revision C.01,

 ----------------------------------------------------------------------
 #t hf aug-cc-pvdz symm=none int=(grid=ultrafine) guess=(read,tcheck) s
 table=(opt,rrhf)
 ----------------------------------------------------------------------
 -----
 title
 -----
 Symbolic Z-matrix:
 Charge =  0 Multiplicity = 1

 SCF Done:  E(RHF) =  -354.620291832     A.U. after   17 cycles
 Normal termination of Gaussian 16 at Wed Apr  9 03:45:19 2025.
 Gaussian 16:  ES64L-G16RevC.01  3-Jul-2019

 ----------------------------------------------------------------------
 #t hf aug-cc-pvdz iop(5/13=1,5/36=2,99/5=2) pseudo=read geom=check gue
 ss=(read,tcheck) scf=(maxcycle=1)
 ----------------------------------------------------------------------
 -----
 title
 -----
 Structure from the checkpoint file:  "Grambow2020_wb97xd3_007775_forward_mol1.chk"
 Charge =  0 Multiplicity = 1

                         Standard orientation:
 ---------------------------------------------------------------------
 Center     Atomic      Atomic             Coordinates (Angstroms)
 Number     Number       Type             X           Y           Z
 ---------------------------------------------------------------------
      1          6           0        2.450028   -0.397005   -0.041207
      2          6           0        0.993231   -0.094560   -0.048709
      3          7           0        0.555059    1.196310   -0.063384
      4          7           0       -0.715060    1.117745    0.025159
      5          6           0       -1.214400   -0.272698    0.115680
      6          8           0       -2.349136   -0.614847   -0.195547
      7          7           0        0.039580   -0.990432    0.057488
      8          1           0        2.816890   -0.491173    0.982577
      9          1           0        2.997414    0.408101   -0.529468
     10          1           0        2.639012   -1.334966   -0.559139
     11          1           0       -1.283509    1.952154    0.086303
     12          1           0       -0.906926   -0.295119    1.294677
 ---------------------------------------------------------------------

 SCF Done:  E(RHF) =  -354.977171278     A.U. after    2 cycles

 The electronic state is 1-A.
 Alpha  occ. eigenvalues --  -20.47357 -15.66092 -15.62834 -15.57456 -11.38998
 Alpha  occ. eigenvalues --  -11.33499 -11.26629  -1.48591  -1.42168  -1.26942
 Alpha  occ. eigenvalues --   -1.15032  -1.02870  -0.94106  -0.87934  -0.82227
 Alpha  occ. eigenvalues --   -0.75200  -0.66323  -0.61768  -0.61619  -0.60102
 Alpha  occ. eigenvalues --   -0.58959  -0.58828  -0.55569  -0.47967  -0.42270
 Alpha  occ. eigenvalues --   -0.36554
 Alpha virt. eigenvalues --   -0.02959   0.02743   0.03811   0.04511   0.05194
 Alpha virt. eigenvalues --    0.05379   0.08131   0.10489   0.10919   0.12408
 Alpha virt. eigenvalues --    0.12817   0.13318   0.13640   0.14468   0.14850

 Mulliken charges:
               1
     1  C   -0.152010
     2  C   -1.634883
     3  N    0.501246
     4  N   -0.119217
     5  C    0.460635
     6  O   -1.296449
     7  N    0.783786
     8  H    0.265547
     9  H    0.200262
    10  H    0.210626
    11  H    0.156625
    12  H    0.623832
 Sum of Mulliken charges =   0.00000

 Dipole moment (field-independent basis, Debye):
    X=              4.0925    Y=              3.1967    Z=              1.3416  Tot=              5.3636

 Test job not archived.
 1\1\GINC-SE132\SP\RHF\Aug-CC-pVDZ\C3H5N3O1\OHZDE\09-Apr-2025\0\\#t hf
 aug-cc-pvdz iop(5/13=1,5/36=2,99/5=2) pseudo=read geom=check guess=(re
 ad,tcheck) scf=(maxcycle=1)\\title\\0,1\C,0,1.97886547,-0.1598871,0.12
 539102\C,0,0.49657983,-0.03173479,0.13919405\N,0,-0.29050688,-1.128041
 97,0.33196325\N,0,-1.48706658,-0.70618703,0.19968253\C,0,-1.57154085,0
 .73933955,-0.10721075\O,0,-2.556543,1.43174561,0.12060017\N,0,-0.16436
 079,1.07191779,-0.12238701\H,0,2.3399308,-0.32664822,-0.89117797\H,0,2
 .28271141,-1.00556608,0.74080162\H,0,2.4357139,0.751825,0.50461434\H,0

 Normal termination of Gaussian 16 at Wed Apr  9 03:45:24 2025.
