 Gaussian 16, Revision C.01,

 ----------------------------------------------------------------------
 #t hf aug-cc-pvdz symm=none int=(grid=ultrafine) guess=(read,tcheck) s
 table=(opt,rrhf)
 ----------------------------------------------------------------------
 -----
 title
 -----
 Symbolic Z-matrix:
 Charge =  0 Multiplicity = 1

 SCF Done:  E(RHF) =  -307.688440202     A.U. after   17 cycles

 1\1\GINC-SE015\Stability\RHF\Aug-CC-pVDZ\C6H10O1\OHZDE\09-Apr-2025\0\\
 #t hf aug-cc-pvdz symm=none int=(grid=ultrafine) guess=(read,tcheck) s
 table=(opt,rrhf)\\title\\0,1\C,0,2.17036833,0.27974635,-0.49299591\C,0
 ,0.75364941,-0.11381385,-0.66735687\C,0,0.24239242,-1.28092096,0.13511
 579\C,0,-1.25679966,-1.01550374,-0.03997155\C,0,-1.24724811,0.46239472
 ,-0.35130459\C,0,-1.27836769,1.4180022,0.73161893\O,0,0.10877443,1.229
 43304,0.49280144\H,0,2.4818041,0.32939724,0.56164543\H,0,2.75164329,-0
 .50710733,-0.98939741\H,0,2.41175539,1.22138172,-0.98428927\H,0,0.5559

 Normal termination of Gaussian 16 at Wed Apr  9 03:34:43 2025.
 Gaussian 16:  ES64L-G16RevC.01  3-Jul-2019

 ----------------------------------------------------------------------
 #t hf aug-cc-pvdz iop(5/13=1,5/36=2,99/5=2) pseudo=read geom=check gue
 ss=(read,tcheck) scf=(maxcycle=1)
 ----------------------------------------------------------------------
 -----
 title
 -----
 Structure from the checkpoint file:  "Grambow2020_wb97xd3_007033_forward_mol1.chk"
 Charge =  0 Multiplicity = 1

                         Standard orientation:
 ---------------------------------------------------------------------
 Center     Atomic      Atomic             Coordinates (Angstroms)
 Number     Number       Type             X           Y           Z
 ---------------------------------------------------------------------
      1          6           0        2.193034   -0.582606    0.089317
      2          6           0        0.957892    0.150448    0.449092
      3          6           0        0.521452    1.278856   -0.447401
      4          6           0       -0.922663    1.397143    0.051817
      5          6           0       -1.136410    0.016951    0.626784
      6          6           0       -1.597506   -1.048527   -0.232881
      7          8           0       -0.182941   -1.156110   -0.297600
      8          1           0        2.244492   -0.852096   -0.976728
      9          1           0        3.014559    0.109469    0.311944
     10          1           0        2.346937   -1.475296    0.694075
     11          1           0        1.111258    2.172798   -0.227062
     12          1           0        0.599485    1.077338   -1.526790
     13          1           0       -1.660851    1.639685   -0.715850
     14          1           0       -0.989921    2.127133    0.858986
     15          1           0       -1.166058   -0.127455    1.695515
     16          1           0       -2.062360   -0.780240   -1.183893
     17          1           0       -2.068804   -1.916055    0.230229
 ---------------------------------------------------------------------

 SCF Done:  E(RHF) =  -308.013016454     A.U. after    2 cycles

 The electronic state is 1-A.
 Alpha  occ. eigenvalues --  -20.54860 -11.33977 -11.29498 -11.25168 -11.23439
 Alpha  occ. eigenvalues --  -11.22825 -11.20408  -1.43684  -1.10425  -1.02847
 Alpha  occ. eigenvalues --   -0.94593  -0.87692  -0.83060  -0.72064  -0.70432
 Alpha  occ. eigenvalues --   -0.63908  -0.63429  -0.60767  -0.56994  -0.55749
 Alpha  occ. eigenvalues --   -0.53172  -0.51758  -0.50231  -0.46892  -0.45106
 Alpha  occ. eigenvalues --   -0.42917  -0.28591
 Alpha virt. eigenvalues --    0.03158   0.03672   0.03780   0.04755   0.06007
 Alpha virt. eigenvalues --    0.06364   0.06441   0.06600   0.07277   0.09395
 Alpha virt. eigenvalues --    0.10006   0.11779   0.12635   0.13322   0.13588

 Mulliken charges:
               1
     1  C   -0.388890
     2  C   -0.446750
     3  C   -0.189410
     4  C   -0.085999
     5  C    0.416788
     6  C    0.700560
     7  O   -1.102318
     8  H    0.228863
     9  H    0.227392
    10  H    0.162351
    11  H    0.137530
    12  H    0.100897
    13  H    0.118736
    14  H    0.128953
    15  H   -0.096076
    16  H    0.062596
    17  H    0.024775
 Sum of Mulliken charges =  -0.00000

 Dipole moment (field-independent basis, Debye):
    X=             -2.8270    Y=              1.2005    Z=             -0.1741  Tot=              3.0763

 Test job not archived.
 1\1\GINC-SE015\SP\RHF\Aug-CC-pVDZ\C6H10O1\OHZDE\09-Apr-2025\0\\#t hf a
 ug-cc-pvdz iop(5/13=1,5/36=2,99/5=2) pseudo=read geom=check guess=(rea
 d,tcheck) scf=(maxcycle=1)\\title\\0,1\C,0,2.17036833,0.27974635,-0.49
 299591\C,0,0.75364941,-0.11381385,-0.66735687\C,0,0.24239242,-1.280920
 96,0.13511579\C,0,-1.25679966,-1.01550374,-0.03997155\C,0,-1.24724811,
 0.46239472,-0.35130459\C,0,-1.27836769,1.4180022,0.73161893\O,0,0.1087
 7443,1.22943304,0.49280144\H,0,2.4818041,0.32939724,0.56164543\H,0,2.7
 5164329,-0.50710733,-0.98939741\H,0,2.41175539,1.22138172,-0.98428927\

 Normal termination of Gaussian 16 at Wed Apr  9 03:34:49 2025.
