 Gaussian 16, Revision C.01,

 ----------------------------------------------------------------------
 #t hf aug-cc-pvdz symm=none int=(grid=ultrafine) guess=(read,tcheck) s
 table=(opt,rrhf)
 ----------------------------------------------------------------------
 -----
 title
 -----
 Symbolic Z-matrix:
 Charge =  0 Multiplicity = 1

 SCF Done:  E(RHF) =  -307.743671503     A.U. after   17 cycles

 1\1\GINC-SE145\Stability\RHF\Aug-CC-pVDZ\C6H10O1\OHZDE\09-Apr-2025\0\\
 #t hf aug-cc-pvdz symm=none int=(grid=ultrafine) guess=(read,tcheck) s
 table=(opt,rrhf)\\title\\0,1\O,0,2.14230875,-0.90419474,1.08361904\C,0
 ,1.21545079,-0.44193667,0.20186612\C,0,0.02039951,-1.277365,-0.1208998
 3\C,0,-1.23819892,-0.54199335,0.39461791\C,0,-1.37898962,0.78550885,-0
 .34064344\C,0,-0.14656504,1.63057645,-0.2311592\C,0,1.16607132,0.94272
 629,-0.01867223\H,0,2.18070226,-1.8617311,1.03290839\H,0,1.22661415,0.
 9909468,-1.1472231\H,0,0.11389949,-2.26908069,0.33063702\H,0,-0.076380

 Normal termination of Gaussian 16 at Wed Apr  9 19:00:08 2025.
 Gaussian 16:  ES64L-G16RevC.01  3-Jul-2019

 ----------------------------------------------------------------------
 #t hf aug-cc-pvdz iop(5/13=1,5/36=2,99/5=2) pseudo=read geom=check gue
 ss=(read,tcheck) scf=(maxcycle=1)
 ----------------------------------------------------------------------
 -----
 title
 -----
 Structure from the checkpoint file:  "Grambow2020_wb97xd3_008421_forward_mol1.chk"
 Charge =  0 Multiplicity = 1

                         Standard orientation:
 ---------------------------------------------------------------------
 Center     Atomic      Atomic             Coordinates (Angstroms)
 Number     Number       Type             X           Y           Z
 ---------------------------------------------------------------------
      1          8           0       -2.275164    0.075413   -0.354354
      2          6           0       -1.037653    0.113551    0.208983
      3          6           0       -0.320086   -1.162292    0.504933
      4          6           0        0.939226   -1.228499   -0.389689
      5          6           0        1.867169   -0.072856   -0.034577
      6          6           0        1.180961    1.256181   -0.122763
      7          6           0       -0.302244    1.300896    0.075742
      8          1           0       -2.731510   -0.718606   -0.067644
      9          1           0       -0.021512    1.511039    1.151217
     10          1           0       -0.976590   -2.019496    0.330773
     11          1           0       -0.009399   -1.205316    1.553649
     12          1           0        0.630121   -1.155739   -1.436423
     13          1           0        1.448157   -2.186915   -0.268210
     14          1           0        2.304570   -0.272972    0.955583
     15          1           0        2.718061   -0.070948   -0.727095
     16          1           0        1.730306    2.128314    0.216815
     17          1           0       -0.855129    2.145447   -0.329596
 ---------------------------------------------------------------------

 SCF Done:  E(RHF) =  -308.070393075     A.U. after    2 cycles

 The electronic state is 1-A.
 Alpha  occ. eigenvalues --  -20.59469 -11.31682 -11.25270 -11.24645 -11.23318
 Alpha  occ. eigenvalues --  -11.22083 -11.20366  -1.50673  -1.13289  -1.03126
 Alpha  occ. eigenvalues --   -0.99466  -0.85726  -0.83320  -0.73632  -0.71180
 Alpha  occ. eigenvalues --   -0.66659  -0.63511  -0.60099  -0.58402  -0.56747
 Alpha  occ. eigenvalues --   -0.56123  -0.55108  -0.50684  -0.48392  -0.47190
 Alpha  occ. eigenvalues --   -0.46471  -0.20108
 Alpha virt. eigenvalues --    0.02747   0.03624   0.03825   0.04506   0.05720
 Alpha virt. eigenvalues --    0.06013   0.06596   0.07030   0.07134   0.07600
 Alpha virt. eigenvalues --    0.09184   0.12239   0.13460   0.13718   0.14077

 Mulliken charges:
               1
     1  O   -1.544684
     2  C    1.808824
     3  C   -0.403930
     4  C   -0.311494
     5  C   -0.494867
     6  C    0.094558
     7  C   -0.718300
     8  H    0.339065
     9  H    0.662882
    10  H    0.033813
    11  H    0.196120
    12  H    0.102901
    13  H    0.130838
    14  H    0.155922
    15  H    0.168167
    16  H   -0.196699
    17  H   -0.023117
 Sum of Mulliken charges =  -0.00000

 Dipole moment (field-independent basis, Debye):
    X=             -1.4934    Y=             -2.3877    Z=              1.7590  Tot=              3.3205

 Test job not archived.
 1\1\GINC-SE145\SP\RHF\Aug-CC-pVDZ\C6H10O1\OHZDE\09-Apr-2025\0\\#t hf a
 ug-cc-pvdz iop(5/13=1,5/36=2,99/5=2) pseudo=read geom=check guess=(rea
 d,tcheck) scf=(maxcycle=1)\\title\\0,1\O,0,2.14230875,-0.90419474,1.08
 361904\C,0,1.21545079,-0.44193667,0.20186612\C,0,0.02039951,-1.277365,
 -0.12089983\C,0,-1.23819892,-0.54199335,0.39461791\C,0,-1.37898962,0.7
 8550885,-0.34064344\C,0,-0.14656504,1.63057645,-0.2311592\C,0,1.166071
 32,0.94272629,-0.01867223\H,0,2.18070226,-1.8617311,1.03290839\H,0,1.2
 2661415,0.9909468,-1.1472231\H,0,0.11389949,-2.26908069,0.33063702\H,0

 Normal termination of Gaussian 16 at Wed Apr  9 19:00:14 2025.
