 Gaussian 16, Revision C.01,

 ----------------------------------------------------------------------
 #t hf aug-cc-pvdz symm=none int=(grid=ultrafine) guess=(read,tcheck) s
 table=(opt,rrhf)
 ----------------------------------------------------------------------
 -----
 title
 -----
 Symbolic Z-matrix:
 Charge =  0 Multiplicity = 1

 SCF Done:  E(RHF) =  -325.034195055     A.U. after   14 cycles
 Normal termination of Gaussian 16 at Wed Apr  9 03:53:04 2025.
 Gaussian 16:  ES64L-G16RevC.01  3-Jul-2019

 ----------------------------------------------------------------------
 #t hf aug-cc-pvdz iop(5/13=1,5/36=2,99/5=2) pseudo=read geom=check gue
 ss=(read,tcheck) scf=(maxcycle=1)
 ----------------------------------------------------------------------
 -----
 title
 -----
 Structure from the checkpoint file:  "Grambow2020_wb97xd3_008231_reverse_mol2.chk"
 Charge =  0 Multiplicity = 1

                         Standard orientation:
 ---------------------------------------------------------------------
 Center     Atomic      Atomic             Coordinates (Angstroms)
 Number     Number       Type             X           Y           Z
 ---------------------------------------------------------------------
      1          6           0       -2.370112   -0.864138    0.593149
      2          6           0       -3.367970   -0.507028   -0.198615
      3          6           0       -0.412093    1.736968   -0.530431
      4          7           0        0.447365    1.891746    0.380610
      5          6           0        1.615747   -0.831683    0.252431
      6          8           0        0.925984   -1.259115   -0.637651
      7          6           0        3.024282   -0.359766    0.078432
      8          1           0       -2.453686   -0.786871    1.671895
      9          1           0       -1.433005   -1.242027    0.196959
     10          1           0        1.220318   -0.777347    1.285022
     11          1           0       -3.289474   -0.584915   -1.277574
     12          1           0       -4.304699   -0.128496    0.195526
     13          1           0       -0.334442    0.868710   -1.184087
     14          1           0       -1.247280    2.419057   -0.711363
     15          1           0        0.261690    2.731909    0.925232
     16          1           0        3.687063   -0.951126    0.715824
     17          1           0        3.081625    0.678054    0.411631
     18          1           0        3.333335   -0.442361   -0.961927
 ---------------------------------------------------------------------

 SCF Done:  E(RHF) =  -325.375148944     A.U. after    2 cycles

 The electronic state is 1-A.
 Alpha  occ. eigenvalues --  -20.53449 -15.50261 -11.33439 -11.29013 -11.23605
 Alpha  occ. eigenvalues --  -11.23160 -11.22957  -1.47012  -1.21786  -1.03146
 Alpha  occ. eigenvalues --   -1.01496  -0.85417  -0.79589  -0.78588  -0.71347
 Alpha  occ. eigenvalues --   -0.67409  -0.64361  -0.63526  -0.61921  -0.59428
 Alpha  occ. eigenvalues --   -0.59346  -0.55293  -0.50372  -0.49696  -0.48387
 Alpha  occ. eigenvalues --   -0.46452  -0.40939  -0.37872
 Alpha virt. eigenvalues --    0.03374   0.03937   0.04435   0.04757   0.05403
 Alpha virt. eigenvalues --    0.05696   0.06157   0.07225   0.08087   0.08330
 Alpha virt. eigenvalues --    0.09336   0.10661   0.11315   0.12430   0.13335

 Mulliken charges:
               1
     1  C    0.300660
     2  C    0.044411
     3  C   -0.682870
     4  N    0.613617
     5  C    1.045580
     6  O   -1.119412
     7  C   -0.686565
     8  H   -0.093614
     9  H   -0.141725
    10  H    0.110430
    11  H   -0.058101
    12  H   -0.063097
    13  H    0.021439
    14  H    0.010679
    15  H    0.039524
    16  H    0.216194
    17  H    0.277618
    18  H    0.165232
 Sum of Mulliken charges =  -0.00000

 Dipole moment (field-independent basis, Debye):
    X=              0.0889    Y=              2.1896    Z=              0.9423  Tot=              2.3854

 Test job not archived.
 1\1\GINC-SE009\SP\RHF\Aug-CC-pVDZ\C5H11N1O1\OHZDE\09-Apr-2025\0\\#t hf
  aug-cc-pvdz iop(5/13=1,5/36=2,99/5=2) pseudo=read geom=check guess=(r
 ead,tcheck) scf=(maxcycle=1)\\title\\0,1\C,0,-2.25184778,0.58222543,-0
 .75384963\C,0,-3.00485128,1.3852658,-0.02019283\C,0,-0.18107864,-0.084
 05717,1.91635805\N,0,0.38216684,-1.16996846,1.60624264\C,0,1.66499116,
 -0.21965669,-0.89373396\O,0,1.27132907,0.91789511,-0.85222806\C,0,3.04
 271805,-0.65233669,-0.504361\H,0,-2.6363465,-0.35951549,-1.13058912\H,
 0,-1.22496049,0.83043413,-1.00250915\H,0,0.99528364,-1.02711434,-1.247

 Normal termination of Gaussian 16 at Wed Apr  9 03:53:10 2025.
