 Gaussian 16, Revision C.01,

 ----------------------------------------------------------------------
 #t hf aug-cc-pvdz symm=none int=(grid=ultrafine) guess=(read,tcheck) s
 table=(opt,rrhf)
 ----------------------------------------------------------------------
 -----
 title
 -----
 Symbolic Z-matrix:
 Charge =  0 Multiplicity = 1

 SCF Done:  E(RHF) =  -322.576129702     A.U. after   16 cycles
 Normal termination of Gaussian 16 at Wed Apr  9 17:52:38 2025.
 Gaussian 16:  ES64L-G16RevC.01  3-Jul-2019

 ----------------------------------------------------------------------
 #t hf aug-cc-pvdz iop(5/13=1,5/36=2,99/5=2) pseudo=read geom=check gue
 ss=(read,tcheck) scf=(maxcycle=1)
 ----------------------------------------------------------------------
 -----
 title
 -----
 Structure from the checkpoint file:  "Grambow2020_wb97xd3_006857_forward_mol1.chk"
 Charge =  0 Multiplicity = 1

                         Standard orientation:
 ---------------------------------------------------------------------
 Center     Atomic      Atomic             Coordinates (Angstroms)
 Number     Number       Type             X           Y           Z
 ---------------------------------------------------------------------
      1          6           0       -1.943507   -0.540968    0.648579
      2          6           0       -1.109936   -0.349951   -0.456926
      3          6           0        0.150245   -0.993777   -0.561497
      4          6           0        1.021017   -0.053590   -0.053920
      5          7           0        2.330781   -0.210644    0.331597
      6          6           0        0.212880    1.094713    0.259515
      7          8           0       -0.911879    1.007405   -0.562892
      8          1           0       -0.797796    0.315768    1.264168
      9          1           0       -2.049704   -1.534762    1.070899
     10          1           0       -2.786205    0.127133    0.786723
     11          1           0        0.311904   -2.057866   -0.643887
     12          1           0        2.777651   -1.064197    0.046609
     13          1           0        2.924793    0.596111    0.251240
     14          1           0        0.614731    2.094517    0.391699
 ---------------------------------------------------------------------

 SCF Done:  E(RHF) =  -322.908267802     A.U. after    2 cycles

 The electronic state is 1-A.
 Alpha  occ. eigenvalues --  -20.56456 -15.52314 -11.30782 -11.29391 -11.29341
 Alpha  occ. eigenvalues --  -11.25067 -11.22659  -1.51903  -1.23447  -1.08898
 Alpha  occ. eigenvalues --   -1.02332  -0.92244  -0.80962  -0.78551  -0.73451
 Alpha  occ. eigenvalues --   -0.70573  -0.67125  -0.64299  -0.58816  -0.57391
 Alpha  occ. eigenvalues --   -0.55322  -0.54232  -0.49693  -0.43294  -0.33988
 Alpha  occ. eigenvalues --   -0.32224
 Alpha virt. eigenvalues --    0.02648   0.03996   0.04487   0.05229   0.05804
 Alpha virt. eigenvalues --    0.06553   0.07879   0.08316   0.10306   0.10516
 Alpha virt. eigenvalues --    0.11573   0.12597   0.13401   0.13912   0.15095

 Mulliken charges:
               1
     1  C   -0.153583
     2  C    0.351656
     3  C    0.775216
     4  C   -1.217695
     5  N    0.802725
     6  C    0.373472
     7  O   -1.393113
     8  H    0.667412
     9  H   -0.058870
    10  H    0.007043
    11  H   -0.166721
    12  H    0.065875
    13  H    0.113030
    14  H   -0.166447
 Sum of Mulliken charges =  -0.00000

 Dipole moment (field-independent basis, Debye):
    X=              2.2507    Y=             -0.9609    Z=              0.4351  Tot=              2.4856

 Test job not archived.
 1\1\GINC-SE229\SP\RHF\Aug-CC-pVDZ\C5H7N1O1\OHZDE\09-Apr-2025\0\\#t hf
 aug-cc-pvdz iop(5/13=1,5/36=2,99/5=2) pseudo=read geom=check guess=(re
 ad,tcheck) scf=(maxcycle=1)\\title\\0,1\C,0,2.08103249,-0.02346056,-0.
 10349652\C,0,1.04352426,-0.1219958,0.82781133\C,0,-0.0720669,-0.972686
 09,0.61500733\C,0,-0.99911185,-0.12939381,0.04118065\N,0,-2.16662527,-
 0.44698406,-0.61060024\C,0,-0.37755317,1.16778803,0.01099948\O,0,0.579
 3273,1.15765373,1.0275314\H,0,0.92316997,0.70745537,-0.84559869\H,0,2.
 44465213,-0.92062515,-0.59353346\H,0,2.7947037,0.78669092,-0.00393837\

 Normal termination of Gaussian 16 at Wed Apr  9 17:52:43 2025.
