 Gaussian 16, Revision C.01,

 ----------------------------------------------------------------------
 #t hf aug-cc-pvdz symm=none int=(grid=ultrafine) guess=(read,tcheck) s
 table=(opt,rrhf)
 ----------------------------------------------------------------------
 -----
 title
 -----
 Symbolic Z-matrix:
 Charge =  0 Multiplicity = 1

 SCF Done:  E(RHF) =  -322.474346596     A.U. after   17 cycles
 Normal termination of Gaussian 16 at Wed Apr  9 18:21:22 2025.
 Gaussian 16:  ES64L-G16RevC.01  3-Jul-2019

 ----------------------------------------------------------------------
 #t hf aug-cc-pvdz iop(5/13=1,5/36=2,99/5=2) pseudo=read geom=check gue
 ss=(read,tcheck) scf=(maxcycle=1)
 ----------------------------------------------------------------------
 -----
 title
 -----
 Structure from the checkpoint file:  "Grambow2020_wb97xd3_007352_forward_mol1.chk"
 Charge =  0 Multiplicity = 1

                         Standard orientation:
 ---------------------------------------------------------------------
 Center     Atomic      Atomic             Coordinates (Angstroms)
 Number     Number       Type             X           Y           Z
 ---------------------------------------------------------------------
      1          8           0        0.277986    1.454067   -0.383326
      2          6           0       -0.646626    0.824394    0.179145
      3          6           0       -1.503107   -0.135508   -0.603297
      4          7           0       -0.508516   -0.987912    0.103423
      5          6           0        0.831309   -1.034904   -0.461827
      6          6           0        1.656953    0.101098    0.128410
      7          6           0       -0.352515   -0.035965    1.322313
      8          1           0       -2.503928   -0.362515   -0.250237
      9          1           0       -1.426384   -0.066827   -1.687801
     10          1           0        0.806778   -0.997340   -1.551668
     11          1           0        1.295894   -1.980011   -0.158360
     12          1           0        2.279999    0.675441   -0.548824
     13          1           0        2.101275   -0.063827    1.096074
     14          1           0       -1.133985   -0.236760    2.054996
 ---------------------------------------------------------------------

 SCF Done:  E(RHF) =  -322.803938397     A.U. after    2 cycles

 The electronic state is 1-A.
 Alpha  occ. eigenvalues --  -20.53877 -15.53077 -11.36097 -11.33611 -11.29547
 Alpha  occ. eigenvalues --  -11.28625 -11.19967  -1.47429  -1.28203  -1.07481
 Alpha  occ. eigenvalues --   -0.94324  -0.93370  -0.83204  -0.74584  -0.71262
 Alpha  occ. eigenvalues --   -0.67016  -0.64684  -0.63211  -0.59999  -0.59250
 Alpha  occ. eigenvalues --   -0.55912  -0.52074  -0.50093  -0.41155  -0.40582
 Alpha  occ. eigenvalues --   -0.29460
 Alpha virt. eigenvalues --    0.02985   0.03710   0.04407   0.04770   0.05590
 Alpha virt. eigenvalues --    0.05741   0.06033   0.07740   0.08299   0.10314
 Alpha virt. eigenvalues --    0.12056   0.12771   0.13379   0.13762   0.14144

 Mulliken charges:
               1
     1  O   -1.409486
     2  C    1.495989
     3  C   -0.135075
     4  N    0.395990
     5  C   -0.506088
     6  C    0.615340
     7  C   -0.483384
     8  H   -0.019168
     9  H   -0.026622
    10  H    0.112698
    11  H    0.118051
    12  H    0.012094
    13  H    0.018443
    14  H   -0.188781
 Sum of Mulliken charges =  -0.00000

 Dipole moment (field-independent basis, Debye):
    X=              1.2494    Y=             -1.1237    Z=             -2.1582  Tot=              2.7352

 Test job not archived.
 1\1\GINC-SE028\SP\RHF\Aug-CC-pVDZ\C5H7N1O1\OHZDE\09-Apr-2025\0\\#t hf
 aug-cc-pvdz iop(5/13=1,5/36=2,99/5=2) pseudo=read geom=check guess=(re
 ad,tcheck) scf=(maxcycle=1)\\title\\0,1\O,0,0.51107573,1.60090789,-0.2
 8415585\C,0,0.91880383,0.51140541,-0.7473087\C,0,1.60772942,-0.4874552
 1,0.14423246\N,0,0.20634321,-0.97416939,0.02387814\C,0,-0.79520282,-0.
 28820813,0.82588049\C,0,-1.33233492,0.89883067,0.03658036\C,0,-0.01753
 471,-0.39830546,-1.40247857\H,0,2.28998102,-1.20838237,-0.2946547\H,0,
 1.92935187,-0.1156657,1.11638613\H,0,-0.39348931,0.01417773,1.79384569

 Normal termination of Gaussian 16 at Wed Apr  9 18:21:27 2025.
