 Gaussian 16, Revision C.01,

 ----------------------------------------------------------------------
 #t hf aug-cc-pvdz symm=none int=(grid=ultrafine) guess=(read,tcheck) s
 table=(opt,rrhf)
 ----------------------------------------------------------------------
 -----
 title
 -----
 Symbolic Z-matrix:
 Charge =  0 Multiplicity = 1

 SCF Done:  E(RHF) =  -343.741072087     A.U. after   15 cycles
 Normal termination of Gaussian 16 at Wed Apr  9 03:27:55 2025.
 Gaussian 16:  ES64L-G16RevC.01  3-Jul-2019

 ----------------------------------------------------------------------
 #t hf aug-cc-pvdz iop(5/13=1,5/36=2,99/5=2) pseudo=read geom=check gue
 ss=(read,tcheck) scf=(maxcycle=1)
 ----------------------------------------------------------------------
 -----
 title
 -----
 Structure from the checkpoint file:  "Grambow2020_wb97xd3_006672_forward_mol2.chk"
 Charge =  0 Multiplicity = 1

                         Standard orientation:
 ---------------------------------------------------------------------
 Center     Atomic      Atomic             Coordinates (Angstroms)
 Number     Number       Type             X           Y           Z
 ---------------------------------------------------------------------
      1          6           0       -1.395273    0.091737    1.199522
      2          6           0       -0.581621    0.055128   -0.083554
      3          8           0       -1.280536   -0.558941   -1.136216
      4          6           0        0.067485    1.405718   -0.473294
      5          6           0        1.436588    0.933376    0.084670
      6          6           0        0.848018   -0.468966    0.134877
      7          8           0        1.297561   -1.574337    0.173113
      8          1           0       -2.327876    0.629117    1.021106
      9          1           0       -1.631938   -0.922888    1.526738
     10          1           0       -0.853373    0.589677    2.006629
     11          1           0       -1.266310   -1.509361   -0.991036
     12          1           0        0.080809    1.521630   -1.555463
     13          1           0       -0.367957    2.291127   -0.013806
     14          1           0        2.317205    1.050440   -0.545281
     15          1           0        1.662059    1.314520    1.082604
 ---------------------------------------------------------------------

 SCF Done:  E(RHF) =  -344.094683048     A.U. after    2 cycles

 The electronic state is 1-A.
 Alpha  occ. eigenvalues --  -20.56133 -20.55172 -11.34007 -11.30571 -11.25406
 Alpha  occ. eigenvalues --  -11.24809 -11.24396  -1.49043  -1.46609  -1.15314
 Alpha  occ. eigenvalues --   -1.00621  -0.89656  -0.86920  -0.75026  -0.69909
 Alpha  occ. eigenvalues --   -0.67676  -0.66727  -0.62270  -0.59328  -0.57920
 Alpha  occ. eigenvalues --   -0.56224  -0.54350  -0.52011  -0.50933  -0.49378
 Alpha  occ. eigenvalues --   -0.45939  -0.39066
 Alpha virt. eigenvalues --    0.03402   0.03812   0.04147   0.04457   0.05940
 Alpha virt. eigenvalues --    0.06534   0.06918   0.07795   0.09344   0.11907
 Alpha virt. eigenvalues --    0.12333   0.13519   0.13730   0.14297   0.14795

 Mulliken charges:
               1
     1  C   -0.227472
     2  C    0.459058
     3  O   -1.462831
     4  C    0.097935
     5  C   -0.212965
     6  C    1.464400
     7  O   -1.359362
     8  H    0.207466
     9  H    0.192791
    10  H    0.217649
    11  H    0.227118
    12  H    0.106417
    13  H    0.053416
    14  H    0.065121
    15  H    0.171260
 Sum of Mulliken charges =   0.00000

 Dipole moment (field-independent basis, Debye):
    X=             -0.6042    Y=              2.1821    Z=              1.1021  Tot=              2.5182

 Test job not archived.
 1\1\GINC-SE165\SP\RHF\Aug-CC-pVDZ\C5H8O2\OHZDE\09-Apr-2025\0\\#t hf au
 g-cc-pvdz iop(5/13=1,5/36=2,99/5=2) pseudo=read geom=check guess=(read
 ,tcheck) scf=(maxcycle=1)\\title\\0,1\C,0,-1.52443549,-0.61774829,-0.1
 331597\C,0,-0.40133126,0.40521623,-0.09034461\O,0,-0.87227219,1.716258
 52,-0.27212656\C,0,0.56334158,0.25262219,1.11109232\C,0,1.61034283,-0.
 45306314,0.20850106\C,0,0.78949132,0.01710086,-0.98340813\O,0,1.003439
 94,0.18005342,-2.14662258\H,0,-2.25593169,-0.38431551,0.64193967\H,0,-
 2.02244052,-0.59267722,-1.10470864\H,0,-1.15280354,-1.63173585,0.03036

 Normal termination of Gaussian 16 at Wed Apr  9 03:28:01 2025.
