 Gaussian 16, Revision C.01,

 ----------------------------------------------------------------------
 #t hf aug-cc-pvdz symm=none int=(grid=ultrafine) guess=(read,tcheck) s
 table=(opt,rrhf)
 ----------------------------------------------------------------------
 -----
 title
 -----
 Symbolic Z-matrix:
 Charge =  0 Multiplicity = 1

 SCF Done:  E(RHF) =  -394.245140653     A.U. after   17 cycles
 Normal termination of Gaussian 16 at Wed Apr  9 18:12:53 2025.
 Gaussian 16:  ES64L-G16RevC.01  3-Jul-2019

 ----------------------------------------------------------------------
 #t hf aug-cc-pvdz iop(5/13=1,5/36=2,99/5=2) pseudo=read geom=check gue
 ss=(read,tcheck) scf=(maxcycle=1)
 ----------------------------------------------------------------------
 -----
 title
 -----
 Structure from the checkpoint file:  "Grambow2020_wb97xd3_007197_reverse_mol1.chk"
 Charge =  0 Multiplicity = 1

                         Standard orientation:
 ---------------------------------------------------------------------
 Center     Atomic      Atomic             Coordinates (Angstroms)
 Number     Number       Type             X           Y           Z
 ---------------------------------------------------------------------
      1          7           0       -0.086430    0.988891    0.036592
      2          6           0       -0.396174   -0.235283    0.175898
      3          8           0        2.181512   -1.021259   -0.452405
      4          6           0        1.533952   -0.389467    0.307654
      5          8           0        1.228654    1.173771   -0.042360
      6          6           0       -1.827474   -0.603874    0.280870
      7          8           0       -2.675455   -0.103083   -0.412845
      8          1           0       -0.671308    1.821741    0.009091
      9          1           0        1.600807   -0.366682    1.403148
     10          1           0       -2.063995   -1.400977    1.005957
 ---------------------------------------------------------------------

 SCF Done:  E(RHF) =  -394.629548875     A.U. after    2 cycles

 The electronic state is 1-A.
 Alpha  occ. eigenvalues --  -20.60990 -20.59570 -20.53518 -15.67690 -11.42087
 Alpha  occ. eigenvalues --  -11.38929 -11.32378  -1.58166  -1.52470  -1.48936
 Alpha  occ. eigenvalues --   -1.24947  -1.01281  -0.93751  -0.84064  -0.79005
 Alpha  occ. eigenvalues --   -0.72363  -0.71217  -0.69719  -0.64814  -0.62842
 Alpha  occ. eigenvalues --   -0.59209  -0.57398  -0.48904  -0.45269  -0.44007
 Alpha  occ. eigenvalues --   -0.39600
 Alpha virt. eigenvalues --    0.01900   0.02527   0.03540   0.04540   0.07870
 Alpha virt. eigenvalues --    0.09010   0.09990   0.10439   0.10601   0.12852
 Alpha virt. eigenvalues --    0.13174   0.14109   0.15148   0.15195   0.16596

 Mulliken charges:
               1
     1  N    1.487735
     2  C   -0.884128
     3  O   -1.111068
     4  C    1.479971
     5  O   -1.404287
     6  C    0.996547
     7  O   -1.075232
     8  H    0.075509
     9  H    0.279569
    10  H    0.155385
 Sum of Mulliken charges =  -0.00000

 Dipole moment (field-independent basis, Debye):
    X=             -2.6292    Y=              1.0038    Z=              3.5711  Tot=              4.5467

 Test job not archived.
 1\1\GINC-SE340\SP\RHF\Aug-CC-pVDZ\C3H3N1O3\OHZDE\09-Apr-2025\0\\#t hf
 aug-cc-pvdz iop(5/13=1,5/36=2,99/5=2) pseudo=read geom=check guess=(re
 ad,tcheck) scf=(maxcycle=1)\\title\\0,1\N,0,-0.01035687,0.84476922,-0.
 57040095\C,0,-0.2711563,-0.18699871,0.12342063\O,0,2.02010771,-1.44792
 092,-0.78055419\C,0,1.61658224,-0.5020208,-0.19863977\O,0,1.22875159,0
 .83089145,-1.05442157\C,0,-1.61481742,-0.31788483,0.7341096\O,0,-2.623
 4403,-0.02703669,0.14318433\H,0,-0.57673074,1.66505633,-0.77735062\H,0
 ,1.99163607,-0.06816786,0.73741677\H,0,-1.63800797,-0.74200418,1.75227

 Normal termination of Gaussian 16 at Wed Apr  9 18:12:55 2025.
