 Gaussian 16, Revision C.01,

 ----------------------------------------------------------------------
 #t hf aug-cc-pvdz symm=none int=(grid=ultrafine) guess=(read,tcheck) s
 table=(opt,rrhf)
 ----------------------------------------------------------------------
 -----
 title
 -----
 Symbolic Z-matrix:
 Charge =  0 Multiplicity = 1

 SCF Done:  E(RHF) =  -344.938470479     A.U. after   14 cycles

 1\1\GINC-SE174\Stability\RHF\Aug-CC-pVDZ\C5H10O2\OHZDE\09-Apr-2025\0\\
 #t hf aug-cc-pvdz symm=none int=(grid=ultrafine) guess=(read,tcheck) s
 table=(opt,rrhf)\\title\\0,1\C,0,-2.53793912,-0.59099522,-0.68755284\C
 ,0,-1.39239254,0.40423661,-0.66614365\C,0,-0.11164832,-0.1432476,-0.07
 92335\O,0,-0.06807491,-1.22990705,0.45192221\C,0,1.11797797,0.73232423
 ,-0.19069406\C,0,2.27905425,0.25287087,0.66826798\O,0,2.76062375,-1.00
 634566,0.26449359\H,0,-3.43487571,-0.13531686,-1.10846745\H,0,-2.28408
 807,-1.46579625,-1.28696118\H,0,-2.7680242,-0.94165477,0.31821727\H,0,

 Normal termination of Gaussian 16 at Wed Apr  9 18:37:40 2025.
 Gaussian 16:  ES64L-G16RevC.01  3-Jul-2019

 ----------------------------------------------------------------------
 #t hf aug-cc-pvdz iop(5/13=1,5/36=2,99/5=2) pseudo=read geom=check gue
 ss=(read,tcheck) scf=(maxcycle=1)
 ----------------------------------------------------------------------
 -----
 title
 -----
 Structure from the checkpoint file:  "Grambow2020_wb97xd3_007826_reverse_mol2.chk"
 Charge =  0 Multiplicity = 1

                         Standard orientation:
 ---------------------------------------------------------------------
 Center     Atomic      Atomic             Coordinates (Angstroms)
 Number     Number       Type             X           Y           Z
 ---------------------------------------------------------------------
      1          6           0       -2.893586   -0.351354   -0.078839
      2          6           0       -1.769181    0.667926   -0.076948
      3          6           0       -0.391051    0.064551    0.068677
      4          8           0       -0.232722   -1.111444    0.307052
      5          6           0        0.784900    1.002157   -0.101812
      6          6           0        2.107999    0.396579    0.343693
      7          8           0        2.481718   -0.710994   -0.440007
      8          1           0       -3.860697    0.143716   -0.173229
      9          1           0       -2.784459   -1.051653   -0.907501
     10          1           0       -2.892299   -0.934330    0.841819
     11          1           0       -1.773518    1.275900   -0.987863
     12          1           0       -1.888148    1.383950    0.744610
     13          1           0        2.047182    0.125048    1.405558
     14          1           0        1.804036   -1.380152   -0.297125
     15          1           0        0.579968    1.934426    0.434432
     16          1           0        0.839518    1.265481   -1.164366
     17          1           0        2.901963    1.137963    0.238683
 ---------------------------------------------------------------------

 SCF Done:  E(RHF) =  -345.299392284     A.U. after    2 cycles

 The electronic state is 1-A.
 Alpha  occ. eigenvalues --  -20.54550 -20.53368 -11.34621 -11.28539 -11.25411
 Alpha  occ. eigenvalues --  -11.25023 -11.23309  -1.48594  -1.44010  -1.08543
 Alpha  occ. eigenvalues --   -1.04036  -0.91958  -0.85538  -0.74987  -0.70754
 Alpha  occ. eigenvalues --   -0.67514  -0.64991  -0.64403  -0.61921  -0.57654
 Alpha  occ. eigenvalues --   -0.57012  -0.54698  -0.52961  -0.51835  -0.50160
 Alpha  occ. eigenvalues --   -0.49405  -0.43517  -0.41297
 Alpha virt. eigenvalues --    0.02993   0.03470   0.03740   0.04624   0.05547
 Alpha virt. eigenvalues --    0.06157   0.06438   0.07155   0.08459   0.08774
 Alpha virt. eigenvalues --    0.11364   0.12740   0.13090   0.14062   0.14335

 Mulliken charges:
               1
     1  C   -0.289618
     2  C   -0.557691
     3  C    1.282886
     4  O   -1.426081
     5  C   -0.566252
     6  C    0.699901
     7  O   -1.140205
     8  H    0.131298
     9  H    0.165759
    10  H    0.186117
    11  H    0.233270
    12  H    0.246774
    13  H    0.137391
    14  H    0.366861
    15  H    0.237402
    16  H    0.248959
    17  H    0.043229
 Sum of Mulliken charges =  -0.00000

 Dipole moment (field-independent basis, Debye):
    X=             -2.1885    Y=              3.0444    Z=              0.3743  Tot=              3.7680

 Test job not archived.
 1\1\GINC-SE174\SP\RHF\Aug-CC-pVDZ\C5H10O2\OHZDE\09-Apr-2025\0\\#t hf a
 ug-cc-pvdz iop(5/13=1,5/36=2,99/5=2) pseudo=read geom=check guess=(rea
 d,tcheck) scf=(maxcycle=1)\\title\\0,1\C,0,-2.53793912,-0.59099522,-0.
 68755284\C,0,-1.39239254,0.40423661,-0.66614365\C,0,-0.11164832,-0.143
 2476,-0.0792335\O,0,-0.06807491,-1.22990705,0.45192221\C,0,1.11797797,
 0.73232423,-0.19069406\C,0,2.27905425,0.25287087,0.66826798\O,0,2.7606
 2375,-1.00634566,0.26449359\H,0,-3.43487571,-0.13531686,-1.10846745\H,
 0,-2.28408807,-1.46579625,-1.28696118\H,0,-2.7680242,-0.94165477,0.318

 Normal termination of Gaussian 16 at Wed Apr  9 18:37:46 2025.
