 Gaussian 16, Revision C.01,

 ----------------------------------------------------------------------
 #t hf aug-cc-pvdz symm=none int=(grid=ultrafine) guess=(read,tcheck) s
 table=(opt,rrhf)
 ----------------------------------------------------------------------
 -----
 title
 -----
 Symbolic Z-matrix:
 Charge =  0 Multiplicity = 1

 SCF Done:  E(RHF) =  -224.644436229     A.U. after   16 cycles
 Normal termination of Gaussian 16 at Wed Apr  9 15:55:36 2025.
 Gaussian 16:  ES64L-G16RevC.01  3-Jul-2019

 ----------------------------------------------------------------------
 #t hf aug-cc-pvdz iop(5/13=1,5/36=2,99/5=2) pseudo=read geom=check gue
 ss=(read,tcheck) scf=(maxcycle=1)
 ----------------------------------------------------------------------
 -----
 title
 -----
 Structure from the checkpoint file:  "Grambow2020_b97d3_006893_forward_mol1.chk"
 Charge =  0 Multiplicity = 1

                         Standard orientation:
 ---------------------------------------------------------------------
 Center     Atomic      Atomic             Coordinates (Angstroms)
 Number     Number       Type             X           Y           Z
 ---------------------------------------------------------------------
      1          7           0        0.838646   -0.670302   -0.026261
      2          6           0        0.927987    0.715956    0.000603
      3          6           0       -0.325543    1.335152    0.012698
      4          6           0       -1.148622    0.178548   -0.032952
      5          7           0       -0.413443   -1.125402   -0.077365
      6          1           0        1.575792   -1.362617    0.108308
      7          1           0        1.934145    1.136419    0.001088
      8          1           0       -0.992215   -0.661865    0.962498
      9          1           0       -2.217071    0.080059   -0.228608
 ---------------------------------------------------------------------

 SCF Done:  E(RHF) =  -224.872138618     A.U. after    2 cycles

 The electronic state is 1-A.
 Alpha  occ. eigenvalues --  -15.62276 -15.61139 -11.31575 -11.29971 -11.19463
 Alpha  occ. eigenvalues --   -1.41097  -1.14210  -1.07642  -0.87260  -0.84630
 Alpha  occ. eigenvalues --   -0.77260  -0.71700  -0.65205  -0.57725  -0.55557
 Alpha  occ. eigenvalues --   -0.48690  -0.37281  -0.34362
 Alpha virt. eigenvalues --    0.02181   0.04358   0.04997   0.05231   0.05976
 Alpha virt. eigenvalues --    0.09038   0.09620   0.10930   0.11812   0.13795
 Alpha virt. eigenvalues --    0.14075   0.14432   0.15983   0.16685   0.17389

 Mulliken charges:
               1
     1  N    0.311178
     2  C   -0.083767
     3  C   -0.174977
     4  C   -0.414367
     5  N   -0.235023
     6  H    0.066127
     7  H   -0.064473
     8  H    0.653429
     9  H   -0.058127
 Sum of Mulliken charges =  -0.00000

 Dipole moment (field-independent basis, Debye):
    X=              1.8541    Y=             -3.3633    Z=              0.9199  Tot=              3.9491

 Test job not archived.
 1\1\GINC-SE141\SP\RHF\Aug-CC-pVDZ\C3H4N2\OHZDE\09-Apr-2025\0\\#t hf au
 g-cc-pvdz iop(5/13=1,5/36=2,99/5=2) pseudo=read geom=check guess=(read
 ,tcheck) scf=(maxcycle=1)\\title\\0,1\N,0,-0.92283088,-0.50782477,-0.0
 9595508\C,0,-0.77156568,0.83881733,0.21078501\C,0,0.56546072,1.1990057
 4,0.40446421\C,0,1.17188768,-0.0695757,0.203908\N,0,0.22390864,-1.1878
 294,-0.10201864\H,0,-1.75273543,-1.00032209,-0.42685825\H,0,-1.6872618
 ,1.42817266,0.2682812\H,0,0.96176656,-0.61308768,-0.97172933\H,0,2.186
 6502,-0.40815509,0.41647788\\Version=ES64L-G16RevC.01\State=1-A\HF=-22

 Normal termination of Gaussian 16 at Wed Apr  9 15:55:39 2025.
