 Gaussian 16, Revision C.01,

 ----------------------------------------------------------------------
 #t hf aug-cc-pvdz symm=none int=(grid=ultrafine) guess=(read,tcheck) s
 table=(opt,rrhf)
 ----------------------------------------------------------------------
 -----
 title
 -----
 Symbolic Z-matrix:
 Charge =  0 Multiplicity = 1

 SCF Done:  E(RHF) =  -245.701635354     A.U. after   16 cycles
 Normal termination of Gaussian 16 at Wed Apr  9 16:28:39 2025.
 Gaussian 16:  ES64L-G16RevC.01  3-Jul-2019

 ----------------------------------------------------------------------
 #t hf aug-cc-pvdz iop(5/13=1,5/36=2,99/5=2) pseudo=read geom=check gue
 ss=(read,tcheck) scf=(maxcycle=1)
 ----------------------------------------------------------------------
 -----
 title
 -----
 Structure from the checkpoint file:  "Grambow2020_wb97xd3_006113_forward_mol1.chk"
 Charge =  0 Multiplicity = 1

                         Standard orientation:
 ---------------------------------------------------------------------
 Center     Atomic      Atomic             Coordinates (Angstroms)
 Number     Number       Type             X           Y           Z
 ---------------------------------------------------------------------
      1          6           0       -1.490929    0.018475    0.547640
      2          6           0        2.054263   -0.525302    0.080425
      3          7           0        1.155570    0.341382   -0.074731
      4          6           0        0.080263    0.937998   -0.141658
      5          8           0       -1.692512   -0.642053   -0.480422
      6          1           0       -1.006982   -0.435024    1.433497
      7          1           0       -2.113046    0.896824    0.794236
      8          1           0        3.030231   -0.230588    0.446126
      9          1           0        1.841740   -1.558064   -0.176510
     10          1           0       -0.162419    1.486578   -1.049301
 ---------------------------------------------------------------------

 SCF Done:  E(RHF) =  -245.948006663     A.U. after    2 cycles

 The electronic state is 1-A.
 Alpha  occ. eigenvalues --  -20.48762 -15.59379 -11.32786 -11.32221 -11.30954
 Alpha  occ. eigenvalues --   -1.41721  -1.32377  -1.08191  -0.85935  -0.79848
 Alpha  occ. eigenvalues --   -0.73116  -0.71661  -0.64239  -0.62489  -0.58929
 Alpha  occ. eigenvalues --   -0.53550  -0.47397  -0.37900  -0.33943
 Alpha virt. eigenvalues --    0.02778   0.04128   0.04887   0.05034   0.05644
 Alpha virt. eigenvalues --    0.06565   0.08395   0.09507   0.11399   0.12491
 Alpha virt. eigenvalues --    0.13298   0.14179   0.14468   0.15509   0.16463

 Mulliken charges:
               1
     1  C    0.517170
     2  C   -0.203829
     3  N    0.856944
     4  C   -0.642183
     5  O   -1.017894
     6  H    0.134953
     7  H    0.168967
     8  H    0.051259
     9  H    0.063193
    10  H    0.071420
 Sum of Mulliken charges =  -0.00000

 Dipole moment (field-independent basis, Debye):
    X=              3.9013    Y=              1.1127    Z=              1.3354  Tot=              4.2710

 Test job not archived.
 1\1\GINC-SE232\SP\RHF\Aug-CC-pVDZ\C3H5N1O1\OHZDE\09-Apr-2025\0\\#t hf
 aug-cc-pvdz iop(5/13=1,5/36=2,99/5=2) pseudo=read geom=check guess=(re
 ad,tcheck) scf=(maxcycle=1)\\title\\0,1\C,0,-0.04675095,-1.69126423,-0
 .19357551\C,0,-0.52245756,1.80590893,0.59753573\N,0,0.10821853,1.04210
 754,-0.17817051\C,0,0.59713496,0.06215248,-0.74151989\O,0,0.69542232,-
 1.77803226,0.79409617\H,0,-1.11365893,-1.41809692,-0.08543114\H,0,0.16
 633406,-2.25285206,-1.12015521\H,0,-0.94560914,2.72852695,0.21961322\H
 ,0,-0.61468799,1.53596484,1.6446278\H,0,1.6697407,0.03886072,-0.922144

 Normal termination of Gaussian 16 at Wed Apr  9 16:28:42 2025.
