 Gaussian 16, Revision C.01,

 ----------------------------------------------------------------------
 #t hf aug-cc-pvdz symm=none int=(grid=ultrafine) guess=(read,tcheck) s
 table=(opt,rrhf)
 ----------------------------------------------------------------------
 -----
 title
 -----
 Symbolic Z-matrix:
 Charge =  0 Multiplicity = 1

 SCF Done:  E(RHF) =  -323.924449954     A.U. after   13 cycles
 Normal termination of Gaussian 16 at Wed Apr  9 18:15:47 2025.
 Gaussian 16:  ES64L-G16RevC.01  3-Jul-2019

 ----------------------------------------------------------------------
 #t hf aug-cc-pvdz iop(5/13=1,5/36=2,99/5=2) pseudo=read geom=check gue
 ss=(read,tcheck) scf=(maxcycle=1)
 ----------------------------------------------------------------------
 -----
 title
 -----
 Structure from the checkpoint file:  "Grambow2020_wb97xd3_007248_reverse_mol2.chk"
 Charge =  0 Multiplicity = 1

                         Standard orientation:
 ---------------------------------------------------------------------
 Center     Atomic      Atomic             Coordinates (Angstroms)
 Number     Number       Type             X           Y           Z
 ---------------------------------------------------------------------
      1          6           0        2.446036   -0.616854    0.161765
      2          6           0        1.039471   -0.169534   -0.029592
      3          6           0       -2.244429   -0.667623    0.415667
      4          6           0        0.605899    1.266973    0.114255
      5          8           0       -0.786556    1.197263   -0.045709
      6          6           0       -1.121511   -0.136797   -0.446255
      7          7           0        0.082188   -0.934045   -0.341790
      8          1           0        2.521730   -1.692357    0.017636
      9          1           0        2.793812   -0.361059    1.165373
     10          1           0        3.106601   -0.111420   -0.547008
     11          1           0       -1.923403   -0.716709    1.457292
     12          1           0       -3.109922   -0.008768    0.343758
     13          1           0       -2.529545   -1.667135    0.086450
     14          1           0        0.862950    1.683127    1.094848
     15          1           0        1.071572    1.900256   -0.654518
     16          1           0       -1.429462   -0.122713   -1.500669
 ---------------------------------------------------------------------

 SCF Done:  E(RHF) =  -324.265274877     A.U. after    2 cycles

 The electronic state is 1-A.
 Alpha  occ. eigenvalues --  -20.54387 -15.49337 -11.30828 -11.29447 -11.28846
 Alpha  occ. eigenvalues --  -11.24680 -11.22046  -1.48019  -1.23864  -1.06398
 Alpha  occ. eigenvalues --   -0.99530  -0.93579  -0.84133  -0.76661  -0.70749
 Alpha  occ. eigenvalues --   -0.67737  -0.62242  -0.61780  -0.59030  -0.58500
 Alpha  occ. eigenvalues --   -0.55371  -0.54255  -0.52510  -0.50041  -0.46448
 Alpha  occ. eigenvalues --   -0.46330  -0.39950
 Alpha virt. eigenvalues --    0.03373   0.04256   0.04441   0.04711   0.05568
 Alpha virt. eigenvalues --    0.06090   0.06329   0.06770   0.07508   0.10878
 Alpha virt. eigenvalues --    0.11983   0.12744   0.13116   0.13726   0.14382

 Mulliken charges:
               1
     1  C   -0.424631
     2  C   -1.271785
     3  C   -0.221480
     4  C    0.733428
     5  O   -1.465095
     6  C    0.282435
     7  N    0.899943
     8  H    0.136279
     9  H    0.255325
    10  H    0.256949
    11  H    0.152508
    12  H    0.190728
    13  H    0.202785
    14  H    0.109736
    15  H    0.159253
    16  H    0.003622
 Sum of Mulliken charges =  -0.00000

 Dipole moment (field-independent basis, Debye):
    X=              2.0015    Y=              0.8943    Z=              0.4029  Tot=              2.2289

 Test job not archived.
 1\1\GINC-SE105\SP\RHF\Aug-CC-pVDZ\C5H9N1O1\OHZDE\09-Apr-2025\0\\#t hf
 aug-cc-pvdz iop(5/13=1,5/36=2,99/5=2) pseudo=read geom=check guess=(re
 ad,tcheck) scf=(maxcycle=1)\\title\\0,1\C,0,1.0023594,1.64870233,1.463
 99823\C,0,0.21955005,0.69682963,0.62956176\C,0,0.01158653,-1.32616923,
 -2.0340027\C,0,-0.68098372,-0.3614903,1.21370759\O,0,-1.1148685,-1.070
 48104,0.08301972\C,0,-0.66596574,-0.36727435,-1.08159854\N,0,0.2183465
 ,0.68802052,-0.63465968\H,0,1.58547059,2.31310207,0.83015026\H,0,1.673
 85557,1.1054496,2.13301168\H,0,0.3344603,2.24416964,2.0912929\H,0,0.89

 Normal termination of Gaussian 16 at Wed Apr  9 18:15:52 2025.
