 Gaussian 16, Revision C.01,

 ----------------------------------------------------------------------
 #t hf aug-cc-pvdz symm=none int=(grid=ultrafine) guess=(read,tcheck) s
 table=(opt,rrhf)
 ----------------------------------------------------------------------
 -----
 title
 -----
 Symbolic Z-matrix:
 Charge =  0 Multiplicity = 1

 SCF Done:  E(RHF) =  -394.258322979     A.U. after   16 cycles
 Normal termination of Gaussian 16 at Wed Apr  9 18:12:54 2025.
 Gaussian 16:  ES64L-G16RevC.01  3-Jul-2019

 ----------------------------------------------------------------------
 #t hf aug-cc-pvdz iop(5/13=1,5/36=2,99/5=2) pseudo=read geom=check gue
 ss=(read,tcheck) scf=(maxcycle=1)
 ----------------------------------------------------------------------
 -----
 title
 -----
 Structure from the checkpoint file:  "Grambow2020_wb97xd3_007194_forward_mol1.chk"
 Charge =  0 Multiplicity = 1

                         Standard orientation:
 ---------------------------------------------------------------------
 Center     Atomic      Atomic             Coordinates (Angstroms)
 Number     Number       Type             X           Y           Z
 ---------------------------------------------------------------------
      1          7           0       -2.324471   -0.321228    0.037933
      2          6           0       -1.098393   -0.131950    0.046406
      3          8           0       -0.083838   -1.021556   -0.265024
      4          6           0        1.028564   -0.349323    0.128228
      5          8           0        2.161347   -0.621269    0.155199
      6          6           0       -0.314493    1.125300    0.338549
      7          8           0        0.610210    1.314045   -0.538578
      8          1           0       -2.584008   -1.261891   -0.248618
      9          1           0        0.470233    0.320159    1.242380
     10          1           0       -0.810753    1.956414    0.848841
 ---------------------------------------------------------------------

 SCF Done:  E(RHF) =  -394.641907302     A.U. after    2 cycles

 The electronic state is 1-A.
 Alpha  occ. eigenvalues --  -20.67079 -20.59861 -20.56391 -15.55013 -11.50955
 Alpha  occ. eigenvalues --  -11.41770 -11.40308  -1.63969  -1.54986  -1.49118
 Alpha  occ. eigenvalues --   -1.28050  -1.02537  -0.92540  -0.84902  -0.81848
 Alpha  occ. eigenvalues --   -0.76759  -0.72933  -0.68218  -0.66701  -0.63871
 Alpha  occ. eigenvalues --   -0.59859  -0.55710  -0.53430  -0.50426  -0.45764
 Alpha  occ. eigenvalues --   -0.41844
 Alpha virt. eigenvalues --    0.01758   0.03028   0.04259   0.05093   0.08244
 Alpha virt. eigenvalues --    0.08410   0.10089   0.10344   0.11337   0.12091
 Alpha virt. eigenvalues --    0.13014   0.13533   0.14007   0.15488   0.16269

 Mulliken charges:
               1
     1  N    0.765004
     2  C   -0.097024
     3  O   -1.298236
     4  C    1.698769
     5  O   -1.078335
     6  C    0.488860
     7  O   -1.225776
     8  H    0.216495
     9  H    0.440007
    10  H    0.090237
 Sum of Mulliken charges =  -0.00000

 Dipole moment (field-independent basis, Debye):
    X=             -2.2572    Y=             -0.5387    Z=              1.6011  Tot=              2.8193

 Test job not archived.
 1\1\GINC-SE104\SP\RHF\Aug-CC-pVDZ\C3H3N1O3\OHZDE\09-Apr-2025\0\\#t hf
 aug-cc-pvdz iop(5/13=1,5/36=2,99/5=2) pseudo=read geom=check guess=(re
 ad,tcheck) scf=(maxcycle=1)\\title\\0,1\N,0,-1.12381466,1.28312924,-1.
 19379214\C,0,-0.40703207,0.58807436,-0.45739045\O,0,0.94097717,0.73330
 804,-0.17545406\C,0,1.22775126,-0.41401932,0.49191667\O,0,2.21077532,-
 0.86300527,0.9277531\C,0,-0.76796621,-0.59504499,0.40891124\O,0,-0.251
 23523,-0.48865365,1.58437799\H,0,-0.6256247,2.05821407,-1.62433707\H,0
 ,0.34687736,-1.27307238,-0.2061987\H,0,-1.71550423,-1.11393211,0.23469

 Normal termination of Gaussian 16 at Wed Apr  9 18:12:57 2025.
