 Gaussian 16, Revision C.01,

 ----------------------------------------------------------------------
 #t hf aug-cc-pvdz symm=none int=(grid=ultrafine) guess=(read,tcheck) s
 table=(opt,rrhf)
 ----------------------------------------------------------------------
 -----
 title
 -----
 Symbolic Z-matrix:
 Charge =  0 Multiplicity = 1

 SCF Done:  E(RHF) =  -323.747740892     A.U. after   15 cycles
 Normal termination of Gaussian 16 at Wed Apr  9 03:33:49 2025.
 Gaussian 16:  ES64L-G16RevC.01  3-Jul-2019

 ----------------------------------------------------------------------
 #t hf aug-cc-pvdz iop(5/13=1,5/36=2,99/5=2) pseudo=read geom=check gue
 ss=(read,tcheck) scf=(maxcycle=1)
 ----------------------------------------------------------------------
 -----
 title
 -----
 Structure from the checkpoint file:  "Grambow2020_wb97xd3_006976_forward_mol1.chk"
 Charge =  0 Multiplicity = 1

                         Standard orientation:
 ---------------------------------------------------------------------
 Center     Atomic      Atomic             Coordinates (Angstroms)
 Number     Number       Type             X           Y           Z
 ---------------------------------------------------------------------
      1          6           0       -2.074770   -1.224447    0.358257
      2          6           0       -0.933531   -1.199262   -0.405393
      3          6           0       -0.218617    0.846188   -0.470248
      4          8           0       -1.148913    1.634907   -0.205918
      5          6           0        0.946612    0.802699    0.522867
      6          6           0        2.002474   -0.134068    0.161585
      7          7           0        2.818922   -0.879573   -0.143947
      8          1           0       -3.045526   -1.348561   -0.106102
      9          1           0       -2.027029   -1.485857    1.409168
     10          1           0       -2.560103    0.249175    0.743312
     11          1           0       -1.030143   -1.305087   -1.477661
     12          1           0       -0.008295   -1.563633    0.020347
     13          1           0        0.031554    0.644391   -1.515444
     14          1           0       -2.179693    0.957105    0.492736
     15          1           0        0.572036    0.574944    1.522415
     16          1           0        1.373045    1.808622    0.563789
 ---------------------------------------------------------------------

 SCF Done:  E(RHF) =  -324.081973057     A.U. after    2 cycles

 The electronic state is 1-A.
 Alpha  occ. eigenvalues --  -20.55263 -15.52248 -11.36053 -11.30289 -11.29937
 Alpha  occ. eigenvalues --  -11.29072 -11.24518  -1.47879  -1.24855  -1.08655
 Alpha  occ. eigenvalues --   -1.06274  -0.87727  -0.82293  -0.74630  -0.69833
 Alpha  occ. eigenvalues --   -0.68095  -0.66136  -0.64524  -0.62599  -0.61215
 Alpha  occ. eigenvalues --   -0.60275  -0.53966  -0.51808  -0.50873  -0.45472
 Alpha  occ. eigenvalues --   -0.43336  -0.36879
 Alpha virt. eigenvalues --    0.02963   0.03411   0.03793   0.04580   0.05781
 Alpha virt. eigenvalues --    0.05993   0.07113   0.07938   0.08397   0.09110
 Alpha virt. eigenvalues --    0.10611   0.11852   0.12418   0.13669   0.14135

 Mulliken charges:
               1
     1  C   -0.271091
     2  C    0.001907
     3  C    1.226957
     4  O   -1.464525
     5  C   -0.197107
     6  C   -1.386444
     7  N    0.912440
     8  H    0.034125
     9  H    0.050405
    10  H    0.264891
    11  H   -0.040262
    12  H    0.119139
    13  H    0.152758
    14  H    0.078454
    15  H    0.271721
    16  H    0.246633
 Sum of Mulliken charges =  -0.00000

 Dipole moment (field-independent basis, Debye):
    X=             -2.7442    Y=              0.3787    Z=              1.1760  Tot=              3.0095

 Test job not archived.
 1\1\GINC-SE092\SP\RHF\Aug-CC-pVDZ\C5H9N1O1\OHZDE\09-Apr-2025\0\\#t hf
 aug-cc-pvdz iop(5/13=1,5/36=2,99/5=2) pseudo=read geom=check guess=(re
 ad,tcheck) scf=(maxcycle=1)\\title\\0,1\C,0,1.93617121,-0.07946102,0.3
 9719645\C,0,0.95134128,0.85335258,0.18227989\C,0,-0.65000516,-0.107852
 33,-0.91815169\O,0,-0.21974615,-1.12196229,-1.50454599\C,0,-1.69014838
 ,-0.34121147,0.18165318\C,0,-2.15629512,0.87804276,0.8289776\N,0,-2.50
 565298,1.85208958,1.32384861\H,0,2.86539086,-0.03718655,-0.15792916\H,
 0,1.97891579,-0.62814856,1.33108227\H,0,1.64430967,-1.43863914,-0.3919

 Normal termination of Gaussian 16 at Wed Apr  9 03:33:58 2025.
