 Gaussian 16, Revision C.01,

 ----------------------------------------------------------------------
 #t hf aug-cc-pvdz symm=none int=(grid=ultrafine) guess=(read,tcheck) s
 table=(opt,rrhf)
 ----------------------------------------------------------------------
 -----
 title
 -----
 Symbolic Z-matrix:
 Charge =  0 Multiplicity = 1

 SCF Done:  E(RHF) =  -305.717867614     A.U. after   15 cycles
 Normal termination of Gaussian 16 at Wed Apr  9 16:58:15 2025.
 Gaussian 16:  ES64L-G16RevC.01  3-Jul-2019

 ----------------------------------------------------------------------
 #t hf aug-cc-pvdz iop(5/13=1,5/36=2,99/5=2) pseudo=read geom=check gue
 ss=(read,tcheck) scf=(maxcycle=1)
 ----------------------------------------------------------------------
 -----
 title
 -----
 Structure from the checkpoint file:  "Grambow2020_wb97xd3_006210_reverse_mol1.chk"
 Charge =  0 Multiplicity = 1

                         Standard orientation:
 ---------------------------------------------------------------------
 Center     Atomic      Atomic             Coordinates (Angstroms)
 Number     Number       Type             X           Y           Z
 ---------------------------------------------------------------------
      1          6           0       -2.204827   -0.235976    0.294627
      2          8           0       -0.991107   -0.514274   -0.374570
      3          6           0       -0.202171    0.595670   -0.579043
      4          6           0        0.639916    1.061730    0.562040
      5          6           0        1.620976    0.242125   -0.248405
      6          8           0        1.727283   -1.051893    0.132339
      7          1           0       -2.831530    0.444081   -0.292682
      8          1           0       -2.027610    0.210252    1.279291
      9          1           0       -2.723727   -1.185385    0.415567
     10          1           0       -0.596174    1.333975   -1.279130
     11          1           0        0.361611    0.644849    1.529015
     12          1           0        0.848229    2.124315    0.622886
     13          1           0        0.879511    0.277253   -1.315335
     14          1           0        1.076905   -1.301303    0.802928
 ---------------------------------------------------------------------

 SCF Done:  E(RHF) =  -306.034593169     A.U. after    2 cycles

 The electronic state is 1-A.
 Alpha  occ. eigenvalues --  -20.57610 -20.56481 -11.33043 -11.30336 -11.29585
 Alpha  occ. eigenvalues --  -11.24862  -1.50647  -1.47834  -1.11747  -0.96532
 Alpha  occ. eigenvalues --   -0.84790  -0.83449  -0.72379  -0.71671  -0.66219
 Alpha  occ. eigenvalues --   -0.64286  -0.60963  -0.59119  -0.56795  -0.53549
 Alpha  occ. eigenvalues --   -0.51283  -0.46247  -0.43362  -0.32663
 Alpha virt. eigenvalues --    0.02920   0.03450   0.04018   0.05214   0.06118
 Alpha virt. eigenvalues --    0.06935   0.07631   0.07913   0.09777   0.12384
 Alpha virt. eigenvalues --    0.12771   0.13631   0.14092   0.14853   0.15295

 Mulliken charges:
               1
     1  C    0.111286
     2  O   -1.395970
     3  C    0.925786
     4  C   -0.193120
     5  C    0.545042
     6  O   -1.122340
     7  H    0.163974
     8  H    0.204398
     9  H   -0.013787
    10  H    0.010386
    11  H   -0.019882
    12  H    0.006544
    13  H    0.432443
    14  H    0.345241
 Sum of Mulliken charges =   0.00000

 Dipole moment (field-independent basis, Debye):
    X=             -4.0436    Y=              1.3439    Z=              1.7370  Tot=              4.6015

 Test job not archived.
 1\1\GINC-SE113\SP\RHF\Aug-CC-pVDZ\C4H8O2\OHZDE\09-Apr-2025\0\\#t hf au
 g-cc-pvdz iop(5/13=1,5/36=2,99/5=2) pseudo=read geom=check guess=(read
 ,tcheck) scf=(maxcycle=1)\\title\\0,1\C,0,1.5666012,-0.53289415,-1.038
 66024\O,0,0.26016752,0.00649201,-1.06481691\C,0,-0.58704572,-0.5438894
 ,-0.12912787\C,0,-0.49970032,-0.02588368,1.26816712\C,0,-1.66561342,0.
 75886864,0.70615141\O,0,-1.33750726,1.96267403,0.18274972\H,0,1.555583
 38,-1.60330159,-1.27162377\H,0,2.04086388,-0.38991069,-0.06156241\H,0,
 2.14059637,-0.00737155,-1.79998668\H,0,-0.85130748,-1.59057068,-0.2874

 Normal termination of Gaussian 16 at Wed Apr  9 16:58:23 2025.
