 Gaussian 16, Revision C.01,

 ----------------------------------------------------------------------
 #t hf aug-cc-pvdz symm=none int=(grid=ultrafine) guess=(read,tcheck) s
 table=(opt,rrhf)
 ----------------------------------------------------------------------
 -----
 title
 -----
 Symbolic Z-matrix:
 Charge =  0 Multiplicity = 1

 SCF Done:  E(RHF) =  -341.199950819     A.U. after   15 cycles
 Normal termination of Gaussian 16 at Wed Apr  9 04:04:00 2025.
 Gaussian 16:  ES64L-G16RevC.01  3-Jul-2019

 ----------------------------------------------------------------------
 #t hf aug-cc-pvdz iop(5/13=1,5/36=2,99/5=2) pseudo=read geom=check gue
 ss=(read,tcheck) scf=(maxcycle=1)
 ----------------------------------------------------------------------
 -----
 title
 -----
 Structure from the checkpoint file:  "Grambow2020_wb97xd3_009095_reverse_mol1.chk"
 Charge =  0 Multiplicity = 1

                         Standard orientation:
 ---------------------------------------------------------------------
 Center     Atomic      Atomic             Coordinates (Angstroms)
 Number     Number       Type             X           Y           Z
 ---------------------------------------------------------------------
      1          8           0       -1.578028   -1.319950   -0.002714
      2          6           0       -0.837184   -0.394256    0.000251
      3          6           0       -1.160430    1.110318    0.002359
      4          6           0        0.174506    1.843378   -0.002468
      5          6           0        1.035454    0.890710   -0.000351
      6          6           0        0.754242   -0.520965    0.001132
      7          8           0        1.411500   -1.514947    0.001635
      8          1           0       -1.765623    1.377434   -0.867000
      9          1           0       -1.754814    1.377140    0.879336
     10          1           0        2.526839    1.178370    0.392954
     11          1           0        2.526291    1.171127   -0.402192
 ---------------------------------------------------------------------

 SCF Done:  E(RHF) =  -341.534036267     A.U. after    2 cycles

 The electronic state is 1-A.
 Alpha  occ. eigenvalues --  -20.58519 -20.57736 -11.38903 -11.37691 -11.32925
 Alpha  occ. eigenvalues --  -11.29329 -11.26697  -1.52826  -1.51085  -1.19474
 Alpha  occ. eigenvalues --   -1.00547  -0.94928  -0.82680  -0.76478  -0.71839
 Alpha  occ. eigenvalues --   -0.68366  -0.66261  -0.65925  -0.59332  -0.58925
 Alpha  occ. eigenvalues --   -0.54134  -0.52014  -0.44281  -0.44132  -0.37594
 Alpha virt. eigenvalues --    0.02188   0.03506   0.03875   0.04618   0.05556
 Alpha virt. eigenvalues --    0.06909   0.07975   0.08689   0.09775   0.09911
 Alpha virt. eigenvalues --    0.11034   0.12723   0.14434   0.14872   0.15064

 Mulliken charges:
               1
     1  O   -1.328963
     2  C    1.358158
     3  C   -0.613237
     4  C   -0.578266
     5  C    0.742806
     6  C    0.801065
     7  O   -1.244380
     8  H    0.262604
     9  H    0.265896
    10  H    0.167791
    11  H    0.166526
 Sum of Mulliken charges =  -0.00000

 Dipole moment (field-independent basis, Debye):
    X=              1.4001    Y=              2.6759    Z=              0.0081  Tot=              3.0200

 Test job not archived.
 1\1\GINC-SE120\SP\RHF\Aug-CC-pVDZ\C5H4O2\OHZDE\09-Apr-2025\0\\#t hf au
 g-cc-pvdz iop(5/13=1,5/36=2,99/5=2) pseudo=read geom=check guess=(read
 ,tcheck) scf=(maxcycle=1)\\title\\0,1\O,0,-0.63849531,2.38271662,-0.14
 308569\C,0,-0.42700858,1.21727065,-0.09038841\C,0,-1.41241994,0.042824
 12,-0.22409599\C,0,-0.59510933,-1.23256644,-0.06650133\C,0,0.60028987,
 -0.79825719,0.11015426\C,0,1.01691077,0.57904495,0.14721813\O,0,2.0542
 0788,1.14580316,0.29818081\H,0,-2.19846987,0.10910812,0.53163218\H,0,-
 1.91877691,0.07085587,-1.1917695\H,0,1.82385428,-1.76223882,-0.077719\

 Normal termination of Gaussian 16 at Wed Apr  9 04:04:05 2025.
