 Gaussian 16, Revision C.01,

 ----------------------------------------------------------------------
 #t hf aug-cc-pvdz symm=none int=(grid=ultrafine) guess=(read,tcheck) s
 table=(opt,rrhf)
 ----------------------------------------------------------------------
 -----
 title
 -----
 Symbolic Z-matrix:
 Charge =  0 Multiplicity = 1

 SCF Done:  E(RHF) =  -306.761764350     A.U. after   15 cycles
 Normal termination of Gaussian 16 at Wed Apr  9 03:59:47 2025.
 Gaussian 16:  ES64L-G16RevC.01  3-Jul-2019

 ----------------------------------------------------------------------
 #t hf aug-cc-pvdz iop(5/13=1,5/36=2,99/5=2) pseudo=read geom=check gue
 ss=(read,tcheck) scf=(maxcycle=1)
 ----------------------------------------------------------------------
 -----
 title
 -----
 Structure from the checkpoint file:  "Grambow2020_wb97xd3_008774_forward_mol2.chk"
 Charge =  0 Multiplicity = 1

                         Standard orientation:
 ---------------------------------------------------------------------
 Center     Atomic      Atomic             Coordinates (Angstroms)
 Number     Number       Type             X           Y           Z
 ---------------------------------------------------------------------
      1          8           0       -2.341259    0.002399   -0.086341
      2          6           0       -1.136389    0.021640    0.018344
      3          6           0       -0.328869   -1.233068    0.276974
      4          6           0        1.062710   -1.159321   -0.341919
      5          6           0        1.806726    0.086656    0.126311
      6          6           0        0.956085    1.316281    0.026389
      7          6           0       -0.373501    1.287773   -0.049268
      8          1           0       -0.249485   -1.334311    1.366475
      9          1           0       -0.901460   -2.088106   -0.082433
     10          1           0        1.635136   -2.057356   -0.101663
     11          1           0        0.968594   -1.127083   -1.431855
     12          1           0        2.129076   -0.030186    1.169041
     13          1           0        2.722693    0.229435   -0.452270
     14          1           0        1.466679    2.275113    0.021677
     15          1           0       -0.961737    2.193541   -0.139223
 ---------------------------------------------------------------------

 SCF Done:  E(RHF) =  -307.081091067     A.U. after    2 cycles

 The electronic state is 1-A.
 Alpha  occ. eigenvalues --  -20.52566 -11.33066 -11.27132 -11.25483 -11.24841
 Alpha  occ. eigenvalues --  -11.24306 -11.24255  -1.46231  -1.14325  -1.03908
 Alpha  occ. eigenvalues --   -0.99778  -0.86072  -0.83038  -0.71638  -0.69289
 Alpha  occ. eigenvalues --   -0.64745  -0.63982  -0.60205  -0.59196  -0.58501
 Alpha  occ. eigenvalues --   -0.54323  -0.51504  -0.49627  -0.48554  -0.40103
 Alpha  occ. eigenvalues --   -0.38455
 Alpha virt. eigenvalues --    0.02891   0.03342   0.03691   0.04356   0.05807
 Alpha virt. eigenvalues --    0.06130   0.06689   0.07452   0.08556   0.11076
 Alpha virt. eigenvalues --    0.12199   0.13239   0.13939   0.14104   0.14309

 Mulliken charges:
               1
     1  O   -1.407002
     2  C    0.889769
     3  C   -0.340031
     4  C   -0.232619
     5  C   -0.488499
     6  C    0.299533
     7  C    0.596084
     8  H    0.256739
     9  H    0.143448
    10  H    0.177211
    11  H    0.103297
    12  H    0.239135
    13  H    0.177725
    14  H   -0.196007
    15  H   -0.218783
 Sum of Mulliken charges =  -0.00000

 Dipole moment (field-independent basis, Debye):
    X=              4.2460    Y=             -0.0747    Z=              0.3642  Tot=              4.2623

 Test job not archived.
 1\1\GINC-SE069\SP\RHF\Aug-CC-pVDZ\C6H8O1\OHZDE\09-Apr-2025\0\\#t hf au
 g-cc-pvdz iop(5/13=1,5/36=2,99/5=2) pseudo=read geom=check guess=(read
 ,tcheck) scf=(maxcycle=1)\\title\\0,1\O,0,0.68478768,-2.60526413,0.670
 16695\C,0,0.45727749,-1.46858549,0.32485293\C,0,-0.91398417,-1.0260407
 9,-0.14104873\C,0,-1.18798534,0.43781164,0.18609009\C,0,-0.09317693,1.
 33985208,-0.37335114\C,0,1.27595745,0.82053372,-0.05502358\C,0,1.52324
 061,-0.44294759,0.28673755\H,0,-0.9389337,-1.17823332,-1.22722485\H,0,
 -1.65532348,-1.69717641,0.29267463\H,0,-2.16369132,0.73885723,-0.20021

 Normal termination of Gaussian 16 at Wed Apr  9 03:59:52 2025.
