 Gaussian 16, Revision C.01,

 ----------------------------------------------------------------------
 #t hf aug-cc-pvdz symm=none int=(grid=ultrafine) guess=(read,tcheck) s
 table=(opt,rrhf)
 ----------------------------------------------------------------------
 -----
 title
 -----
 Symbolic Z-matrix:
 Charge =  0 Multiplicity = 1

 SCF Done:  E(RHF) =  -302.866209906     A.U. after   14 cycles
 Normal termination of Gaussian 16 at Wed Apr  9 18:03:40 2025.
 Gaussian 16:  ES64L-G16RevC.01  3-Jul-2019

 ----------------------------------------------------------------------
 #t hf aug-cc-pvdz iop(5/13=1,5/36=2,99/5=2) pseudo=read geom=check gue
 ss=(read,tcheck) scf=(maxcycle=1)
 ----------------------------------------------------------------------
 -----
 title
 -----
 Structure from the checkpoint file:  "Grambow2020_wb97xd3_006957_reverse_mol2.chk"
 Charge =  0 Multiplicity = 1

                         Standard orientation:
 ---------------------------------------------------------------------
 Center     Atomic      Atomic             Coordinates (Angstroms)
 Number     Number       Type             X           Y           Z
 ---------------------------------------------------------------------
      1          6           0       -1.985034   -1.266682    0.169964
      2          6           0       -1.301363   -0.000367   -0.324503
      3          6           0       -1.985676    1.267382    0.165446
      4          7           0        0.100421    0.001596    0.106757
      5          6           0        1.097392   -0.006869   -0.719409
      6          6           0        2.370600   -0.000942   -0.066057
      7          7           0        3.447071    0.003028    0.348373
      8          1           0       -3.021742   -1.289887   -0.167535
      9          1           0       -1.991222   -1.310747    1.262764
     10          1           0       -1.478274   -2.154861   -0.208730
     11          1           0       -1.990360    1.315886    1.258099
     12          1           0       -1.480412    2.154597   -0.217540
     13          1           0       -3.022974    1.288556   -0.170301
     14          1           0        0.228127    0.011420    1.118390
     15          1           0       -1.251094   -0.002461   -1.413702
 ---------------------------------------------------------------------

 SCF Done:  E(RHF) =  -303.178568804     A.U. after    2 cycles

 The electronic state is 1-A.
 Alpha  occ. eigenvalues --  -15.58829 -15.51929 -11.30359 -11.29974 -11.27675
 Alpha  occ. eigenvalues --  -11.25312 -11.25286  -1.31284  -1.23355  -1.10261
 Alpha  occ. eigenvalues --   -0.96978  -0.95287  -0.86179  -0.79871  -0.69536
 Alpha  occ. eigenvalues --   -0.64622  -0.64513  -0.61238  -0.57820  -0.57617
 Alpha  occ. eigenvalues --   -0.55647  -0.52614  -0.52447  -0.52283  -0.47950
 Alpha  occ. eigenvalues --   -0.39325
 Alpha virt. eigenvalues --    0.02717   0.03223   0.03603   0.04301   0.04510
 Alpha virt. eigenvalues --    0.05627   0.06441   0.06964   0.07237   0.09211
 Alpha virt. eigenvalues --    0.11557   0.11789   0.12524   0.13188   0.14264

 Mulliken charges:
               1
     1  C    0.149543
     2  C   -1.981727
     3  C    0.151029
     4  N    1.254677
     5  C   -0.290443
     6  C   -1.211256
     7  N    0.767276
     8  H    0.189846
     9  H    0.186818
    10  H    0.144620
    11  H    0.185607
    12  H    0.145332
    13  H    0.188578
    14  H    0.069518
    15  H    0.050582
 Sum of Mulliken charges =  -0.00000

 Dipole moment (field-independent basis, Debye):
    X=             -6.3342    Y=              0.0145    Z=              1.1047  Tot=              6.4299

 Test job not archived.
 1\1\GINC-SE112\SP\RHF\Aug-CC-pVDZ\C5H8N2\OHZDE\09-Apr-2025\0\\#t hf au
 g-cc-pvdz iop(5/13=1,5/36=2,99/5=2) pseudo=read geom=check guess=(read
 ,tcheck) scf=(maxcycle=1)\\title\\0,1\C,0,-1.17029533,1.27726267,0.247
 28214\C,0,-0.37093653,0.01448546,0.53342621\C,0,-1.17231047,-1.2564058
 5,0.29226783\N,0,0.83621598,-0.0020991,-0.29933711\C,0,2.03552544,0.01
 285515,0.18852311\C,0,3.05324985,-0.01025264,-0.81729203\N,0,3.9552147
 9,-0.02669243,-1.53614324\H,0,-2.0574563,1.311555,0.88050928\H,0,-1.50
 484334,1.30506667,-0.79362871\H,0,-0.57212965,2.1680118,0.44180996\H,0

 Normal termination of Gaussian 16 at Wed Apr  9 18:03:45 2025.
