 Gaussian 16, Revision C.01,

 ----------------------------------------------------------------------
 #t hf aug-cc-pvdz symm=none int=(grid=ultrafine) guess=(read,tcheck) s
 table=(opt,rrhf)
 ----------------------------------------------------------------------
 -----
 title
 -----
 Symbolic Z-matrix:
 Charge =  0 Multiplicity = 1

 SCF Done:  E(RHF) =  -343.726756357     A.U. after   13 cycles
 Normal termination of Gaussian 16 at Wed Apr  9 18:09:41 2025.
 Gaussian 16:  ES64L-G16RevC.01  3-Jul-2019

 ----------------------------------------------------------------------
 #t hf aug-cc-pvdz iop(5/13=1,5/36=2,99/5=2) pseudo=read geom=check gue
 ss=(read,tcheck) scf=(maxcycle=1)
 ----------------------------------------------------------------------
 -----
 title
 -----
 Structure from the checkpoint file:  "Grambow2020_wb97xd3_007142_forward_mol2.chk"
 Charge =  0 Multiplicity = 1

                         Standard orientation:
 ---------------------------------------------------------------------
 Center     Atomic      Atomic             Coordinates (Angstroms)
 Number     Number       Type             X           Y           Z
 ---------------------------------------------------------------------
      1          8           0       -0.407195    1.354929   -0.660107
      2          6           0       -0.604438    0.054657   -0.195013
      3          6           0        0.499684   -0.900173   -0.571598
      4          6           0        1.843892   -0.506626   -0.024989
      5          8           0        2.069289    0.523886    0.553947
      6          6           0       -2.017315   -0.410055   -0.195528
      7          6           0       -1.318729   -0.122894    1.110849
      8          1           0        0.359138    1.699127   -0.187410
      9          1           0        0.283816   -1.919720   -0.236317
     10          1           0        0.602150   -0.957178   -1.662937
     11          1           0        2.662167   -1.235221   -0.197207
     12          1           0       -2.225468   -1.439838   -0.457268
     13          1           0       -2.752790    0.307249   -0.533038
     14          1           0       -1.599978    0.780635    1.634120
     15          1           0       -1.044357   -0.955031    1.747018
 ---------------------------------------------------------------------

 SCF Done:  E(RHF) =  -344.080768430     A.U. after    2 cycles

 The electronic state is 1-A.
 Alpha  occ. eigenvalues --  -20.55990 -20.54515 -11.35475 -11.29715 -11.25993
 Alpha  occ. eigenvalues --  -11.23543 -11.23470  -1.49607  -1.45639  -1.15171
 Alpha  occ. eigenvalues --   -1.04002  -0.84767  -0.83772  -0.77915  -0.70383
 Alpha  occ. eigenvalues --   -0.69777  -0.67017  -0.63433  -0.62508  -0.60513
 Alpha  occ. eigenvalues --   -0.55063  -0.52579  -0.51737  -0.49548  -0.45944
 Alpha  occ. eigenvalues --   -0.41169  -0.40177
 Alpha virt. eigenvalues --    0.02959   0.03816   0.04038   0.04768   0.06129
 Alpha virt. eigenvalues --    0.06613   0.06807   0.07182   0.09645   0.11267
 Alpha virt. eigenvalues --    0.12271   0.12967   0.13788   0.14279   0.14606

 Mulliken charges:
               1
     1  O   -1.586918
     2  C    1.636279
     3  C   -0.829788
     4  C    1.100892
     5  O   -1.154175
     6  C    0.300446
     7  C    0.083880
     8  H    0.317642
     9  H    0.164052
    10  H    0.261438
    11  H    0.108821
    12  H   -0.127154
    13  H   -0.063226
    14  H   -0.075348
    15  H   -0.136841
 Sum of Mulliken charges =  -0.00000

 Dipole moment (field-independent basis, Debye):
    X=              0.0390    Y=             -3.0303    Z=             -0.2654  Tot=              3.0421

 Test job not archived.
 1\1\GINC-SE041\SP\RHF\Aug-CC-pVDZ\C5H8O2\OHZDE\09-Apr-2025\0\\#t hf au
 g-cc-pvdz iop(5/13=1,5/36=2,99/5=2) pseudo=read geom=check guess=(read
 ,tcheck) scf=(maxcycle=1)\\title\\0,1\O,0,0.04481114,-0.74043307,-1.50
 511823\C,0,-0.30177713,-0.27601849,-0.23621229\C,0,0.80033994,-0.41191
 543,0.7833309\C,0,2.04213888,0.3580385,0.42884062\O,0,2.21298686,0.933
 60475,-0.61397204\C,0,-1.71370393,-0.51960596,0.16291977\C,0,-1.249193
 75,0.88221652,-0.14728755\H,0,0.72990242,-0.14723428,-1.83366968\H,0,0
 .47379661,-0.08785888,1.77673178\H,0,1.09567798,-1.46352136,0.89136004

 Normal termination of Gaussian 16 at Wed Apr  9 18:09:46 2025.
