 Gaussian 16, Revision C.01,

 ----------------------------------------------------------------------
 #t hf aug-cc-pvdz symm=none int=(grid=ultrafine) guess=(read,tcheck) s
 table=(opt,rrhf)
 ----------------------------------------------------------------------
 -----
 title
 -----
 Symbolic Z-matrix:
 Charge =  0 Multiplicity = 1

 SCF Done:  E(RHF) =  -308.932032777     A.U. after   15 cycles

 1\1\GINC-SE219\Stability\RHF\Aug-CC-pVDZ\C6H12O1\OHZDE\09-Apr-2025\0\\
 #t hf aug-cc-pvdz symm=none int=(grid=ultrafine) guess=(read,tcheck) s
 table=(opt,rrhf)\\title\\0,1\C,0,2.7931108,-0.38895735,0.06806413\C,0,
 1.36027232,0.02563629,0.38988606\O,0,1.07717288,-0.39609813,1.7181378\
 C,0,0.98429196,1.34687644,-0.0728231\C,0,-1.67936543,1.16199939,-1.126
 58895\C,0,-2.05437552,0.33879559,-0.1548334\C,0,-1.96776697,-1.1523518
 1,-0.21888147\H,0,3.01189364,-0.20065139,-0.98089356\H,0,2.92864121,-1
 .44689265,0.29014173\H,0,3.48767645,0.18253454,0.68382338\H,0,0.701216

 Normal termination of Gaussian 16 at Wed Apr  9 18:27:45 2025.
 Gaussian 16:  ES64L-G16RevC.01  3-Jul-2019

 ----------------------------------------------------------------------
 #t hf aug-cc-pvdz iop(5/13=1,5/36=2,99/5=2) pseudo=read geom=check gue
 ss=(read,tcheck) scf=(maxcycle=1)
 ----------------------------------------------------------------------
 -----
 title
 -----
 Structure from the checkpoint file:  "Grambow2020_wb97xd3_007579_reverse_mol1.chk"
 Charge =  0 Multiplicity = 1

                         Standard orientation:
 ---------------------------------------------------------------------
 Center     Atomic      Atomic             Coordinates (Angstroms)
 Number     Number       Type             X           Y           Z
 ---------------------------------------------------------------------
      1          6           0       -2.638043    0.118008    0.762494
      2          6           0       -1.305559    0.053450    0.021681
      3          8           0       -1.382328   -1.016680   -0.911693
      4          6           0       -0.749230    1.337813   -0.355207
      5          6           0        2.075426    1.230036    0.144173
      6          6           0        2.150902   -0.019542   -0.297942
      7          6           0        1.993480   -1.237337    0.554886
      8          1           0       -2.581452    0.839450    1.574871
      9          1           0       -2.886966   -0.866030    1.158245
     10          1           0       -3.426799    0.420222    0.073498
     11          1           0       -0.523319   -0.165957    0.791607
     12          1           0       -0.677888   -0.906052   -1.553614
     13          1           0       -0.309467    1.268807   -1.368073
     14          1           0        1.901280    1.452431    1.191287
     15          1           0        2.199095    2.077517   -0.518134
     16          1           0        2.342193   -0.191522   -1.355376
     17          1           0        1.859624   -0.972541    1.604941
     18          1           0        2.869600   -1.885528    0.476679
     19          1           0        1.130862   -1.831928    0.237102
 ---------------------------------------------------------------------

 SCF Done:  E(RHF) =  -309.260627964     A.U. after    2 cycles

 The electronic state is 1-A.
 Alpha  occ. eigenvalues --  -20.55131 -11.29490 -11.27500 -11.25246 -11.24023
 Alpha  occ. eigenvalues --  -11.23896 -11.23111  -1.45607  -1.08240  -1.05763
 Alpha  occ. eigenvalues --   -0.94756  -0.92881  -0.77970  -0.77341  -0.69470
 Alpha  occ. eigenvalues --   -0.66078  -0.63108  -0.60570  -0.59454  -0.58206
 Alpha  occ. eigenvalues --   -0.54747  -0.54191  -0.53648  -0.50969  -0.50707
 Alpha  occ. eigenvalues --   -0.44799  -0.38476  -0.36516
 Alpha virt. eigenvalues --    0.03108   0.03572   0.03659   0.04237   0.05632
 Alpha virt. eigenvalues --    0.05964   0.06117   0.06599   0.07172   0.07988
 Alpha virt. eigenvalues --    0.08802   0.09475   0.10368   0.12104   0.12184

 Mulliken charges:
               1
     1  C   -0.245074
     2  C    0.420353
     3  O   -1.381735
     4  C   -0.298178
     5  C    0.003220
     6  C    0.626787
     7  C   -0.580227
     8  H    0.194141
     9  H    0.180536
    10  H    0.205053
    11  H    0.453862
    12  H    0.371206
    13  H    0.111934
    14  H   -0.142664
    15  H   -0.145616
    16  H   -0.186933
    17  H    0.150033
    18  H    0.077097
    19  H    0.186204
 Sum of Mulliken charges =   0.00000

 Dipole moment (field-independent basis, Debye):
    X=              1.3212    Y=             -0.8209    Z=             -0.4615  Tot=              1.6225

 Test job not archived.
 1\1\GINC-SE219\SP\RHF\Aug-CC-pVDZ\C6H12O1\OHZDE\09-Apr-2025\0\\#t hf a
 ug-cc-pvdz iop(5/13=1,5/36=2,99/5=2) pseudo=read geom=check guess=(rea
 d,tcheck) scf=(maxcycle=1)\\title\\0,1\C,0,2.7931108,-0.38895735,0.068
 06413\C,0,1.36027232,0.02563629,0.38988606\O,0,1.07717288,-0.39609813,
 1.7181378\C,0,0.98429196,1.34687644,-0.0728231\C,0,-1.67936543,1.16199
 939,-1.12658895\C,0,-2.05437552,0.33879559,-0.1548334\C,0,-1.96776697,
 -1.15235181,-0.21888147\H,0,3.01189364,-0.20065139,-0.98089356\H,0,2.9
 2864121,-1.44689265,0.29014173\H,0,3.48767645,0.18253454,0.68382338\H,

 Normal termination of Gaussian 16 at Wed Apr  9 18:27:52 2025.
