 Gaussian 16, Revision C.01,

 ----------------------------------------------------------------------
 #t hf aug-cc-pvdz symm=none int=(grid=ultrafine) guess=(read,tcheck) s
 table=(opt,rrhf)
 ----------------------------------------------------------------------
 -----
 title
 -----
 Symbolic Z-matrix:
 Charge =  0 Multiplicity = 1

 SCF Done:  E(RHF) =  -360.904418040     A.U. after   14 cycles
 Normal termination of Gaussian 16 at Wed Apr  9 17:30:36 2025.
 Gaussian 16:  ES64L-G16RevC.01  3-Jul-2019

 ----------------------------------------------------------------------
 #t hf aug-cc-pvdz iop(5/13=1,5/36=2,99/5=2) pseudo=read geom=check gue
 ss=(read,tcheck) scf=(maxcycle=1)
 ----------------------------------------------------------------------
 -----
 title
 -----
 Structure from the checkpoint file:  "Grambow2020_wb97xd3_006617_reverse_mol2.chk"
 Charge =  0 Multiplicity = 1

                         Standard orientation:
 ---------------------------------------------------------------------
 Center     Atomic      Atomic             Coordinates (Angstroms)
 Number     Number       Type             X           Y           Z
 ---------------------------------------------------------------------
      1          6           0       -2.682167    0.446987   -0.453319
      2          6           0       -1.403650    0.065508    0.260457
      3          8           0       -1.451605   -1.322650    0.514284
      4          6           0       -0.178625    0.412800   -0.575291
      5          7           0        1.018453   -0.007148    0.120425
      6          6           0        2.193651   -0.081312   -0.100810
      7          8           0        3.348066   -0.194453   -0.207581
      8          1           0       -2.713089    1.519453   -0.653929
      9          1           0       -3.542433    0.185515    0.161954
     10          1           0       -2.764803   -0.092081   -1.399138
     11          1           0       -1.333626    0.616027    1.209147
     12          1           0       -0.621318   -1.575602    0.927103
     13          1           0       -0.242910   -0.100718   -1.538548
     14          1           0       -0.141078    1.491015   -0.751068
     15          1           0        0.821266    2.188700    1.883823
     16          1           0        0.661871    2.890657    2.077842
 ---------------------------------------------------------------------

 SCF Done:  E(RHF) =  -361.277108362     A.U. after    2 cycles

 The electronic state is 1-A.
 Alpha  occ. eigenvalues --  -20.60079 -20.55210 -15.53275 -11.41425 -11.30402
 Alpha  occ. eigenvalues --  -11.29986 -11.23565  -1.55019  -1.46095  -1.28975
 Alpha  occ. eigenvalues --   -1.08055  -0.98888  -0.83510  -0.76928  -0.73005
 Alpha  occ. eigenvalues --   -0.72151  -0.70033  -0.67156  -0.63566  -0.60321
 Alpha  occ. eigenvalues --   -0.59949  -0.57562  -0.55303  -0.54161  -0.50851
 Alpha  occ. eigenvalues --   -0.48464  -0.45306  -0.44233
 Alpha virt. eigenvalues --    0.03485   0.03875   0.04360   0.04605   0.06192
 Alpha virt. eigenvalues --    0.06723   0.06946   0.07870   0.08395   0.10076
 Alpha virt. eigenvalues --    0.11031   0.11898   0.12491   0.13559   0.14131

 Mulliken charges:
               1
     1  C   -0.344264
     2  C    0.921669
     3  O   -1.359858
     4  C   -0.624153
     5  N    0.939377
     6  C    0.196261
     7  O   -0.939358
     8  H    0.198500
     9  H    0.145909
    10  H    0.220406
    11  H    0.136384
    12  H    0.351592
    13  H    0.070943
    14  H    0.079649
    15  H   -0.056393
    16  H    0.063334
 Sum of Mulliken charges =  -0.00000

 Dipole moment (field-independent basis, Debye):
    X=             -1.1214    Y=              1.6942    Z=             -0.7528  Tot=              2.1667

 Test job not archived.
 1\1\GINC-SE162\SP\RHF\Aug-CC-pVDZ\C4H9N1O2\OHZDE\09-Apr-2025\0\\#t hf
 aug-cc-pvdz iop(5/13=1,5/36=2,99/5=2) pseudo=read geom=check guess=(re
 ad,tcheck) scf=(maxcycle=1)\\title\\0,1\C,0,-1.7555194,-1.280492,-0.17
 568077\C,0,-0.58725325,-0.40435674,-0.57210313\O,0,-0.99039572,0.37337
 627,-1.67949672\C,0,-0.15252818,0.49259729,0.57953067\N,0,0.93459025,1
 .34414144,0.14776914\C,0,1.56156661,2.26991247,0.57833243\O,0,2.231683
 24,3.16765505,0.89751099\H,0,-1.49285925,-1.92622814,0.66421095\H,0,-2
 .04965444,-1.90867952,-1.01583057\H,0,-2.61313358,-0.66612703,0.105477

 Normal termination of Gaussian 16 at Wed Apr  9 17:30:41 2025.
