 Gaussian 16, Revision C.01,

 ----------------------------------------------------------------------
 #t hf aug-cc-pvdz symm=none int=(grid=ultrafine) guess=(read,tcheck) s
 table=(opt,rrhf)
 ----------------------------------------------------------------------
 -----
 title
 -----
 Symbolic Z-matrix:
 Charge =  0 Multiplicity = 1

 SCF Done:  E(RHF) =  -283.475798397     A.U. after   17 cycles
 Normal termination of Gaussian 16 at Wed Apr  9 15:43:39 2025.
 Gaussian 16:  ES64L-G16RevC.01  3-Jul-2019

 ----------------------------------------------------------------------
 #t hf aug-cc-pvdz iop(5/13=1,5/36=2,99/5=2) pseudo=read geom=check gue
 ss=(read,tcheck) scf=(maxcycle=1)
 ----------------------------------------------------------------------
 -----
 title
 -----
 Structure from the checkpoint file:  "Grambow2020_b97d3_006723_forward_mol1.chk"
 Charge =  0 Multiplicity = 1

                         Standard orientation:
 ---------------------------------------------------------------------
 Center     Atomic      Atomic             Coordinates (Angstroms)
 Number     Number       Type             X           Y           Z
 ---------------------------------------------------------------------
      1          6           0        1.846955   -0.264980   -0.400709
      2          6           0        0.822090    0.240763    0.427940
      3          8           0       -0.093967    1.252049   -0.106739
      4          6           0       -1.227350    0.444006   -0.040542
      5          7           0       -1.248506   -0.846552   -0.519217
      6          6           0       -0.373921   -0.885291    0.524904
      7          1           0        1.623906   -0.557707   -1.423384
      8          1           0        2.813893   -0.536052    0.018019
      9          1           0        1.101224    0.539616    1.441195
     10          1           0       -2.152262    0.988921    0.171688
     11          1           0       -0.302124   -1.732298    1.211355
 ---------------------------------------------------------------------

 SCF Done:  E(RHF) =  -283.762589191     A.U. after    2 cycles

 The electronic state is 1-A.
 Alpha  occ. eigenvalues --  -20.59471 -15.53566 -11.41077 -11.33962 -11.33340
 Alpha  occ. eigenvalues --  -11.24211  -1.52619  -1.30148  -1.05510  -0.90079
 Alpha  occ. eigenvalues --   -0.85402  -0.80837  -0.75991  -0.66921  -0.65668
 Alpha  occ. eigenvalues --   -0.62504  -0.60423  -0.55509  -0.51765  -0.50117
 Alpha  occ. eigenvalues --   -0.44761  -0.27880
 Alpha virt. eigenvalues --    0.00418   0.03581   0.03924   0.04631   0.05047
 Alpha virt. eigenvalues --    0.06405   0.09208   0.09733   0.10474   0.11182
 Alpha virt. eigenvalues --    0.12668   0.13915   0.14746   0.15102   0.15493

 Mulliken charges:
               1
     1  C    0.048409
     2  C    0.947455
     3  O   -1.292034
     4  C    0.701384
     5  N    0.470690
     6  C   -0.672443
     7  H   -0.035999
     8  H   -0.063348
     9  H    0.037688
    10  H   -0.020856
    11  H   -0.120947
 Sum of Mulliken charges =  -0.00000

 Dipole moment (field-independent basis, Debye):
    X=              0.2337    Y=              0.1767    Z=              2.6712  Tot=              2.6872

 Test job not archived.
 1\1\GINC-SE174\SP\RHF\Aug-CC-pVDZ\C4H5N1O1\OHZDE\09-Apr-2025\0\\#t hf
 aug-cc-pvdz iop(5/13=1,5/36=2,99/5=2) pseudo=read geom=check guess=(re
 ad,tcheck) scf=(maxcycle=1)\\title\\0,1\C,0,-1.54578675,0.51658993,-0.
 41590623\C,0,-0.37521676,-0.25299098,-0.58995937\O,0,0.83529385,0.3952
 6419,-1.10198589\C,0,1.57876229,0.21314939,0.06247034\N,0,1.09041377,0
 .52317204,1.31167796\C,0,0.30659451,-0.50689058,0.88601825\H,0,-1.4892
 5104,1.49089447,0.06246303\H,0,-2.52673231,0.0782677,-0.58738279\H,0,-
 0.48162681,-1.2165052,-1.09417213\H,0,2.64857883,0.06109972,-0.1101861

 Normal termination of Gaussian 16 at Wed Apr  9 15:43:43 2025.
