 Gaussian 16, Revision C.01,

 ----------------------------------------------------------------------
 #t hf aug-cc-pvdz symm=none int=(grid=ultrafine) guess=(read,tcheck) s
 table=(opt,rrhf)
 ----------------------------------------------------------------------
 -----
 title
 -----
 Symbolic Z-matrix:
 Charge =  0 Multiplicity = 1

 SCF Done:  E(RHF) =  -262.478847733     A.U. after   19 cycles
 Normal termination of Gaussian 16 at Wed Apr  9 15:55:40 2025.
 Gaussian 16:  ES64L-G16RevC.01  3-Jul-2019

 ----------------------------------------------------------------------
 #t hf aug-cc-pvdz iop(5/13=1,5/36=2,99/5=2) pseudo=read geom=check gue
 ss=(read,tcheck) scf=(maxcycle=1)
 ----------------------------------------------------------------------
 -----
 title
 -----
 Structure from the checkpoint file:  "Grambow2020_b97d3_006905_reverse_mol1.chk"
 Charge =  0 Multiplicity = 1

                         Standard orientation:
 ---------------------------------------------------------------------
 Center     Atomic      Atomic             Coordinates (Angstroms)
 Number     Number       Type             X           Y           Z
 ---------------------------------------------------------------------
      1          6           0        0.995187    0.925707    0.166230
      2          6           0       -0.347586    1.227979   -0.066259
      3          7           0       -1.367822    0.338803   -0.158489
      4          7           0       -1.065805   -0.951259    0.253880
      5          6           0        0.141012   -1.286324   -0.135433
      6          6           0        1.297158   -0.454161   -0.152568
      7          1           0        1.704767    1.629916    0.596147
      8          1           0       -0.684499    2.262000   -0.159174
      9          1           0        1.345752   -1.314595    0.776226
     10          1           0        2.154736   -0.769330   -0.752754
 ---------------------------------------------------------------------

 SCF Done:  E(RHF) =  -262.738373179     A.U. after    2 cycles

 The electronic state is 1-A.
 Alpha  occ. eigenvalues --  -15.57774 -15.57059 -11.31271 -11.31064 -11.30699
 Alpha  occ. eigenvalues --  -11.28546  -1.34738  -1.13858  -1.12941  -0.95169
 Alpha  occ. eigenvalues --   -0.88682  -0.74293  -0.72767  -0.67866  -0.63934
 Alpha  occ. eigenvalues --   -0.61649  -0.57330  -0.51107  -0.47624  -0.42331
 Alpha  occ. eigenvalues --   -0.33899
 Alpha virt. eigenvalues --   -0.01449   0.02683   0.03668   0.04337   0.04625
 Alpha virt. eigenvalues --    0.08254   0.09090   0.10063   0.10745   0.11964
 Alpha virt. eigenvalues --    0.12718   0.13902   0.14200   0.14581   0.14804

 Mulliken charges:
               1
     1  C    0.595944
     2  C   -0.452800
     3  N    0.106152
     4  N    0.411410
     5  C   -1.028337
     6  C   -0.127261
     7  H   -0.077588
     8  H   -0.066679
     9  H    0.540151
    10  H    0.099007
 Sum of Mulliken charges =  -0.00000

 Dipole moment (field-independent basis, Debye):
    X=              5.2007    Y=              2.1456    Z=              0.3765  Tot=              5.6385

 Test job not archived.
 1\1\GINC-SE174\SP\RHF\Aug-CC-pVDZ\C4H4N2\OHZDE\09-Apr-2025\0\\#t hf au
 g-cc-pvdz iop(5/13=1,5/36=2,99/5=2) pseudo=read geom=check guess=(read
 ,tcheck) scf=(maxcycle=1)\\title\\0,1\C,0,0.52643305,0.75085325,-0.270
 93518\C,0,1.28333266,-0.39990061,-0.04437714\N,0,0.80202376,-1.6374696
 5,0.23272402\N,0,-0.56153753,-1.79916602,0.03253033\C,0,-1.21285421,-0
 .73197294,0.42892294\C,0,-0.81323495,0.625469,0.26424899\H,0,0.8873634
 9,1.60639281,-0.83840666\H,0,2.37239437,-0.38091141,-0.11457194\H,0,-1
 .76881104,0.31531046,-0.50778872\H,0,-1.3003336,1.38804612,0.87760438\

 Normal termination of Gaussian 16 at Wed Apr  9 15:55:43 2025.
