 Gaussian 16, Revision C.01,

 ----------------------------------------------------------------------
 #t hf aug-cc-pvdz symm=none int=(grid=ultrafine) guess=(read,tcheck) s
 table=(opt,rrhf)
 ----------------------------------------------------------------------
 -----
 title
 -----
 Symbolic Z-matrix:
 Charge =  0 Multiplicity = 1

 SCF Done:  E(RHF) =  -332.444402433     A.U. after   16 cycles
 Normal termination of Gaussian 16 at Wed Apr  9 19:15:41 2025.
 Gaussian 16:  ES64L-G16RevC.01  3-Jul-2019

 ----------------------------------------------------------------------
 #t hf aug-cc-pvdz iop(5/13=1,5/36=2,99/5=2) pseudo=read geom=check gue
 ss=(read,tcheck) scf=(maxcycle=1)
 ----------------------------------------------------------------------
 -----
 title
 -----
 Structure from the checkpoint file:  "Grambow2020_wb97xd3_009006_reverse_mol2.chk"
 Charge =  0 Multiplicity = 1

                         Standard orientation:
 ---------------------------------------------------------------------
 Center     Atomic      Atomic             Coordinates (Angstroms)
 Number     Number       Type             X           Y           Z
 ---------------------------------------------------------------------
      1          7           0       -2.797035   -0.016860    0.000241
      2          6           0       -1.652677    0.033601   -0.000052
      3          6           0        0.443161    1.257970   -0.000026
      4          6           0        1.710542    0.686773    0.000047
      5          7           0        1.586254   -0.665168    0.000320
      6          7           0        0.362747   -1.075467   -0.000324
      7          7           0       -0.294550    0.093447   -0.000248
      8          1           0        2.683577    1.148391   -0.000151
      9          1           0        2.308360   -1.370122    0.000418
 ---------------------------------------------------------------------

 SCF Done:  E(RHF) =  -332.771752171     A.U. after    2 cycles

 The electronic state is 1-A.
 Alpha  occ. eigenvalues --  -15.67912 -15.66599 -15.64657 -15.53906 -11.33517
 Alpha  occ. eigenvalues --  -11.30596 -11.26461  -1.52343  -1.33074  -1.25521
 Alpha  occ. eigenvalues --   -1.16635  -1.04835  -0.95555  -0.83013  -0.81945
 Alpha  occ. eigenvalues --   -0.77138  -0.66521  -0.63200  -0.62857  -0.61523
 Alpha  occ. eigenvalues --   -0.53488  -0.49761  -0.41016  -0.40530
 Alpha virt. eigenvalues --    0.01131   0.01220   0.03909   0.07096   0.08282
 Alpha virt. eigenvalues --    0.09224   0.09359   0.10564   0.10568   0.11681
 Alpha virt. eigenvalues --    0.13130   0.13205   0.14718   0.15416   0.16032

 Mulliken charges:
               1
     1  N    0.937517
     2  C   -1.098831
     3  C   -0.334660
     4  C   -0.046936
     5  N    0.099071
     6  N   -0.009691
     7  N    0.348870
     8  H    0.005342
     9  H    0.099317
 Sum of Mulliken charges =  -0.00000

 Dipole moment (field-independent basis, Debye):
    X=              7.3031    Y=             -2.2983    Z=             -0.0001  Tot=              7.6562

 Test job not archived.
 1\1\GINC-SE083\SP\RHF\Aug-CC-pVDZ\C3H2N4\OHZDE\09-Apr-2025\0\\#t hf au
 g-cc-pvdz iop(5/13=1,5/36=2,99/5=2) pseudo=read geom=check guess=(read
 ,tcheck) scf=(maxcycle=1)\\title\\0,1\N,0,2.75070504,1.62069428,0.7248
 0606\C,0,1.80912078,1.03009208,0.44783911\C,0,0.661564,-0.74950038,-0.
 73866048\C,0,-0.70072898,-1.0173866,-0.66856461\N,0,-1.28455571,-0.123
 6091,0.17018473\N,0,-0.45958875,0.72803749,0.67954044\N,0,0.69164957,0
 .32909735,0.11927493\H,0,-1.28797343,-1.777639,-1.15544221\H,0,-2.2541
 1951,-0.04239711,0.43804203\\Version=ES64L-G16RevC.01\State=1-A\HF=-33

 Normal termination of Gaussian 16 at Wed Apr  9 19:15:44 2025.
