 Gaussian 16, Revision C.01,

 ----------------------------------------------------------------------
 #t hf aug-cc-pvdz symm=none int=(grid=ultrafine) guess=(read,tcheck) s
 table=(opt,rrhf)
 ----------------------------------------------------------------------
 -----
 title
 -----
 Symbolic Z-matrix:
 Charge =  0 Multiplicity = 1

 SCF Done:  E(RHF) =  -307.799108874     A.U. after   15 cycles

 1\1\GINC-SE219\Stability\RHF\Aug-CC-pVDZ\C6H10O1\OHZDE\09-Apr-2025\0\\
 #t hf aug-cc-pvdz symm=none int=(grid=ultrafine) guess=(read,tcheck) s
 table=(opt,rrhf)\\title\\0,1\C,0,2.21788756,0.01395321,0.22266956\C,0,
 0.74424116,-0.23663155,0.09173022\C,0,0.0290974,-1.23402972,0.78071062
 \C,0,-1.42606477,-0.95696806,0.45827134\C,0,-1.49003184,0.08760138,-0.
 67331124\C,0,-0.15170847,0.81456348,-0.57690626\O,0,-0.17584276,1.9811
 5552,0.22983334\H,0,2.3569913,0.91774847,0.8183088\H,0,2.68962778,0.18
 814324,-0.74658119\H,0,2.70445498,-0.81783995,0.72965456\H,0,0.6423480

 Normal termination of Gaussian 16 at Wed Apr  9 18:35:42 2025.
 Gaussian 16:  ES64L-G16RevC.01  3-Jul-2019

 ----------------------------------------------------------------------
 #t hf aug-cc-pvdz iop(5/13=1,5/36=2,99/5=2) pseudo=read geom=check gue
 ss=(read,tcheck) scf=(maxcycle=1)
 ----------------------------------------------------------------------
 -----
 title
 -----
 Structure from the checkpoint file:  "Grambow2020_wb97xd3_007742_forward_mol1.chk"
 Charge =  0 Multiplicity = 1

                         Standard orientation:
 ---------------------------------------------------------------------
 Center     Atomic      Atomic             Coordinates (Angstroms)
 Number     Number       Type             X           Y           Z
 ---------------------------------------------------------------------
      1          6           0       -2.216480   -0.399136    0.105787
      2          6           0       -0.716704   -0.443106    0.123460
      3          6           0        0.068518   -1.477961   -0.418230
      4          6           0        1.493916   -0.970879   -0.321600
      5          6           0        1.507864    0.296670    0.555224
      6          6           0        0.079627    0.825347    0.457667
      7          8           0       -0.121860    1.781389   -0.570795
      8          1           0       -2.525951    0.329768   -0.645151
      9          1           0       -2.626188   -0.072243    1.063705
     10          1           0       -2.625237   -1.372330   -0.161557
     11          1           0       -0.418312   -1.444787    0.826862
     12          1           0        1.772271   -0.751428   -1.360291
     13          1           0        2.196128   -1.737697    0.006231
     14          1           0        1.721265    0.023178    1.592030
     15          1           0        2.237180    1.051824    0.259836
     16          1           0       -0.261667    1.317926    1.369136
     17          1           0        0.204947    1.419072   -1.398291
 ---------------------------------------------------------------------

 SCF Done:  E(RHF) =  -308.124710408     A.U. after    2 cycles

 The electronic state is 1-A.
 Alpha  occ. eigenvalues --  -20.56185 -11.30027 -11.28199 -11.24014 -11.23624
 Alpha  occ. eigenvalues --  -11.23543 -11.23443  -1.46584  -1.16840  -1.03748
 Alpha  occ. eigenvalues --   -0.97013  -0.92310  -0.82433  -0.72860  -0.68975
 Alpha  occ. eigenvalues --   -0.66647  -0.62603  -0.60184  -0.58704  -0.57282
 Alpha  occ. eigenvalues --   -0.54729  -0.53331  -0.50068  -0.49082  -0.46222
 Alpha  occ. eigenvalues --   -0.44794  -0.34130
 Alpha virt. eigenvalues --    0.03167   0.03627   0.03883   0.04402   0.05874
 Alpha virt. eigenvalues --    0.05977   0.06179   0.07173   0.07465   0.09546
 Alpha virt. eigenvalues --    0.11265   0.11404   0.12533   0.14131   0.14298

 Mulliken charges:
               1
     1  C   -0.303082
     2  C    0.234114
     3  C   -1.201023
     4  C   -0.299570
     5  C   -0.197591
     6  C    1.050700
     7  O   -1.417491
     8  H    0.248883
     9  H    0.254245
    10  H    0.169661
    11  H    0.531721
    12  H    0.178304
    13  H    0.134541
    14  H    0.132205
    15  H    0.106206
    16  H    0.077339
    17  H    0.300839
 Sum of Mulliken charges =   0.00000

 Dipole moment (field-independent basis, Debye):
    X=              0.4546    Y=              0.9864    Z=              1.3021  Tot=              1.6956

 Test job not archived.
 1\1\GINC-SE219\SP\RHF\Aug-CC-pVDZ\C6H10O1\OHZDE\09-Apr-2025\0\\#t hf a
 ug-cc-pvdz iop(5/13=1,5/36=2,99/5=2) pseudo=read geom=check guess=(rea
 d,tcheck) scf=(maxcycle=1)\\title\\0,1\C,0,2.21788756,0.01395321,0.222
 66956\C,0,0.74424116,-0.23663155,0.09173022\C,0,0.0290974,-1.23402972,
 0.78071062\C,0,-1.42606477,-0.95696806,0.45827134\C,0,-1.49003184,0.08
 760138,-0.67331124\C,0,-0.15170847,0.81456348,-0.57690626\O,0,-0.17584
 276,1.98115552,0.22983334\H,0,2.3569913,0.91774847,0.8183088\H,0,2.689
 62778,0.18814324,-0.74658119\H,0,2.70445498,-0.81783995,0.72965456\H,0

 Normal termination of Gaussian 16 at Wed Apr  9 18:35:48 2025.
