 Gaussian 16, Revision C.01,

 ----------------------------------------------------------------------
 #t hf aug-cc-pvdz symm=none int=(grid=ultrafine) guess=(read,tcheck) s
 table=(opt,rrhf)
 ----------------------------------------------------------------------
 -----
 title
 -----
 Symbolic Z-matrix:
 Charge =  0 Multiplicity = 1

 SCF Done:  E(RHF) =  -338.581065031     A.U. after   16 cycles
 Normal termination of Gaussian 16 at Wed Apr  9 03:28:16 2025.
 Gaussian 16:  ES64L-G16RevC.01  3-Jul-2019

 ----------------------------------------------------------------------
 #t hf aug-cc-pvdz iop(5/13=1,5/36=2,99/5=2) pseudo=read geom=check gue
 ss=(read,tcheck) scf=(maxcycle=1)
 ----------------------------------------------------------------------
 -----
 title
 -----
 Structure from the checkpoint file:  "Grambow2020_wb97xd3_006694_reverse_mol1.chk"
 Charge =  0 Multiplicity = 1

                         Standard orientation:
 ---------------------------------------------------------------------
 Center     Atomic      Atomic             Coordinates (Angstroms)
 Number     Number       Type             X           Y           Z
 ---------------------------------------------------------------------
      1          6           0        2.279573   -0.327021    0.178154
      2          6           0        0.822107   -0.034263    0.157356
      3          6           0        0.204621    1.260468    0.152584
      4          7           0       -1.046484    1.184985   -0.228449
      5          6           0       -1.142474   -0.178124   -0.388759
      6          7           0       -1.672053   -0.933603    0.548953
      7          8           0        0.028552   -0.749234   -0.763404
      8          1           0        2.752055   -0.065272   -0.771897
      9          1           0        2.752178    0.261005    0.966181
     10          1           0        2.461983   -1.381969    0.377202
     11          1           0        0.641045    2.180934    0.519588
     12          1           0       -0.389136   -0.668904    1.137833
     13          1           0       -2.399735   -0.417957    1.038788
 ---------------------------------------------------------------------

 SCF Done:  E(RHF) =  -338.923932046     A.U. after    2 cycles

 The electronic state is 1-A.
 Alpha  occ. eigenvalues --  -20.59449 -15.53511 -15.51826 -11.38955 -11.31700
 Alpha  occ. eigenvalues --  -11.31375 -11.25289  -1.56728  -1.28739  -1.21721
 Alpha  occ. eigenvalues --   -1.05888  -0.94074  -0.84886  -0.83595  -0.75856
 Alpha  occ. eigenvalues --   -0.72333  -0.64335  -0.62975  -0.59854  -0.58561
 Alpha  occ. eigenvalues --   -0.56301  -0.54951  -0.52298  -0.49519  -0.45875
 Alpha  occ. eigenvalues --   -0.34883
 Alpha virt. eigenvalues --    0.03152   0.03789   0.03954   0.04665   0.06395
 Alpha virt. eigenvalues --    0.06624   0.07659   0.07987   0.08846   0.10516
 Alpha virt. eigenvalues --    0.11826   0.12249   0.12788   0.14011   0.14129

 Mulliken charges:
               1
     1  C   -0.714719
     2  C    0.899136
     3  C   -0.477341
     4  N    0.799203
     5  C   -1.181956
     6  N    0.556734
     7  O   -1.433387
     8  H    0.270662
     9  H    0.201579
    10  H    0.166071
    11  H   -0.134576
    12  H    0.713806
    13  H    0.334788
 Sum of Mulliken charges =  -0.00000

 Dipole moment (field-independent basis, Debye):
    X=              2.5648    Y=              1.2737    Z=              1.2850  Tot=              3.1387

 Test job not archived.
 1\1\GINC-SE335\SP\RHF\Aug-CC-pVDZ\C4H6N2O1\OHZDE\09-Apr-2025\0\\#t hf
 aug-cc-pvdz iop(5/13=1,5/36=2,99/5=2) pseudo=read geom=check guess=(re
 ad,tcheck) scf=(maxcycle=1)\\title\\0,1\C,0,-1.79978479,0.50629197,0.2
 0476465\C,0,-0.41235915,0.1023088,-0.14480016\C,0,0.00156156,-1.145116
 58,-0.71946612\N,0,1.20333022,-1.05237641,-1.23259322\C,0,1.48396507,0
 .25113209,-0.89334543\N,0,2.21498811,0.53238223,0.16354141\O,0,0.37841
 906,1.03442153,-0.84804147\H,0,-2.40243461,0.67742227,-0.69071144\H,0,
 -2.26989953,-0.28982821,0.78381681\H,0,-1.80132298,1.41620322,0.802985

 Normal termination of Gaussian 16 at Wed Apr  9 03:28:20 2025.
