 Gaussian 16, Revision C.01,

 ----------------------------------------------------------------------
 #t hf aug-cc-pvdz symm=none int=(grid=ultrafine) guess=(read,tcheck) s
 table=(opt,rrhf)
 ----------------------------------------------------------------------
 -----
 title
 -----
 Symbolic Z-matrix:
 Charge =  0 Multiplicity = 1

 SCF Done:  E(RHF) =  -322.549947649     A.U. after   15 cycles
 Normal termination of Gaussian 16 at Wed Apr  9 18:36:29 2025.
 Gaussian 16:  ES64L-G16RevC.01  3-Jul-2019

 ----------------------------------------------------------------------
 #t hf aug-cc-pvdz iop(5/13=1,5/36=2,99/5=2) pseudo=read geom=check gue
 ss=(read,tcheck) scf=(maxcycle=1)
 ----------------------------------------------------------------------
 -----
 title
 -----
 Structure from the checkpoint file:  "Grambow2020_wb97xd3_007755_forward_mol1.chk"
 Charge =  0 Multiplicity = 1

                         Standard orientation:
 ---------------------------------------------------------------------
 Center     Atomic      Atomic             Coordinates (Angstroms)
 Number     Number       Type             X           Y           Z
 ---------------------------------------------------------------------
      1          6           0        1.786034   -0.186572   -0.469733
      2          6           0        0.873249    0.467407    0.378402
      3          6           0        0.167151   -0.363301    1.251242
      4          6           0       -0.865654   -0.501026    0.299717
      5          7           0       -0.688209   -1.523805   -0.505620
      6          8           0       -1.345451    0.707184   -0.166631
      7          6           0       -0.114743    1.472050   -0.192991
      8          1           0        2.178901    0.348635   -1.328988
      9          1           0        2.464137   -0.918573   -0.038660
     10          1           0        0.591558   -1.115513   -0.839538
     11          1           0        0.628065   -1.266970    1.626043
     12          1           0       -1.258436   -1.481136   -1.341702
     13          1           0        0.115510    1.742984   -1.223542
     14          1           0       -0.214879    2.368388    0.418951
 ---------------------------------------------------------------------

 SCF Done:  E(RHF) =  -322.881339776     A.U. after    2 cycles

 The electronic state is 1-A.
 Alpha  occ. eigenvalues --  -20.58298 -15.50602 -11.36430 -11.31793 -11.29639
 Alpha  occ. eigenvalues --  -11.24326 -11.24169  -1.52090  -1.23680  -1.13927
 Alpha  occ. eigenvalues --   -0.99324  -0.94765  -0.79517  -0.79020  -0.71646
 Alpha  occ. eigenvalues --   -0.69966  -0.66671  -0.62903  -0.60991  -0.57812
 Alpha  occ. eigenvalues --   -0.56845  -0.53944  -0.48623  -0.45816  -0.39681
 Alpha  occ. eigenvalues --   -0.33708
 Alpha virt. eigenvalues --    0.03342   0.03874   0.04378   0.04677   0.05881
 Alpha virt. eigenvalues --    0.06478   0.06889   0.07588   0.08063   0.10724
 Alpha virt. eigenvalues --    0.11833   0.12328   0.12864   0.14054   0.14701

 Mulliken charges:
               1
     1  C   -0.295391
     2  C   -0.254366
     3  C   -0.070955
     4  C   -0.119136
     5  N    0.421664
     6  O   -1.458717
     7  C    0.614013
     8  H   -0.083040
     9  H    0.006933
    10  H    0.767012
    11  H   -0.014864
    12  H    0.276752
    13  H    0.077785
    14  H    0.132309
 Sum of Mulliken charges =   0.00000

 Dipole moment (field-independent basis, Debye):
    X=              1.3292    Y=              1.5596    Z=             -1.1164  Tot=              2.3335

 Test job not archived.
 1\1\GINC-SE035\SP\RHF\Aug-CC-pVDZ\C5H7N1O1\OHZDE\09-Apr-2025\0\\#t hf
 aug-cc-pvdz iop(5/13=1,5/36=2,99/5=2) pseudo=read geom=check guess=(re
 ad,tcheck) scf=(maxcycle=1)\\title\\0,1\C,0,-1.41857606,-0.51776548,-0
 .09613108\C,0,-0.54720426,0.52680268,-0.45638897\C,0,0.46586022,0.1783
 3114,-1.35236268\C,0,1.32651604,-0.12471894,-0.27603276\N,0,1.25117278
 ,-1.38035004,0.10323845\O,0,1.43450861,0.89957739,0.64408224\C,0,0.076
 51291,1.40500729,0.61676436\H,0,-2.06204466,-0.3885275,0.76894465\H,0,
 -1.83046612,-1.14595359,-0.8817512\H,0,-0.12534728,-1.32015311,0.23582

 Normal termination of Gaussian 16 at Wed Apr  9 18:36:34 2025.
