 Gaussian 16, Revision C.01,

 ----------------------------------------------------------------------
 #t hf aug-cc-pvdz symm=none int=(grid=ultrafine) guess=(read,tcheck) s
 table=(opt,rrhf)
 ----------------------------------------------------------------------
 -----
 title
 -----
 Symbolic Z-matrix:
 Charge =  0 Multiplicity = 1

 SCF Done:  E(RHF) =  -343.663820368     A.U. after   13 cycles
 Normal termination of Gaussian 16 at Wed Apr  9 17:32:40 2025.
 Gaussian 16:  ES64L-G16RevC.01  3-Jul-2019

 ----------------------------------------------------------------------
 #t hf aug-cc-pvdz iop(5/13=1,5/36=2,99/5=2) pseudo=read geom=check gue
 ss=(read,tcheck) scf=(maxcycle=1)
 ----------------------------------------------------------------------
 -----
 title
 -----
 Structure from the checkpoint file:  "Grambow2020_wb97xd3_006722_reverse_mol2.chk"
 Charge =  0 Multiplicity = 1

                         Standard orientation:
 ---------------------------------------------------------------------
 Center     Atomic      Atomic             Coordinates (Angstroms)
 Number     Number       Type             X           Y           Z
 ---------------------------------------------------------------------
      1          8           0       -2.672782   -0.986038    0.246103
      2          6           0       -0.505017    2.017483   -0.047018
      3          6           0        0.108646    0.850961   -0.030767
      4          8           0       -0.086975   -0.211523   -0.910726
      5          6           0        0.750537   -1.045394   -0.082394
      6          6           0        2.126682   -0.510193   -0.079629
      7          6           0        1.073678    0.110694    0.822739
      8          1           0       -1.983236   -0.790591   -0.398390
      9          1           0       -1.227338    2.255151   -0.816060
     10          1           0       -0.280182    2.751336    0.713047
     11          1           0       -2.690870   -0.209652    0.808202
     12          1           0        0.416822   -2.053036    0.115532
     13          1           0        2.491439    0.030003   -0.944794
     14          1           0        2.860653   -1.108794    0.445885
     15          1           0        1.163617    0.164761    1.895975
 ---------------------------------------------------------------------

 SCF Done:  E(RHF) =  -344.018751329     A.U. after    2 cycles

 The electronic state is 1-A.
 Alpha  occ. eigenvalues --  -20.58462 -20.53196 -11.32171 -11.32085 -11.26964
 Alpha  occ. eigenvalues --  -11.26743 -11.23124  -1.52690  -1.41512  -1.16622
 Alpha  occ. eigenvalues --   -1.04951  -0.89748  -0.84780  -0.75917  -0.71967
 Alpha  occ. eigenvalues --   -0.69863  -0.68622  -0.64978  -0.60410  -0.58344
 Alpha  occ. eigenvalues --   -0.56711  -0.54216  -0.52292  -0.49014  -0.47444
 Alpha  occ. eigenvalues --   -0.42309  -0.35770
 Alpha virt. eigenvalues --    0.02979   0.03416   0.04151   0.04715   0.05829
 Alpha virt. eigenvalues --    0.06095   0.06827   0.08580   0.09254   0.11390
 Alpha virt. eigenvalues --    0.11843   0.12262   0.12939   0.13775   0.14674

 Mulliken charges:
               1
     1  O   -0.920655
     2  C    0.149104
     3  C    1.081694
     4  O   -1.520769
     5  C    1.278926
     6  C    0.046734
     7  C   -0.186509
     8  H    0.584497
     9  H   -0.130743
    10  H   -0.099472
    11  H    0.354161
    12  H   -0.196086
    13  H   -0.114367
    14  H   -0.070497
    15  H   -0.256019
 Sum of Mulliken charges =   0.00000

 Dipole moment (field-independent basis, Debye):
    X=              3.1977    Y=              0.8300    Z=              1.4162  Tot=              3.5944

 Test job not archived.
 1\1\GINC-SE454\SP\RHF\Aug-CC-pVDZ\C5H8O2\OHZDE\09-Apr-2025\0\\#t hf au
 g-cc-pvdz iop(5/13=1,5/36=2,99/5=2) pseudo=read geom=check guess=(read
 ,tcheck) scf=(maxcycle=1)\\title\\0,1\O,0,1.52187509,0.0525158,2.56617
 823\C,0,1.67366275,0.20676357,-1.14319257\C,0,0.47049845,0.15126702,-0
 .60752966\O,0,-0.07962267,1.04185397,0.31208441\C,0,-1.21091757,0.1616
 5925,0.48039802\C,0,-1.95590174,0.07102795,-0.79121905\C,0,-0.70127947
 ,-0.76219017,-0.59058193\H,0,1.0710825,0.65165767,1.96048886\H,0,2.347
 91267,1.02039146,-0.91285615\H,0,1.99103892,-0.56606256,-1.82788349\H,

 Normal termination of Gaussian 16 at Wed Apr  9 17:32:44 2025.
