 Gaussian 16, Revision C.01,

 ----------------------------------------------------------------------
 #t hf aug-cc-pvdz symm=none int=(grid=ultrafine) guess=(read,tcheck) s
 table=(opt,rrhf)
 ----------------------------------------------------------------------
 -----
 title
 -----
 Symbolic Z-matrix:
 Charge =  0 Multiplicity = 1

 SCF Done:  E(RHF) =  -306.651860818     A.U. after   13 cycles
 Normal termination of Gaussian 16 at Wed Apr  9 18:52:46 2025.
 Gaussian 16:  ES64L-G16RevC.01  3-Jul-2019

 ----------------------------------------------------------------------
 #t hf aug-cc-pvdz iop(5/13=1,5/36=2,99/5=2) pseudo=read geom=check gue
 ss=(read,tcheck) scf=(maxcycle=1)
 ----------------------------------------------------------------------
 -----
 title
 -----
 Structure from the checkpoint file:  "Grambow2020_wb97xd3_008155_forward_mol2.chk"
 Charge =  0 Multiplicity = 1

                         Standard orientation:
 ---------------------------------------------------------------------
 Center     Atomic      Atomic             Coordinates (Angstroms)
 Number     Number       Type             X           Y           Z
 ---------------------------------------------------------------------
      1          8           0        2.129689   -0.141501   -0.077477
      2          6           0        0.766182    0.053790   -0.045821
      3          6           0        0.014239    1.340399   -0.319328
      4          6           0       -1.169409    0.639968    0.388779
      5          6           0       -1.563893   -0.506126   -0.569316
      6          6           0       -0.215204   -1.106698   -0.220431
      7          6           0       -0.138726   -0.329266    1.073335
      8          1           0        2.385454   -0.386322   -0.969245
      9          1           0       -0.134660    1.667272   -1.353059
     10          1           0        0.420010    2.154094    0.282945
     11          1           0       -1.923805    1.227000    0.903670
     12          1           0       -2.382979   -1.104740   -0.168119
     13          1           0       -1.773199   -0.240078   -1.609736
     14          1           0        0.159493   -2.105358   -0.400415
     15          1           0        0.053032   -0.632258    2.090471
 ---------------------------------------------------------------------

 SCF Done:  E(RHF) =  -306.973685227     A.U. after    2 cycles

 The electronic state is 1-A.
 Alpha  occ. eigenvalues --  -20.55802 -11.28855 -11.24347 -11.23576 -11.23173
 Alpha  occ. eigenvalues --  -11.23141 -11.22929  -1.46719  -1.24042  -0.98015
 Alpha  occ. eigenvalues --   -0.96668  -0.85669  -0.77034  -0.73538  -0.72053
 Alpha  occ. eigenvalues --   -0.64355  -0.62268  -0.61858  -0.59679  -0.53891
 Alpha  occ. eigenvalues --   -0.51965  -0.48359  -0.46001  -0.45004  -0.38349
 Alpha  occ. eigenvalues --   -0.37537
 Alpha virt. eigenvalues --    0.03355   0.03681   0.03908   0.04178   0.05850
 Alpha virt. eigenvalues --    0.06169   0.06554   0.06954   0.10752   0.12032
 Alpha virt. eigenvalues --    0.12678   0.12968   0.13857   0.14270   0.14944

 Mulliken charges:
               1
     1  O   -1.545061
     2  C    1.667876
     3  C   -0.172566
     4  C    0.268058
     5  C   -0.064152
     6  C    0.199451
     7  C   -0.093211
     8  H    0.192515
     9  H    0.002905
    10  H    0.121470
    11  H   -0.156306
    12  H    0.064383
    13  H    0.011394
    14  H   -0.224933
    15  H   -0.271823
 Sum of Mulliken charges =  -0.00000

 Dipole moment (field-independent basis, Debye):
    X=             -0.8521    Y=             -0.2245    Z=             -1.0396  Tot=              1.3628

 Test job not archived.
 1\1\GINC-SE219\SP\RHF\Aug-CC-pVDZ\C6H8O1\OHZDE\09-Apr-2025\0\\#t hf au
 g-cc-pvdz iop(5/13=1,5/36=2,99/5=2) pseudo=read geom=check guess=(read
 ,tcheck) scf=(maxcycle=1)\\title\\0,1\O,0,2.1528621,0.8754598,-0.41753
 088\C,0,0.93166244,0.27767679,-0.19477896\C,0,0.67296142,-1.13569249,0
 .28589593\C,0,-0.76297072,-0.90762725,-0.2424293\C,0,-1.35014023,0.167
 91137,0.69860381\C,0,-0.32740829,1.10206271,0.07993508\C,0,-0.20462406
 ,0.2422897,-1.15691378\H,0,2.44899534,1.28499788,0.39805833\H,0,0.7910
 8387,-1.3730334,1.34765527\H,0,1.21931602,-1.85275018,-0.3279488\H,0,-

 Normal termination of Gaussian 16 at Wed Apr  9 18:52:51 2025.
