 Gaussian 16, Revision C.01,

 ----------------------------------------------------------------------
 #t hf aug-cc-pvdz symm=none int=(grid=ultrafine) guess=(read,tcheck) s
 table=(opt,rrhf)
 ----------------------------------------------------------------------
 -----
 title
 -----
 Symbolic Z-matrix:
 Charge =  0 Multiplicity = 1

 SCF Done:  E(RHF) =  -269.572552383     A.U. after   13 cycles
 Normal termination of Gaussian 16 at Wed Apr  9 18:51:53 2025.
 Gaussian 16:  ES64L-G16RevC.01  3-Jul-2019

 ----------------------------------------------------------------------
 #t hf aug-cc-pvdz iop(5/13=1,5/36=2,99/5=2) pseudo=read geom=check gue
 ss=(read,tcheck) scf=(maxcycle=1)
 ----------------------------------------------------------------------
 -----
 title
 -----
 Structure from the checkpoint file:  "Grambow2020_wb97xd3_008143_forward_mol2.chk"
 Charge =  0 Multiplicity = 1

                         Standard orientation:
 ---------------------------------------------------------------------
 Center     Atomic      Atomic             Coordinates (Angstroms)
 Number     Number       Type             X           Y           Z
 ---------------------------------------------------------------------
      1          6           0        2.184985    0.271971   -0.000090
      2          6           0        0.708070    0.087807   -0.000311
      3          6           0       -0.463110    1.109736   -0.000424
      4          6           0       -1.324433    0.123987    0.755522
      5          6           0       -1.325045    0.123928   -0.755345
      6          6           0       -0.158395   -0.892716   -0.758343
      7          6           0       -0.158140   -0.892134    0.758734
      8          1           0        2.689056   -0.697234    0.003479
      9          1           0        2.515561    0.819127   -0.886437
     10          1           0        2.514767    0.825383    0.882692
     11          1           0       -0.490727    2.190087   -0.000289
     12          1           0       -2.135886    0.311895    1.443109
     13          1           0       -2.137474    0.309623   -1.442319
     14          1           0        0.130897   -1.677682   -1.442413
     15          1           0        0.130219   -1.676678    1.443713
 ---------------------------------------------------------------------

 SCF Done:  E(RHF) =  -269.859634385     A.U. after    2 cycles

 The electronic state is 1-A.
 Alpha  occ. eigenvalues --  -11.23742 -11.23479 -11.23429 -11.23188 -11.23152
 Alpha  occ. eigenvalues --  -11.23117 -11.22788  -1.27786  -1.02879  -0.96407
 Alpha  occ. eigenvalues --   -0.87643  -0.84875  -0.72349  -0.71610  -0.68056
 Alpha  occ. eigenvalues --   -0.61594  -0.58856  -0.58331  -0.54714  -0.54249
 Alpha  occ. eigenvalues --   -0.54224  -0.41772  -0.41499  -0.34715  -0.34219
 Alpha virt. eigenvalues --    0.03502   0.03768   0.03802   0.03897   0.05556
 Alpha virt. eigenvalues --    0.05611   0.06625   0.06838   0.09936   0.11935
 Alpha virt. eigenvalues --    0.12514   0.12674   0.13569   0.13611   0.14385

 Mulliken charges:
               1
     1  C   -0.853082
     2  C    0.258918
     3  C    0.227389
     4  C    0.313568
     5  C    0.313897
     6  C    0.247964
     7  C    0.249624
     8  H    0.178395
     9  H    0.228562
    10  H    0.228343
    11  H   -0.269974
    12  H   -0.244015
    13  H   -0.244268
    14  H   -0.317587
    15  H   -0.317733
 Sum of Mulliken charges =   0.00000

 Dipole moment (field-independent basis, Debye):
    X=              0.1985    Y=              0.0556    Z=              0.0010  Tot=              0.2062

 Test job not archived.
 1\1\GINC-SE014\SP\RHF\Aug-CC-pVDZ\C7H8\OHZDE\09-Apr-2025\0\\#t hf aug-
 cc-pvdz iop(5/13=1,5/36=2,99/5=2) pseudo=read geom=check guess=(read,t
 check) scf=(maxcycle=1)\\title\\0,1\C,0,2.02162394,-0.01317376,0.01820
 906\C,0,0.53336222,-0.00306,0.00524486\C,0,-0.50802043,-1.13196966,-0.
 23368059\C,0,-1.47275291,-0.12114766,-0.81036455\C,0,-1.4885267,-0.420
 72821,0.6704202\C,0,-0.45104461,0.70190177,0.91120975\C,0,-0.43550054,
 1.00216343,-0.57577526\H,0,2.40695962,0.98871085,0.22119603\H,0,2.4059
 6936,-0.68368211,0.79084638\H,0,2.42367391,-0.33908809,-0.94431868\H,0

 Normal termination of Gaussian 16 at Wed Apr  9 18:51:58 2025.
