 Gaussian 16, Revision C.01,

 ----------------------------------------------------------------------
 #t hf aug-cc-pvdz symm=none int=(grid=ultrafine) guess=(read,tcheck) s
 table=(opt,rrhf)
 ----------------------------------------------------------------------
 -----
 title
 -----
 Symbolic Z-matrix:
 Charge =  0 Multiplicity = 1

 SCF Done:  E(RHF) =  -302.823952403     A.U. after   14 cycles
 Normal termination of Gaussian 16 at Wed Apr  9 18:12:15 2025.
 Gaussian 16:  ES64L-G16RevC.01  3-Jul-2019

 ----------------------------------------------------------------------
 #t hf aug-cc-pvdz iop(5/13=1,5/36=2,99/5=2) pseudo=read geom=check gue
 ss=(read,tcheck) scf=(maxcycle=1)
 ----------------------------------------------------------------------
 -----
 title
 -----
 Structure from the checkpoint file:  "Grambow2020_wb97xd3_007174_reverse_mol2.chk"
 Charge =  0 Multiplicity = 1

                         Standard orientation:
 ---------------------------------------------------------------------
 Center     Atomic      Atomic             Coordinates (Angstroms)
 Number     Number       Type             X           Y           Z
 ---------------------------------------------------------------------
      1          6           0        2.470032    0.022491   -0.155475
      2          6           0        0.988825   -0.029992   -0.393859
      3          6           0        0.058781   -0.764246    0.487865
      4          7           0        0.145213    0.672519    0.574037
      5          6           0       -1.143525    1.159769    0.029324
      6          6           0       -1.985786   -0.012616   -0.414435
      7          7           0       -1.245739   -1.041137   -0.096616
      8          1           0        2.687721   -0.056927    0.909941
      9          1           0        2.879930    0.969219   -0.512619
     10          1           0        2.978088   -0.790155   -0.678727
     11          1           0        0.672686    0.020248   -1.434766
     12          1           0       -1.542088   -1.989191   -0.267531
     13          1           0        0.363004   -1.391070    1.319592
     14          1           0       -1.686638    1.712403    0.800839
     15          1           0       -0.978983    1.853362   -0.799203
 ---------------------------------------------------------------------

 SCF Done:  E(RHF) =  -303.141871090     A.U. after    2 cycles

 The electronic state is 1-A.
 Alpha  occ. eigenvalues --  -15.55172 -15.50607 -11.30488 -11.27553 -11.25887
 Alpha  occ. eigenvalues --  -11.25160 -11.23584  -1.34529  -1.22362  -1.04691
 Alpha  occ. eigenvalues --   -0.99018  -0.86869  -0.85508  -0.81734  -0.75238
 Alpha  occ. eigenvalues --   -0.66523  -0.61937  -0.61067  -0.59219  -0.56308
 Alpha  occ. eigenvalues --   -0.54904  -0.53455  -0.50434  -0.48783  -0.40644
 Alpha  occ. eigenvalues --   -0.35780
 Alpha virt. eigenvalues --    0.03202   0.03955   0.04260   0.04695   0.05489
 Alpha virt. eigenvalues --    0.05680   0.06612   0.06980   0.09246   0.10905
 Alpha virt. eigenvalues --    0.11489   0.12307   0.13046   0.14203   0.14587

 Mulliken charges:
               1
     1  C   -0.549800
     2  C   -0.141172
     3  C   -0.644185
     4  N    0.606297
     5  C   -0.174747
     6  C   -0.470213
     7  N    0.813886
     8  H    0.178365
     9  H    0.226779
    10  H    0.239880
    11  H   -0.206637
    12  H    0.103587
    13  H   -0.171506
    14  H    0.065686
    15  H    0.123782
 Sum of Mulliken charges =  -0.00000

 Dipole moment (field-independent basis, Debye):
    X=              2.3061    Y=             -1.7836    Z=             -0.1889  Tot=              2.9215

 Test job not archived.
 1\1\GINC-SE030\SP\RHF\Aug-CC-pVDZ\C5H8N2\OHZDE\09-Apr-2025\0\\#t hf au
 g-cc-pvdz iop(5/13=1,5/36=2,99/5=2) pseudo=read geom=check guess=(read
 ,tcheck) scf=(maxcycle=1)\\title\\0,1\C,0,-1.80864921,-0.99280063,0.70
 362798\C,0,-0.49738343,-0.6115633,0.08009307\C,0,-0.23499259,0.7285354
 6,-0.48278772\N,0,0.30970932,0.37176445,0.80376018\C,0,1.76925854,0.25
 921854,0.57567969\C,0,2.08022377,0.52243495,-0.87856661\N,0,0.90736673
 ,0.79932375,-1.38282166\H,0,-2.28848705,-0.11950406,1.14625041\H,0,-1.
 65430895,-1.72876963,1.49507611\H,0,-2.48261761,-1.42445114,-0.0391726

 Normal termination of Gaussian 16 at Wed Apr  9 18:12:20 2025.
