 Gaussian 16, Revision C.01,

 ----------------------------------------------------------------------
 #t hf aug-cc-pvdz symm=none int=(grid=ultrafine) guess=(read,tcheck) s
 table=(opt,rrhf)
 ----------------------------------------------------------------------
 -----
 title
 -----
 Symbolic Z-matrix:
 Charge =  0 Multiplicity = 1

 SCF Done:  E(RHF) =  -301.527653117     A.U. after   15 cycles
 Normal termination of Gaussian 16 at Wed Apr  9 18:38:42 2025.
 Gaussian 16:  ES64L-G16RevC.01  3-Jul-2019

 ----------------------------------------------------------------------
 #t hf aug-cc-pvdz iop(5/13=1,5/36=2,99/5=2) pseudo=read geom=check gue
 ss=(read,tcheck) scf=(maxcycle=1)
 ----------------------------------------------------------------------
 -----
 title
 -----
 Structure from the checkpoint file:  "Grambow2020_wb97xd3_007933_reverse_mol1.chk"
 Charge =  0 Multiplicity = 1

                         Standard orientation:
 ---------------------------------------------------------------------
 Center     Atomic      Atomic             Coordinates (Angstroms)
 Number     Number       Type             X           Y           Z
 ---------------------------------------------------------------------
      1          6           0       -1.576139    0.716570    0.236940
      2          6           0       -1.520662   -0.818792    0.206660
      3          6           0       -0.233282   -0.594563   -0.430320
      4          7           0        0.916775   -1.197904   -0.054393
      5          6           0        1.742578   -0.096994    0.208603
      6          6           0        1.085481    1.074976    0.029622
      7          7           0       -0.198315    0.753382   -0.452457
      8          1           0       -1.481008    1.171193    1.220376
      9          1           0       -2.337189    1.225005   -0.355894
     10          1           0       -0.099488   -1.388755    0.769246
     11          1           0       -2.316965   -1.436592   -0.186729
     12          1           0        2.778952   -0.235668    0.476645
     13          1           0        1.438619    2.089285    0.115280
 ---------------------------------------------------------------------

 SCF Done:  E(RHF) =  -301.841873609     A.U. after    2 cycles

 The electronic state is 1-A.
 Alpha  occ. eigenvalues --  -15.54638 -15.51508 -11.34382 -11.29887 -11.28491
 Alpha  occ. eigenvalues --  -11.27945 -11.21888  -1.38184  -1.21995  -1.10508
 Alpha  occ. eigenvalues --   -0.96418  -0.90352  -0.85764  -0.75328  -0.72989
 Alpha  occ. eigenvalues --   -0.71106  -0.64722  -0.61771  -0.57581  -0.55272
 Alpha  occ. eigenvalues --   -0.52971  -0.52456  -0.48857  -0.39693  -0.30208
 Alpha virt. eigenvalues --    0.03449   0.04245   0.04418   0.05038   0.05199
 Alpha virt. eigenvalues --    0.06100   0.08102   0.09069   0.09863   0.11141
 Alpha virt. eigenvalues --    0.11495   0.11927   0.13048   0.14431   0.14673

 Mulliken charges:
               1
     1  C    0.003737
     2  C   -0.007058
     3  C   -2.199665
     4  N    0.708206
     5  C   -0.045772
     6  C    0.191630
     7  N    0.755313
     8  H    0.044809
     9  H   -0.004473
    10  H    0.946196
    11  H   -0.122731
    12  H   -0.092943
    13  H   -0.177249
 Sum of Mulliken charges =  -0.00000

 Dipole moment (field-independent basis, Debye):
    X=             -0.2753    Y=              2.1679    Z=              0.6336  Tot=              2.2753

 Test job not archived.
 1\1\GINC-SE135\SP\RHF\Aug-CC-pVDZ\C5H6N2\OHZDE\09-Apr-2025\0\\#t hf au
 g-cc-pvdz iop(5/13=1,5/36=2,99/5=2) pseudo=read geom=check guess=(read
 ,tcheck) scf=(maxcycle=1)\\title\\0,1\C,0,-1.42794949,-0.62267735,0.07
 524748\C,0,-1.36817748,0.90751928,0.20275151\C,0,0.00223243,0.65382524
 ,0.61625626\N,0,1.08036192,1.29353539,0.10991794\C,0,1.8553147,0.22194
 27,-0.35296209\C,0,1.23362189,-0.96637622,-0.15618742\N,0,0.03996034,-
 0.69203594,0.5394157\H,0,-1.4862472,-1.00796149,-0.94015251\H,0,-2.088
 17385,-1.17844654,0.74186693\H,0,-0.0510911,1.52955056,-0.53172547\H,0

 Normal termination of Gaussian 16 at Wed Apr  9 18:38:46 2025.
