 Gaussian 16, Revision C.01,

 ----------------------------------------------------------------------
 #t hf aug-cc-pvdz symm=none int=(grid=ultrafine) guess=(read,tcheck) s
 table=(opt,rrhf)
 ----------------------------------------------------------------------
 -----
 title
 -----
 Symbolic Z-matrix:
 Charge =  0 Multiplicity = 1

 SCF Done:  E(RHF) =  -307.773280580     A.U. after   15 cycles

 1\1\GINC-SE173\Stability\RHF\Aug-CC-pVDZ\C6H10O1\OHZDE\09-Apr-2025\0\\
 #t hf aug-cc-pvdz symm=none int=(grid=ultrafine) guess=(read,tcheck) s
 table=(opt,rrhf)\\title\\0,1\C,0,2.52185287,-0.03955427,-0.92393418\C,
 0,1.35547029,-0.0987695,-0.04397076\C,0,0.3393915,0.90495052,-0.386741
 21\C,0,-1.08974929,0.56017612,-0.00416983\O,0,-1.53443751,-0.62112176,
 -0.69517861\C,0,-1.74581442,-1.3178626,0.54549947\C,0,-1.32867088,-0.0
 9292423,1.36268594\H,0,3.44110169,-0.42577057,-0.48432736\H,0,2.692339
 27,0.88884241,-1.48829978\H,0,2.20173615,-0.80363134,-1.65891872\H,0,-

 Normal termination of Gaussian 16 at Wed Apr  9 19:04:05 2025.
 Gaussian 16:  ES64L-G16RevC.01  3-Jul-2019

 ----------------------------------------------------------------------
 #t hf aug-cc-pvdz iop(5/13=1,5/36=2,99/5=2) pseudo=read geom=check gue
 ss=(read,tcheck) scf=(maxcycle=1)
 ----------------------------------------------------------------------
 -----
 title
 -----
 Structure from the checkpoint file:  "Grambow2020_wb97xd3_008501_reverse_mol2.chk"
 Charge =  0 Multiplicity = 1

                         Standard orientation:
 ---------------------------------------------------------------------
 Center     Atomic      Atomic             Coordinates (Angstroms)
 Number     Number       Type             X           Y           Z
 ---------------------------------------------------------------------
      1          6           0        2.821255   -0.474174    0.054657
      2          6           0        1.447176   -0.256577    0.505044
      3          6           0        0.795263    0.859142   -0.193200
      4          6           0       -0.719364    0.789497   -0.286616
      5          8           0       -1.133929   -0.367037   -1.035796
      6          6           0       -1.850841   -0.893958    0.094603
      7          6           0       -1.493630    0.322389    0.952029
      8          1           0        3.466762   -0.958338    0.787009
      9          1           0        3.329694    0.353872   -0.460439
     10          1           0        2.613703   -1.245545   -0.712415
     11          1           0       -0.869922    0.104598    1.816102
     12          1           0        1.073230    1.688899    0.486802
     13          1           0        1.230274    1.120321   -1.171525
     14          1           0       -1.104652    1.704311   -0.750211
     15          1           0       -1.423381   -1.841083    0.432076
     16          1           0       -2.912122   -1.026984   -0.131624
     17          1           0       -2.331307    0.958330    1.231488
 ---------------------------------------------------------------------

 SCF Done:  E(RHF) =  -308.097137594     A.U. after    2 cycles

 The electronic state is 1-A.
 Alpha  occ. eigenvalues --  -20.52836 -11.28615 -11.27617 -11.26457 -11.24085
 Alpha  occ. eigenvalues --  -11.23960 -11.22530  -1.45843  -1.09310  -1.02116
 Alpha  occ. eigenvalues --   -0.98327  -0.89093  -0.77834  -0.71361  -0.69275
 Alpha  occ. eigenvalues --   -0.65901  -0.63395  -0.59236  -0.59029  -0.57956
 Alpha  occ. eigenvalues --   -0.54452  -0.53262  -0.50487  -0.46542  -0.45407
 Alpha  occ. eigenvalues --   -0.40103  -0.34606
 Alpha virt. eigenvalues --    0.03403   0.03634   0.04059   0.04422   0.05767
 Alpha virt. eigenvalues --    0.06013   0.06144   0.06953   0.07452   0.09030
 Alpha virt. eigenvalues --    0.09584   0.10660   0.12017   0.13081   0.13927

 Mulliken charges:
               1
     1  C   -0.445784
     2  C   -0.330877
     3  C   -0.409713
     4  C    1.014020
     5  O   -1.412035
     6  C    0.606705
     7  C   -0.162659
     8  H    0.135368
     9  H    0.114363
    10  H    0.327707
    11  H    0.053016
    12  H    0.381883
    13  H    0.105997
    14  H   -0.028311
    15  H    0.039698
    16  H   -0.000016
    17  H    0.010637
 Sum of Mulliken charges =  -0.00000

 Dipole moment (field-independent basis, Debye):
    X=              0.8600    Y=              1.5536    Z=              0.4574  Tot=              1.8337

 Test job not archived.
 1\1\GINC-SE173\SP\RHF\Aug-CC-pVDZ\C6H10O1\OHZDE\09-Apr-2025\0\\#t hf a
 ug-cc-pvdz iop(5/13=1,5/36=2,99/5=2) pseudo=read geom=check guess=(rea
 d,tcheck) scf=(maxcycle=1)\\title\\0,1\C,0,2.52185287,-0.03955427,-0.9
 2393418\C,0,1.35547029,-0.0987695,-0.04397076\C,0,0.3393915,0.90495052
 ,-0.38674121\C,0,-1.08974929,0.56017612,-0.00416983\O,0,-1.53443751,-0
 .62112176,-0.69517861\C,0,-1.74581442,-1.3178626,0.54549947\C,0,-1.328
 67088,-0.09292423,1.36268594\H,0,3.44110169,-0.42577057,-0.48432736\H,
 0,2.69233927,0.88884241,-1.48829978\H,0,2.20173615,-0.80363134,-1.6589

 Normal termination of Gaussian 16 at Wed Apr  9 19:04:11 2025.
