 Gaussian 16, Revision C.01,

 ----------------------------------------------------------------------
 #t hf aug-cc-pvdz symm=none int=(grid=ultrafine) guess=(read,tcheck) s
 table=(opt,rrhf)
 ----------------------------------------------------------------------
 -----
 title
 -----
 Symbolic Z-matrix:
 Charge =  0 Multiplicity = 1

 SCF Done:  E(RHF) =  -345.878525915     A.U. after   16 cycles

 1\1\GINC-SE454\Stability\RHF\Aug-CC-pVDZ\C5H12O2\OHZDE\09-Apr-2025\0\\
 #t hf aug-cc-pvdz symm=none int=(grid=ultrafine) guess=(read,tcheck) s
 table=(opt,rrhf)\\title\\0,1\C,0,2.07501426,-0.65080712,1.36903232\C,0
 ,0.75951782,1.30471764,0.88321877\C,0,0.31150512,0.56257644,-0.2622748
 9\O,0,0.97835052,-0.8450667,-0.136585\C,0,-1.18909234,0.27529919,-0.40
 777932\C,0,-1.57987052,-0.19084892,-1.79926186\O,0,-1.51116792,-0.7160
 1531,0.57037483\H,0,2.30294696,-1.70021695,1.18348501\H,0,2.90407165,-
 0.00025518,1.14406379\H,0,1.63200738,-0.48019442,2.33687885\H,0,0.0460

 Normal termination of Gaussian 16 at Wed Apr  9 18:48:03 2025.
 Gaussian 16:  ES64L-G16RevC.01  3-Jul-2019

 ----------------------------------------------------------------------
 #t hf aug-cc-pvdz iop(5/13=1,5/36=2,99/5=2) pseudo=read geom=check gue
 ss=(read,tcheck) scf=(maxcycle=1)
 ----------------------------------------------------------------------
 -----
 title
 -----
 Structure from the checkpoint file:  "Grambow2020_wb97xd3_008072_reverse_mol1.chk"
 Charge =  0 Multiplicity = 1

                         Standard orientation:
 ---------------------------------------------------------------------
 Center     Atomic      Atomic             Coordinates (Angstroms)
 Number     Number       Type             X           Y           Z
 ---------------------------------------------------------------------
      1          6           0        2.487892   -0.596683   -0.023450
      2          6           0        1.134020    1.355135    0.361336
      3          6           0        0.137723    0.658447   -0.403950
      4          8           0        0.755919   -0.741274   -0.721055
      5          6           0       -1.212264    0.351238    0.258358
      6          6           0       -2.288631   -0.057468   -0.731904
      7          8           0       -0.972843   -0.689574    1.208416
      8          1           0        2.572179   -1.632201   -0.352451
      9          1           0        3.075608    0.078304   -0.623573
     10          1           0        2.630264   -0.478681    1.038574
     11          1           0        0.958030    1.480565    1.425565
     12          1           0        1.652405    2.178497   -0.116636
     13          1           0       -0.021421    1.054736   -1.406953
     14          1           0        0.338498   -1.336931   -0.071967
     15          1           0       -1.525504    1.255272    0.790334
     16          1           0       -1.978740   -0.939260   -1.296309
     17          1           0       -3.227618   -0.283157   -0.218470
     18          1           0       -2.485246    0.751936   -1.437155
     19          1           0       -1.805506   -0.946314    1.607810
 ---------------------------------------------------------------------

 SCF Done:  E(RHF) =  -346.244859724     A.U. after    2 cycles

 The electronic state is 1-A.
 Alpha  occ. eigenvalues --  -20.57039 -20.56057 -11.31906 -11.29039 -11.27332
 Alpha  occ. eigenvalues --  -11.23138 -11.14527  -1.47275  -1.43740  -1.05435
 Alpha  occ. eigenvalues --   -0.97172  -0.94628  -0.84754  -0.77003  -0.72363
 Alpha  occ. eigenvalues --   -0.67191  -0.63877  -0.62349  -0.60670  -0.58611
 Alpha  occ. eigenvalues --   -0.58307  -0.56296  -0.53910  -0.52047  -0.50269
 Alpha  occ. eigenvalues --   -0.46784  -0.45953  -0.44621  -0.23611
 Alpha virt. eigenvalues --    0.03154   0.03538   0.04070   0.04540   0.05704
 Alpha virt. eigenvalues --    0.05968   0.06248   0.06994   0.07665   0.08868
 Alpha virt. eigenvalues --    0.09446   0.10328   0.11657   0.12743   0.13394

 Mulliken charges:
               1
     1  C   -0.010062
     2  C   -0.189321
     3  C    0.901478
     4  O   -1.267598
     5  C    0.844448
     6  C   -0.320474
     7  O   -1.385607
     8  H    0.006547
     9  H    0.173667
    10  H    0.207456
    11  H   -0.182483
    12  H   -0.126634
    13  H   -0.102848
    14  H    0.558599
    15  H    0.086163
    16  H    0.202705
    17  H    0.095973
    18  H    0.207047
    19  H    0.300944
 Sum of Mulliken charges =  -0.00000

 Dipole moment (field-independent basis, Debye):
    X=             -1.3457    Y=             -2.0433    Z=              0.0561  Tot=              2.4473

 Test job not archived.
 1\1\GINC-SE454\SP\RHF\Aug-CC-pVDZ\C5H12O2\OHZDE\09-Apr-2025\0\\#t hf a
 ug-cc-pvdz iop(5/13=1,5/36=2,99/5=2) pseudo=read geom=check guess=(rea
 d,tcheck) scf=(maxcycle=1)\\title\\0,1\C,0,2.07501426,-0.65080712,1.36
 903232\C,0,0.75951782,1.30471764,0.88321877\C,0,0.31150512,0.56257644,
 -0.26227489\O,0,0.97835052,-0.8450667,-0.136585\C,0,-1.18909234,0.2752
 9919,-0.40777932\C,0,-1.57987052,-0.19084892,-1.79926186\O,0,-1.511167
 92,-0.71601531,0.57037483\H,0,2.30294696,-1.70021695,1.18348501\H,0,2.
 90407165,-0.00025518,1.14406379\H,0,1.63200738,-0.48019442,2.33687885\

 Normal termination of Gaussian 16 at Wed Apr  9 18:48:10 2025.
