 Gaussian 16, Revision C.01,

 ----------------------------------------------------------------------
 #t hf aug-cc-pvdz symm=none int=(grid=ultrafine) guess=(read,tcheck) s
 table=(opt,rrhf)
 ----------------------------------------------------------------------
 -----
 title
 -----
 Symbolic Z-matrix:
 Charge =  0 Multiplicity = 1

 SCF Done:  E(RHF) =  -302.843809348     A.U. after   15 cycles
 Normal termination of Gaussian 16 at Wed Apr  9 18:45:42 2025.
 Gaussian 16:  ES64L-G16RevC.01  3-Jul-2019

 ----------------------------------------------------------------------
 #t hf aug-cc-pvdz iop(5/13=1,5/36=2,99/5=2) pseudo=read geom=check gue
 ss=(read,tcheck) scf=(maxcycle=1)
 ----------------------------------------------------------------------
 -----
 title
 -----
 Structure from the checkpoint file:  "Grambow2020_wb97xd3_008038_reverse_mol2.chk"
 Charge =  0 Multiplicity = 1

                         Standard orientation:
 ---------------------------------------------------------------------
 Center     Atomic      Atomic             Coordinates (Angstroms)
 Number     Number       Type             X           Y           Z
 ---------------------------------------------------------------------
      1          6           0       -2.000525   -1.192867    0.059471
      2          6           0       -0.504493   -1.135713   -0.219954
      3          6           0        2.455598   -0.673203   -0.355182
      4          7           0        1.636494    0.116174    0.272066
      5          6           0        0.163370    0.052522    0.462026
      6          6           0       -0.416506    1.326086    0.011247
      7          7           0       -0.861101    2.324559   -0.335795
      8          1           0       -2.516049   -0.313244   -0.329238
      9          1           0       -2.436405   -2.071715   -0.415200
     10          1           0       -2.204420   -1.259400    1.130415
     11          1           0       -0.020956   -2.043872    0.145065
     12          1           0       -0.321276   -1.082038   -1.295291
     13          1           0        1.867051   -1.492583   -0.802032
     14          1           0        2.039260    0.926952    0.726793
     15          1           0       -0.019616   -0.010178    1.539947
 ---------------------------------------------------------------------

 SCF Done:  E(RHF) =  -303.154571180     A.U. after    2 cycles

 The electronic state is 1-A.
 Alpha  occ. eigenvalues --  -15.57676 -15.53094 -11.34627 -11.29409 -11.27499
 Alpha  occ. eigenvalues --  -11.26636 -11.25355  -1.29669  -1.25124  -1.11695
 Alpha  occ. eigenvalues --   -1.01437  -0.91042  -0.84705  -0.77307  -0.73785
 Alpha  occ. eigenvalues --   -0.66835  -0.63631  -0.62068  -0.61561  -0.56168
 Alpha  occ. eigenvalues --   -0.54723  -0.53388  -0.52884  -0.52285  -0.50093
 Alpha  occ. eigenvalues --   -0.36798
 Alpha virt. eigenvalues --    0.02700   0.03107   0.03967   0.04196   0.05643
 Alpha virt. eigenvalues --    0.06712   0.07164   0.07913   0.08675   0.09883
 Alpha virt. eigenvalues --    0.10613   0.11728   0.12831   0.13206   0.13625

 Mulliken charges:
               1
     1  C   -0.454305
     2  C    0.087696
     3  C   -0.505373
     4  N    0.969898
     5  C   -0.847226
     6  C   -1.583453
     7  N    1.016693
     8  H    0.231289
     9  H    0.150047
    10  H    0.189858
    11  H    0.186115
    12  H    0.184764
    13  H    0.050769
    14  H    0.180711
    15  H    0.142516
 Sum of Mulliken charges =  -0.00000

 Dipole moment (field-independent basis, Debye):
    X=             -1.7891    Y=             -3.4218    Z=              2.0604  Tot=              4.3766

 Test job not archived.
 1\1\GINC-SE115\SP\RHF\Aug-CC-pVDZ\C5H8N2\OHZDE\09-Apr-2025\0\\#t hf au
 g-cc-pvdz iop(5/13=1,5/36=2,99/5=2) pseudo=read geom=check guess=(read
 ,tcheck) scf=(maxcycle=1)\\title\\0,1\C,0,1.75571683,-0.76958637,-0.42
 252275\C,0,0.70801272,0.31972758,-0.23499033\C,0,-1.58382231,2.1162115
 2,0.48228428\N,0,-1.57694606,0.83828045,0.71537813\C,0,-0.54863189,-0.
 20246167,0.45145237\C,0,-1.17376308,-1.28425456,-0.3233747\N,0,-1.6697
 3995,-2.12745515,-0.92176585\H,0,1.39089228,-1.57187067,-1.0658256\H,0
 ,2.6503811,-0.35255513,-0.88440894\H,0,2.05033582,-1.20895282,0.533028

 Normal termination of Gaussian 16 at Wed Apr  9 18:45:47 2025.
