 Gaussian 16, Revision C.01,

 ----------------------------------------------------------------------
 #t hf aug-cc-pvdz symm=none int=(grid=ultrafine) guess=(read,tcheck) s
 table=(opt,rrhf)
 ----------------------------------------------------------------------
 -----
 title
 -----
 Symbolic Z-matrix:
 Charge =  0 Multiplicity = 1

 SCF Done:  E(RHF) =  -380.596684560     A.U. after   15 cycles
 Normal termination of Gaussian 16 at Wed Apr  9 18:23:22 2025.
 Gaussian 16:  ES64L-G16RevC.01  3-Jul-2019

 ----------------------------------------------------------------------
 #t hf aug-cc-pvdz iop(5/13=1,5/36=2,99/5=2) pseudo=read geom=check gue
 ss=(read,tcheck) scf=(maxcycle=1)
 ----------------------------------------------------------------------
 -----
 title
 -----
 Structure from the checkpoint file:  "Grambow2020_wb97xd3_007511_forward_mol1.chk"
 Charge =  0 Multiplicity = 1

                         Standard orientation:
 ---------------------------------------------------------------------
 Center     Atomic      Atomic             Coordinates (Angstroms)
 Number     Number       Type             X           Y           Z
 ---------------------------------------------------------------------
      1          8           0        1.906433   -1.187679   -0.471346
      2          6           0        1.881671    0.112171   -0.247373
      3          6           0        0.906333    0.648764    0.792444
      4          6           0       -0.471101    0.540068    0.163022
      5          8           0       -0.881766    1.383777   -0.595771
      6          6           0       -1.278192   -0.691685    0.466302
      7          8           0       -2.500592   -0.695218   -0.197285
      8          1           0        2.975574   -0.460043    0.104746
      9          1           0        2.005401    0.798961   -1.100538
     10          1           0        3.105321    0.460098    0.365217
     11          1           0        1.104353    1.697878    1.015445
     12          1           0        0.975631    0.038234    1.692756
     13          1           0       -0.649342   -1.549499    0.183567
     14          1           0       -1.423508   -0.747976    1.554030
     15          1           0       -2.518305    0.099390   -0.746370
 ---------------------------------------------------------------------

 SCF Done:  E(RHF) =  -380.984828645     A.U. after    2 cycles

 The electronic state is 1-A.
 Alpha  occ. eigenvalues --  -20.56687 -20.55000 -20.51040 -11.39507 -11.36498
 Alpha  occ. eigenvalues --  -11.30148 -11.28280  -1.51140  -1.45608  -1.44708
 Alpha  occ. eigenvalues --   -1.09757  -0.99608  -0.90091  -0.78603  -0.75996
 Alpha  occ. eigenvalues --   -0.72605  -0.68443  -0.67538  -0.65460  -0.61676
 Alpha  occ. eigenvalues --   -0.60068  -0.58029  -0.53727  -0.53232  -0.45270
 Alpha  occ. eigenvalues --   -0.44377  -0.41812  -0.41093
 Alpha virt. eigenvalues --    0.01925   0.03425   0.03975   0.04847   0.06296
 Alpha virt. eigenvalues --    0.06800   0.07071   0.07337   0.09527   0.10957
 Alpha virt. eigenvalues --    0.11271   0.12987   0.13600   0.14287   0.14478

 Mulliken charges:
               1
     1  O   -1.356193
     2  C    0.614304
     3  C   -0.018584
     4  C    1.034352
     5  O   -1.460973
     6  C    0.690892
     7  O   -1.206745
     8  H    0.234626
     9  H    0.145866
    10  H    0.208967
    11  H    0.163619
    12  H    0.141166
    13  H    0.261790
    14  H    0.252197
    15  H    0.294717
 Sum of Mulliken charges =  -0.00000

 Dipole moment (field-independent basis, Debye):
    X=              3.2983    Y=              2.3822    Z=              2.7210  Tot=              4.8946

 Test job not archived.
 1\1\GINC-SE113\SP\RHF\Aug-CC-pVDZ\C4H8O3\OHZDE\09-Apr-2025\0\\#t hf au
 g-cc-pvdz iop(5/13=1,5/36=2,99/5=2) pseudo=read geom=check guess=(read
 ,tcheck) scf=(maxcycle=1)\\title\\0,1\O,0,-1.00173336,1.82321681,0.061
 60366\C,0,-1.28116588,0.63398481,-0.43642436\C,0,-0.83619214,-0.598514
 55,0.34035098\C,0,0.67080392,-0.67295755,0.17084213\O,0,1.16728143,-1.
 165623,-0.81254349\C,0,1.52195694,-0.04902244,1.24174545\O,0,2.8797787
 4,-0.14495337,0.95584326\H,0,-2.31292284,1.30696911,-0.07502501\H,0,-1
 .21733271,0.48832655,-1.52710644\H,0,-2.68188199,0.46713441,-0.3748328

 Normal termination of Gaussian 16 at Wed Apr  9 18:23:27 2025.
