 Gaussian 16, Revision C.01,

 ----------------------------------------------------------------------
 #t hf aug-cc-pvdz symm=none int=(grid=ultrafine) guess=(read,tcheck) s
 table=(opt,rrhf)
 ----------------------------------------------------------------------
 -----
 title
 -----
 Symbolic Z-matrix:
 Charge =  0 Multiplicity = 1

 SCF Done:  E(RHF) =  -284.637267582     A.U. after   14 cycles
 Normal termination of Gaussian 16 at Wed Apr  9 03:07:21 2025.
 Gaussian 16:  ES64L-G16RevC.01  3-Jul-2019

 ----------------------------------------------------------------------
 #t hf aug-cc-pvdz iop(5/13=1,5/36=2,99/5=2) pseudo=read geom=check gue
 ss=(read,tcheck) scf=(maxcycle=1)
 ----------------------------------------------------------------------
 -----
 title
 -----
 Structure from the checkpoint file:  "Grambow2020_b97d3_006555_forward_mol1.chk"
 Charge =  0 Multiplicity = 1

                         Standard orientation:
 ---------------------------------------------------------------------
 Center     Atomic      Atomic             Coordinates (Angstroms)
 Number     Number       Type             X           Y           Z
 ---------------------------------------------------------------------
      1          8           0        1.918149   -0.491980   -0.416282
      2          6           0        0.849644    0.006598    0.175409
      3          6           0       -0.029694    1.235505   -0.210305
      4          7           0       -1.276255    0.541629    0.290010
      5          6           0       -1.372792   -0.678985   -0.532851
      6          6           0       -0.436120   -0.687910    0.619361
      7          1           0        1.960310    0.016052    0.855299
      8          1           0        1.295408    0.458121    1.486846
      9          1           0       -0.034691    1.469226   -1.283236
     10          1           0        0.175619    2.136711    0.376803
     11          1           0       -0.975009   -0.675440   -1.551235
     12          1           0       -2.312376   -1.217270   -0.406911
     13          1           0       -0.586900   -1.294204    1.512930
 ---------------------------------------------------------------------

 SCF Done:  E(RHF) =  -284.933872640     A.U. after    2 cycles

 The electronic state is 1-A.
 Alpha  occ. eigenvalues --  -20.51091 -15.52962 -11.38780 -11.29435 -11.29079
 Alpha  occ. eigenvalues --  -11.28903  -1.44290  -1.31318  -1.02417  -0.95413
 Alpha  occ. eigenvalues --   -0.86256  -0.79253  -0.75698  -0.67939  -0.65003
 Alpha  occ. eigenvalues --   -0.63152  -0.59198  -0.57031  -0.52975  -0.48927
 Alpha  occ. eigenvalues --   -0.44109  -0.40262  -0.39501
 Alpha virt. eigenvalues --    0.02989   0.03914   0.04345   0.05242   0.05250
 Alpha virt. eigenvalues --    0.06461   0.07188   0.09835   0.10600   0.11626
 Alpha virt. eigenvalues --    0.12357   0.13273   0.14395   0.14443   0.15207

 Mulliken charges:
               1
     1  O   -1.565785
     2  C    1.192399
     3  C   -0.341608
     4  N    0.314935
     5  C    0.103894
     6  C   -0.022731
     7  H    0.131162
     8  H    0.361733
     9  H    0.083668
    10  H    0.032550
    11  H   -0.067637
    12  H   -0.048392
    13  H   -0.174189
 Sum of Mulliken charges =  -0.00000

 Dipole moment (field-independent basis, Debye):
    X=             -0.9619    Y=              0.2411    Z=              1.0682  Tot=              1.4576

 Test job not archived.
 1\1\GINC-SE021\SP\RHF\Aug-CC-pVDZ\C4H7N1O1\OHZDE\09-Apr-2025\0\\#t hf
 aug-cc-pvdz iop(5/13=1,5/36=2,99/5=2) pseudo=read geom=check guess=(re
 ad,tcheck) scf=(maxcycle=1)\\title\\0,1\O,0,-1.37017521,-1.03136605,1.
 24505187\C,0,-0.83786008,-0.28886355,0.29336229\C,0,-0.2009893,1.13279
 889,0.36748866\N,0,0.81025477,0.77075556,-0.69646828\C,0,1.55622253,-0
 .36547442,-0.12302764\C,0,0.2326944,-0.64019797,-0.73770519\H,0,-2.102
 01233,-0.57983788,0.17859504\H,0,-1.92117709,0.00365969,-0.63577677\H,
 0,0.23214837,1.38402942,1.34478365\H,0,-0.85775435,1.93778705,0.021544

 Normal termination of Gaussian 16 at Wed Apr  9 03:07:25 2025.
