 Gaussian 16, Revision C.01,

 ----------------------------------------------------------------------
 #t hf aug-cc-pvdz symm=none int=(grid=ultrafine) guess=(read,tcheck) s
 table=(opt,rrhf)
 ----------------------------------------------------------------------
 -----
 title
 -----
 Symbolic Z-matrix:
 Charge =  0 Multiplicity = 1

 SCF Done:  E(RHF) =  -357.298110984     A.U. after   15 cycles
 Normal termination of Gaussian 16 at Wed Apr  9 19:08:37 2025.
 Gaussian 16:  ES64L-G16RevC.01  3-Jul-2019

 ----------------------------------------------------------------------
 #t hf aug-cc-pvdz iop(5/13=1,5/36=2,99/5=2) pseudo=read geom=check gue
 ss=(read,tcheck) scf=(maxcycle=1)
 ----------------------------------------------------------------------
 -----
 title
 -----
 Structure from the checkpoint file:  "Grambow2020_wb97xd3_008636_forward_mol1.chk"
 Charge =  0 Multiplicity = 1

                         Standard orientation:
 ---------------------------------------------------------------------
 Center     Atomic      Atomic             Coordinates (Angstroms)
 Number     Number       Type             X           Y           Z
 ---------------------------------------------------------------------
      1          7           0        2.253867   -0.362351    0.001024
      2          6           0        0.980113   -0.221958   -0.000762
      3          6           0        0.715475    1.219232   -0.000880
      4          6           0       -0.622698    1.281382    0.000079
      5          6           0       -1.200068   -0.088363   -0.000078
      6          8           0       -2.288572   -0.527644    0.000886
      7          8           0       -0.047547   -1.025291   -0.001205
      8          1           0        2.752969   -1.242175    0.002519
      9          1           0        2.213551    0.930432    0.001190
     10          1           0       -1.291570    2.129922    0.001525
 ---------------------------------------------------------------------

 SCF Done:  E(RHF) =  -357.647792292     A.U. after    2 cycles

 The electronic state is 1-A.
 Alpha  occ. eigenvalues --  -20.63994 -20.57838 -15.56533 -11.42373 -11.39685
 Alpha  occ. eigenvalues --  -11.27188 -11.25044  -1.59427  -1.51927  -1.29613
 Alpha  occ. eigenvalues --   -1.12102  -0.94888  -0.87099  -0.81741  -0.77882
 Alpha  occ. eigenvalues --   -0.69518  -0.69507  -0.68424  -0.62194  -0.58082
 Alpha  occ. eigenvalues --   -0.55384  -0.50707  -0.48333  -0.41686  -0.40763
 Alpha virt. eigenvalues --    0.02591   0.03931   0.04280   0.05637   0.08179
 Alpha virt. eigenvalues --    0.09691   0.09988   0.10685   0.11975   0.12210
 Alpha virt. eigenvalues --    0.12962   0.13232   0.14070   0.15226   0.15820

 Mulliken charges:
               1
     1  N    0.730636
     2  C    0.024130
     3  C   -0.649019
     4  C    0.597593
     5  C    1.393862
     6  O   -1.153538
     7  O   -1.421101
     8  H    0.030252
     9  H    0.524524
    10  H   -0.077341
 Sum of Mulliken charges =  -0.00000

 Dipole moment (field-independent basis, Debye):
    X=              2.4371    Y=             -0.3991    Z=              0.0027  Tot=              2.4696

 Test job not archived.
 1\1\GINC-SE125\SP\RHF\Aug-CC-pVDZ\C4H3N1O2\OHZDE\09-Apr-2025\0\\#t hf
 aug-cc-pvdz iop(5/13=1,5/36=2,99/5=2) pseudo=read geom=check guess=(re
 ad,tcheck) scf=(maxcycle=1)\\title\\0,1\N,0,1.94508723,-0.44509923,0.0
 5909491\C,0,0.76920544,0.05996245,-0.00707549\C,0,-0.17492239,-1.04958
 908,0.1497028\C,0,-1.36798064,-0.44597534,0.06705664\C,0,-1.19057793,1
 .01569257,-0.13694171\O,0,-1.91827139,1.92795917,-0.26359276\O,0,0.274
 79131,1.25565506,-0.17230608\H,0,2.81463004,0.06629434,-0.01552215\H,0
 ,1.26934434,-1.53721664,0.21259677\H,0,-2.36947702,-0.8474903,0.123659

 Normal termination of Gaussian 16 at Wed Apr  9 19:08:41 2025.
