 Gaussian 16, Revision C.01,

 ----------------------------------------------------------------------
 #t hf aug-cc-pvdz symm=none int=(grid=ultrafine) guess=(read,tcheck) s
 table=(opt,rrhf)
 ----------------------------------------------------------------------
 -----
 title
 -----
 Symbolic Z-matrix:
 Charge =  0 Multiplicity = 1

 SCF Done:  E(RHF) =  -373.359301433     A.U. after   16 cycles
 Normal termination of Gaussian 16 at Wed Apr  9 03:27:58 2025.
 Gaussian 16:  ES64L-G16RevC.01  3-Jul-2019

 ----------------------------------------------------------------------
 #t hf aug-cc-pvdz iop(5/13=1,5/36=2,99/5=2) pseudo=read geom=check gue
 ss=(read,tcheck) scf=(maxcycle=1)
 ----------------------------------------------------------------------
 -----
 title
 -----
 Structure from the checkpoint file:  "Grambow2020_wb97xd3_006700_reverse_mol2.chk"
 Charge =  0 Multiplicity = 1

                         Standard orientation:
 ---------------------------------------------------------------------
 Center     Atomic      Atomic             Coordinates (Angstroms)
 Number     Number       Type             X           Y           Z
 ---------------------------------------------------------------------
      1          8           0       -2.200222   -0.028821   -0.001301
      2          6           0       -1.007979   -0.000857   -0.000125
      3          6           0       -0.190327    1.228539    0.000930
      4          7           0        1.082539    1.218417   -0.000189
      5          6           0        1.666355   -0.040132   -0.001187
      6          7           0        1.081197   -1.173231    0.000287
      7          8           0       -0.296122   -1.162365    0.001281
      8          1           0       -0.731412    2.170735    0.003812
      9          1           0        2.747717   -0.082853   -0.002051
 ---------------------------------------------------------------------

 SCF Done:  E(RHF) =  -373.721899547     A.U. after    2 cycles

 The electronic state is 1-A.
 Alpha  occ. eigenvalues --  -20.65809 -20.57088 -15.61546 -15.57917 -11.42874
 Alpha  occ. eigenvalues --  -11.35819 -11.35241  -1.61197  -1.50916  -1.33280
 Alpha  occ. eigenvalues --   -1.22331  -1.00845  -0.96609  -0.84255  -0.79873
 Alpha  occ. eigenvalues --   -0.71448  -0.70672  -0.67193  -0.62833  -0.58859
 Alpha  occ. eigenvalues --   -0.58308  -0.56620  -0.55496  -0.46135  -0.43443
 Alpha virt. eigenvalues --   -0.00139   0.02890   0.04328   0.07667   0.08142
 Alpha virt. eigenvalues --    0.08474   0.09428   0.10131   0.11023   0.11242
 Alpha virt. eigenvalues --    0.13011   0.13734   0.14217   0.15343   0.17268

 Mulliken charges:
               1
     1  O   -1.166313
     2  C    1.981827
     3  C   -0.746436
     4  N    0.835971
     5  C   -0.656890
     6  N    1.280612
     7  O   -1.518949
     8  H   -0.001048
     9  H   -0.008772
 Sum of Mulliken charges =  -0.00000

 Dipole moment (field-independent basis, Debye):
    X=              1.8480    Y=              2.5742    Z=              0.0013  Tot=              3.1688

 Test job not archived.
 1\1\GINC-SE343\SP\RHF\Aug-CC-pVDZ\C3H2N2O2\OHZDE\09-Apr-2025\0\\#t hf
 aug-cc-pvdz iop(5/13=1,5/36=2,99/5=2) pseudo=read geom=check guess=(re
 ad,tcheck) scf=(maxcycle=1)\\title\\0,1\O,0,-2.22820676,-0.97451153,-0
 .27275313\C,0,-1.10451998,-0.59382302,-0.15179587\C,0,-0.70712805,0.80
 752572,0.08960572\N,0,0.50500058,1.17665609,0.21117349\C,0,1.44768857,
 0.16456661,0.10254066\N,0,1.24128391,-1.07730414,-0.1011289\O,0,-0.070
 27468,-1.47677388,-0.2328983\H,0,-1.51176758,1.53395278,0.16290593\H,0
 ,2.48796899,0.44599637,0.20144439\\Version=ES64L-G16RevC.01\State=1-A\

 Normal termination of Gaussian 16 at Wed Apr  9 03:28:01 2025.
