 Gaussian 16, Revision C.01,

 ----------------------------------------------------------------------
 #t hf aug-cc-pvdz symm=none int=(grid=ultrafine) guess=(read,tcheck) s
 table=(opt,rrhf)
 ----------------------------------------------------------------------
 -----
 title
 -----
 Symbolic Z-matrix:
 Charge =  0 Multiplicity = 1

 SCF Done:  E(RHF) =  -322.528646022     A.U. after   16 cycles
 Normal termination of Gaussian 16 at Wed Apr  9 04:05:48 2025.
 Gaussian 16:  ES64L-G16RevC.01  3-Jul-2019

 ----------------------------------------------------------------------
 #t hf aug-cc-pvdz iop(5/13=1,5/36=2,99/5=2) pseudo=read geom=check gue
 ss=(read,tcheck) scf=(maxcycle=1)
 ----------------------------------------------------------------------
 -----
 title
 -----
 Structure from the checkpoint file:  "Grambow2020_wb97xd3_009200_forward_mol1.chk"
 Charge =  0 Multiplicity = 1

                         Standard orientation:
 ---------------------------------------------------------------------
 Center     Atomic      Atomic             Coordinates (Angstroms)
 Number     Number       Type             X           Y           Z
 ---------------------------------------------------------------------
      1          8           0        3.028839    0.772458    0.011828
      2          6           0        2.396705   -0.456879    0.293202
      3          6           0        0.962258   -0.455914   -0.005994
      4          6           0       -0.206204   -0.439993   -0.277822
      5          6           0       -1.615962   -0.403664   -0.597627
      6          6           0       -2.936123   -0.035781    0.728963
      7          7           0       -2.310052    0.856495   -0.200001
      8          1           0        2.857975    1.001578   -0.904073
      9          1           0        2.868502   -1.285654   -0.248581
     10          1           0        2.545918   -0.639718    1.358410
     11          1           0       -1.859800   -0.654177   -1.627709
     12          1           0       -2.313931   -0.049435    1.656370
     13          1           0       -2.165088   -1.230867   -0.013266
     14          1           0       -1.597964    1.436533    0.239900
 ---------------------------------------------------------------------

 SCF Done:  E(RHF) =  -322.863721682     A.U. after    2 cycles

 The electronic state is 1-A.
 Alpha  occ. eigenvalues --  -20.57034 -15.52590 -11.33253 -11.32914 -11.30026
 Alpha  occ. eigenvalues --  -11.26375 -11.25901  -1.47476  -1.27640  -1.08186
 Alpha  occ. eigenvalues --   -0.99757  -0.93960  -0.87081  -0.76283  -0.73390
 Alpha  occ. eigenvalues --   -0.68428  -0.65211  -0.64081  -0.62072  -0.60445
 Alpha  occ. eigenvalues --   -0.55022  -0.50475  -0.48318  -0.43139  -0.41391
 Alpha  occ. eigenvalues --   -0.35075
 Alpha virt. eigenvalues --    0.02991   0.03852   0.04121   0.04346   0.05959
 Alpha virt. eigenvalues --    0.06221   0.06863   0.08100   0.09872   0.10081
 Alpha virt. eigenvalues --    0.12038   0.12310   0.13269   0.13826   0.14560

 Mulliken charges:
               1
     1  O   -1.031318
     2  C    0.283160
     3  C   -0.451099
     4  C    0.949841
     5  C   -1.017922
     6  C   -0.525931
     7  N    0.154001
     8  H    0.298120
     9  H    0.221844
    10  H    0.161545
    11  H    0.052863
    12  H    0.127936
    13  H    0.508070
    14  H    0.268891
 Sum of Mulliken charges =   0.00000

 Dipole moment (field-independent basis, Debye):
    X=              2.6370    Y=             -1.2720    Z=             -0.4951  Tot=              2.9693

 Test job not archived.
 1\1\GINC-SE120\SP\RHF\Aug-CC-pVDZ\C5H7N1O1\OHZDE\09-Apr-2025\0\\#t hf
 aug-cc-pvdz iop(5/13=1,5/36=2,99/5=2) pseudo=read geom=check guess=(re
 ad,tcheck) scf=(maxcycle=1)\\title\\0,1\O,0,1.91466256,-0.07613292,2.8
 5796453\C,0,1.94943842,0.69578657,1.67772421\C,0,0.76066506,0.52868562
 ,0.83745558\C,0,-0.23057717,0.39324764,0.17523053\C,0,-1.42461594,0.21
 13739,-0.6198852\C,0,-1.48468993,-1.02538049,-2.07068988\N,0,-1.900005
 97,-1.20054528,-0.71130641\H,0,1.1099659,0.13325819,3.33669449\H,0,2.0
 7749802,1.76262016,1.89785104\H,0,2.83304762,0.37051865,1.12654663\H,0

 Normal termination of Gaussian 16 at Wed Apr  9 04:05:53 2025.
