 Gaussian 16, Revision C.01,

 ----------------------------------------------------------------------
 #t hf aug-cc-pvdz symm=none int=(grid=ultrafine) guess=(read,tcheck) s
 table=(opt,rrhf)
 ----------------------------------------------------------------------
 -----
 title
 -----
 Symbolic Z-matrix:
 Charge =  0 Multiplicity = 1

 SCF Done:  E(RHF) =  -302.776403403     A.U. after   15 cycles
 Normal termination of Gaussian 16 at Wed Apr  9 19:11:01 2025.
 Gaussian 16:  ES64L-G16RevC.01  3-Jul-2019

 ----------------------------------------------------------------------
 #t hf aug-cc-pvdz iop(5/13=1,5/36=2,99/5=2) pseudo=read geom=check gue
 ss=(read,tcheck) scf=(maxcycle=1)
 ----------------------------------------------------------------------
 -----
 title
 -----
 Structure from the checkpoint file:  "Grambow2020_wb97xd3_008842_forward_mol1.chk"
 Charge =  0 Multiplicity = 1

                         Standard orientation:
 ---------------------------------------------------------------------
 Center     Atomic      Atomic             Coordinates (Angstroms)
 Number     Number       Type             X           Y           Z
 ---------------------------------------------------------------------
      1          6           0        0.534375    1.663759   -0.118166
      2          6           0        0.561139    0.151624   -0.014441
      3          6           0       -0.596864   -0.480712    0.746990
      4          6           0       -1.883395   -0.279988    0.084003
      5          7           0       -2.879837   -0.102445   -0.455070
      6          6           0        1.801216   -0.974966   -0.832851
      7          7           0        1.842503   -0.375963    0.458598
      8          1           0       -0.419998    2.011521   -0.514308
      9          1           0        0.682967    2.102744    0.871111
     10          1           0        1.328499    2.009627   -0.780416
     11          1           0       -0.642846   -0.040744    1.746132
     12          1           0       -0.419638   -1.549353    0.870822
     13          1           0        0.535379   -0.161410   -1.150920
     14          1           0        1.178437   -1.881284   -0.708380
     15          1           0        2.519715    0.379457    0.448055
 ---------------------------------------------------------------------

 SCF Done:  E(RHF) =  -303.091545966     A.U. after    2 cycles

 The electronic state is 1-A.
 Alpha  occ. eigenvalues --  -15.53262 -15.52402 -11.33821 -11.30825 -11.30081
 Alpha  occ. eigenvalues --  -11.29163 -11.26656  -1.30128  -1.24925  -1.09846
 Alpha  occ. eigenvalues --   -1.01532  -0.91340  -0.83620  -0.75234  -0.68314
 Alpha  occ. eigenvalues --   -0.67073  -0.66392  -0.62822  -0.60901  -0.58658
 Alpha  occ. eigenvalues --   -0.56594  -0.55331  -0.51528  -0.50567  -0.48499
 Alpha  occ. eigenvalues --   -0.37423
 Alpha virt. eigenvalues --    0.02919   0.03768   0.04273   0.04513   0.05568
 Alpha virt. eigenvalues --    0.06006   0.07302   0.07552   0.08905   0.10771
 Alpha virt. eigenvalues --    0.11746   0.12266   0.13242   0.13605   0.13845

 Mulliken charges:
               1
     1  C   -0.152821
     2  C   -2.226476
     3  C    0.366377
     4  C   -1.454042
     5  N    0.933775
     6  C   -0.413291
     7  N    0.579644
     8  H    0.237895
     9  H    0.260601
    10  H    0.165984
    11  H    0.312580
    12  H    0.259223
    13  H    0.596065
    14  H    0.168175
    15  H    0.366309
 Sum of Mulliken charges =  -0.00000

 Dipole moment (field-independent basis, Debye):
    X=              2.2070    Y=              1.1399    Z=              2.4805  Tot=              3.5105

 Test job not archived.
 1\1\GINC-SE224\SP\RHF\Aug-CC-pVDZ\C5H8N2\OHZDE\09-Apr-2025\0\\#t hf au
 g-cc-pvdz iop(5/13=1,5/36=2,99/5=2) pseudo=read geom=check guess=(read
 ,tcheck) scf=(maxcycle=1)\\title\\0,1\C,0,-1.02859394,1.12749572,-0.15
 130252\C,0,-0.23181409,-0.14989891,0.02599032\C,0,1.19536568,-0.119607
 04,-0.50583594\C,0,2.04425792,0.82802898,0.21275572\N,0,2.68566734,1.5
 8308135,0.79025541\C,0,-0.80486732,-1.67450175,0.93372764\N,0,-0.93569
 872,-1.34417836,-0.44544627\H,0,-0.48788147,1.98445195,0.2511279\H,0,-
 1.21544327,1.29969401,-1.21379478\H,0,-1.98476111,1.04956422,0.3668716

 Normal termination of Gaussian 16 at Wed Apr  9 19:11:07 2025.
