 Gaussian 16, Revision C.01,

 ----------------------------------------------------------------------
 #t hf aug-cc-pvdz symm=none int=(grid=ultrafine) guess=(read,tcheck) s
 table=(opt,rrhf)
 ----------------------------------------------------------------------
 -----
 title
 -----
 Symbolic Z-matrix:
 Charge =  0 Multiplicity = 1

 SCF Done:  E(RHF) =  -322.624392883     A.U. after   15 cycles
 Normal termination of Gaussian 16 at Wed Apr  9 17:51:53 2025.
 Gaussian 16:  ES64L-G16RevC.01  3-Jul-2019

 ----------------------------------------------------------------------
 #t hf aug-cc-pvdz iop(5/13=1,5/36=2,99/5=2) pseudo=read geom=check gue
 ss=(read,tcheck) scf=(maxcycle=1)
 ----------------------------------------------------------------------
 -----
 title
 -----
 Structure from the checkpoint file:  "Grambow2020_wb97xd3_006853_reverse_mol2.chk"
 Charge =  0 Multiplicity = 1

                         Standard orientation:
 ---------------------------------------------------------------------
 Center     Atomic      Atomic             Coordinates (Angstroms)
 Number     Number       Type             X           Y           Z
 ---------------------------------------------------------------------
      1          6           0        2.647877   -0.604190    0.009292
      2          6           0        1.324046    0.132582   -0.016959
      3          6           0        0.127278   -0.684747   -0.003145
      4          6           0       -1.074326   -0.064845    0.055534
      5          7           0       -2.471750   -0.584798   -0.051468
      6          6           0       -2.033865    0.844515    0.148758
      7          8           0        1.288116    1.352250   -0.034051
      8          1           0        2.666689   -1.408687   -0.728855
      9          1           0        2.796101   -1.056930    0.992993
     10          1           0        3.457305    0.096802   -0.183213
     11          1           0        0.176445   -1.764539   -0.000016
     12          1           0       -2.894415   -1.068579    0.729215
     13          1           0       -2.725720   -0.956829   -0.960743
     14          1           0       -2.425142    1.694452   -0.377570
 ---------------------------------------------------------------------

 SCF Done:  E(RHF) =  -322.959389581     A.U. after    2 cycles

 The electronic state is 1-A.
 Alpha  occ. eigenvalues --  -20.48953 -15.61877 -11.32682 -11.31034 -11.26311
 Alpha  occ. eigenvalues --  -11.22190 -11.21169  -1.42705  -1.34204  -1.06092
 Alpha  occ. eigenvalues --   -1.01431  -0.96709  -0.81192  -0.80555  -0.74140
 Alpha  occ. eigenvalues --   -0.68011  -0.64643  -0.60425  -0.58687  -0.57549
 Alpha  occ. eigenvalues --   -0.55214  -0.53268  -0.49362  -0.44000  -0.38352
 Alpha  occ. eigenvalues --   -0.29210
 Alpha virt. eigenvalues --    0.01347   0.03958   0.04254   0.04879   0.05483
 Alpha virt. eigenvalues --    0.06138   0.07608   0.09057   0.09646   0.10448
 Alpha virt. eigenvalues --    0.11598   0.12244   0.13152   0.13517   0.15296

 Mulliken charges:
               1
     1  C   -0.610601
     2  C    0.868744
     3  C    1.030847
     4  C   -0.676200
     5  N    0.635635
     6  C   -0.333865
     7  O   -1.480065
     8  H    0.216353
     9  H    0.275133
    10  H    0.118207
    11  H   -0.317884
    12  H    0.260866
    13  H    0.202731
    14  H   -0.189901
 Sum of Mulliken charges =  -0.00000

 Dipole moment (field-independent basis, Debye):
    X=             -4.2628    Y=             -4.4684    Z=             -0.9999  Tot=              6.2561

 Test job not archived.
 1\1\GINC-SE454\SP\RHF\Aug-CC-pVDZ\C5H7N1O1\OHZDE\09-Apr-2025\0\\#t hf
 aug-cc-pvdz iop(5/13=1,5/36=2,99/5=2) pseudo=read geom=check guess=(re
 ad,tcheck) scf=(maxcycle=1)\\title\\0,1\C,0,2.60795796,-0.20570423,-0.
 04211362\C,0,1.26209271,0.45398109,0.18040502\C,0,0.09115269,-0.344400
 38,-0.12283935\C,0,-1.12934139,0.1788752,0.13822102\N,0,-2.50945768,-0
 .30410224,-0.17259609\C,0,-2.11701924,0.96562604,0.54053434\O,0,1.1885
 0056,1.59478413,0.60740033\H,0,2.65527089,-0.68558333,-1.0218617\H,0,2
 .76532825,-0.98119911,0.7118452\H,0,3.39622322,0.53890945,0.04626939\H

 Normal termination of Gaussian 16 at Wed Apr  9 17:51:57 2025.
