 Gaussian 16, Revision C.01,

 ----------------------------------------------------------------------
 #t hf aug-cc-pvdz symm=none int=(grid=ultrafine) guess=(read,tcheck) s
 table=(opt,rrhf)
 ----------------------------------------------------------------------
 -----
 title
 -----
 Symbolic Z-matrix:
 Charge =  0 Multiplicity = 1

 SCF Done:  E(RHF) =  -305.625012806     A.U. after   17 cycles
 Normal termination of Gaussian 16 at Wed Apr  9 03:06:40 2025.
 Gaussian 16:  ES64L-G16RevC.01  3-Jul-2019

 ----------------------------------------------------------------------
 #t hf aug-cc-pvdz iop(5/13=1,5/36=2,99/5=2) pseudo=read geom=check gue
 ss=(read,tcheck) scf=(maxcycle=1)
 ----------------------------------------------------------------------
 -----
 title
 -----
 Structure from the checkpoint file:  "Grambow2020_b97d3_006520_reverse_mol1.chk"
 Charge =  0 Multiplicity = 1

                         Standard orientation:
 ---------------------------------------------------------------------
 Center     Atomic      Atomic             Coordinates (Angstroms)
 Number     Number       Type             X           Y           Z
 ---------------------------------------------------------------------
      1          8           0       -1.657257   -1.044155    0.149010
      2          6           0       -1.087999    1.191559    0.012707
      3          6           0        0.356767    0.928000   -0.000590
      4          6           0        0.943689   -0.039532    1.057106
      5          6           0        1.036474   -0.982353   -0.159079
      6          8           0        0.817877    0.107147   -1.095487
      7          1           0       -2.014733   -1.110330   -0.760242
      8          1           0       -1.612055    1.293108   -0.935637
      9          1           0       -1.508210    1.715250    0.871834
     10          1           0        0.877572    1.905601   -0.062529
     11          1           0        1.919481    0.272160    1.471694
     12          1           0        0.258843   -0.287650    1.874834
     13          1           0       -0.664319   -1.350144    0.024050
     14          1           0        1.964873   -1.527972   -0.373059
 ---------------------------------------------------------------------

 SCF Done:  E(RHF) =  -305.940335311     A.U. after    2 cycles

 The electronic state is 1-A.
 Alpha  occ. eigenvalues --  -20.55650 -20.52354 -11.41042 -11.32554 -11.23500
 Alpha  occ. eigenvalues --  -11.19826  -1.44526  -1.41401  -1.08954  -0.98707
 Alpha  occ. eigenvalues --   -0.86508  -0.74064  -0.71520  -0.70493  -0.66400
 Alpha  occ. eigenvalues --   -0.65950  -0.58106  -0.55549  -0.54323  -0.49647
 Alpha  occ. eigenvalues --   -0.47602  -0.45202  -0.44599  -0.23572
 Alpha virt. eigenvalues --   -0.00559   0.02066   0.03262   0.03845   0.05316
 Alpha virt. eigenvalues --    0.06635   0.06754   0.07207   0.09520   0.10817
 Alpha virt. eigenvalues --    0.11472   0.12718   0.13564   0.14300   0.14566

 Mulliken charges:
               1
     1  O   -1.045904
     2  C    0.088001
     3  C    1.072912
     4  C   -0.279162
     5  C    0.148265
     6  O   -1.394677
     7  H    0.320065
     8  H    0.086368
     9  H    0.095054
    10  H    0.130740
    11  H   -0.021707
    12  H   -0.025093
    13  H    0.942680
    14  H   -0.117542
 Sum of Mulliken charges =  -0.00000

 Dipole moment (field-independent basis, Debye):
    X=             -2.9106    Y=              5.4385    Z=              0.7513  Tot=              6.2140

 Test job not archived.
 1\1\GINC-SE177\SP\RHF\Aug-CC-pVDZ\C4H8O2\OHZDE\09-Apr-2025\0\\#t hf au
 g-cc-pvdz iop(5/13=1,5/36=2,99/5=2) pseudo=read geom=check guess=(read
 ,tcheck) scf=(maxcycle=1)\\title\\0,1\O,0,-1.19034765,1.40772715,-0.72
 474914\C,0,-1.362178,-0.70830565,0.18844851\C,0,0.07416075,-0.81146629
 ,0.47702771\C,0,1.08298816,-0.44251967,-0.63897495\C,0,1.27494007,0.81
 226966,0.23582972\O,0,0.59316337,0.20224602,1.36485843\H,0,-1.64388026
 ,1.86926385,0.01023336\H,0,-2.02962379,-0.34526698,0.96756561\H,0,-1.7
 873433,-1.38056671,-0.55735856\H,0,0.25413274,-1.801169,0.9448712\H,0,

 Normal termination of Gaussian 16 at Wed Apr  9 03:06:44 2025.
