 Gaussian 16, Revision C.01,

 ----------------------------------------------------------------------
 #t hf aug-cc-pvdz symm=none int=(grid=ultrafine) guess=(read,tcheck) s
 table=(opt,rrhf)
 ----------------------------------------------------------------------
 -----
 title
 -----
 Symbolic Z-matrix:
 Charge =  0 Multiplicity = 1

 SCF Done:  E(RHF) =  -323.634636584     A.U. after   17 cycles
 Normal termination of Gaussian 16 at Wed Apr  9 17:48:09 2025.
 Gaussian 16:  ES64L-G16RevC.01  3-Jul-2019

 ----------------------------------------------------------------------
 #t hf aug-cc-pvdz iop(5/13=1,5/36=2,99/5=2) pseudo=read geom=check gue
 ss=(read,tcheck) scf=(maxcycle=1)
 ----------------------------------------------------------------------
 -----
 title
 -----
 Structure from the checkpoint file:  "Grambow2020_wb97xd3_006828_reverse_mol1.chk"
 Charge =  0 Multiplicity = 1

                         Standard orientation:
 ---------------------------------------------------------------------
 Center     Atomic      Atomic             Coordinates (Angstroms)
 Number     Number       Type             X           Y           Z
 ---------------------------------------------------------------------
      1          6           0       -1.497670    1.892068    0.122465
      2          6           0        0.812687    0.961895   -0.299137
      3          6           0        2.147706    0.356532    0.130030
      4          6           0        1.429304   -1.038694    0.094664
      5          6           0        0.162858   -0.229194   -0.097692
      6          7           0       -1.108980   -0.372442    0.186842
      7          8           0       -1.569203   -1.626808   -0.199249
      8          1           0       -1.616812    1.805733    1.192185
      9          1           0       -2.351907    1.600118   -0.469305
     10          1           0       -0.994663    2.785990   -0.219732
     11          1           0        0.639170    1.709616   -1.054204
     12          1           0        2.975177    0.483309   -0.570292
     13          1           0        2.482477    0.630541    1.131777
     14          1           0        1.471849   -1.659376    0.990785
     15          1           0        1.720053   -1.623983   -0.776483
     16          1           0       -2.338157   -1.766027    0.359376
 ---------------------------------------------------------------------

 SCF Done:  E(RHF) =  -323.969876311     A.U. after    2 cycles

 The electronic state is 1-A.
 Alpha  occ. eigenvalues --  -20.57424 -15.54199 -11.29878 -11.26156 -11.23649
 Alpha  occ. eigenvalues --  -11.23612 -11.22517  -1.49062  -1.18598  -1.08701
 Alpha  occ. eigenvalues --   -0.94115  -0.89343  -0.85298  -0.72284  -0.69492
 Alpha  occ. eigenvalues --   -0.69175  -0.63477  -0.61121  -0.59986  -0.58470
 Alpha  occ. eigenvalues --   -0.52429  -0.51874  -0.51127  -0.48078  -0.46098
 Alpha  occ. eigenvalues --   -0.37542  -0.28063
 Alpha virt. eigenvalues --    0.01793   0.04016   0.04280   0.04620   0.05004
 Alpha virt. eigenvalues --    0.05869   0.06120   0.06310   0.07556   0.07727
 Alpha virt. eigenvalues --    0.11626   0.12311   0.13146   0.13956   0.14828

 Mulliken charges:
               1
     1  C   -0.162900
     2  C    0.254590
     3  C   -0.316944
     4  C   -0.020398
     5  C   -1.165089
     6  N    1.639031
     7  O   -1.189074
     8  H    0.201091
     9  H    0.133024
    10  H    0.113734
    11  H   -0.137492
    12  H    0.062417
    13  H    0.094549
    14  H    0.064085
    15  H    0.143352
    16  H    0.286025
 Sum of Mulliken charges =  -0.00000

 Dipole moment (field-independent basis, Debye):
    X=             -0.2029    Y=              1.6487    Z=              0.3157  Tot=              1.6909

 Test job not archived.
 1\1\GINC-SE112\SP\RHF\Aug-CC-pVDZ\C5H9N1O1\OHZDE\09-Apr-2025\0\\#t hf
 aug-cc-pvdz iop(5/13=1,5/36=2,99/5=2) pseudo=read geom=check guess=(re
 ad,tcheck) scf=(maxcycle=1)\\title\\0,1\C,0,-1.01575123,-2.09053033,0.
 09311461\C,0,-0.61745006,0.24550528,-0.78153621\C,0,-0.63641795,1.7695
 9244,-0.68293488\C,0,0.75209865,1.65502989,0.04018528\C,0,0.47150116,0
 .1659472,0.04876813\N,0,0.78711138,-0.85620992,0.80681696\O,0,2.149923
 5,-0.87080163,1.0840104\H,0,-1.39996836,-1.92859986,1.08915932\H,0,-0.
 27962145,-2.87405199,-0.00360552\H,0,-1.74974824,-2.05915066,-0.700280

 Normal termination of Gaussian 16 at Wed Apr  9 17:48:14 2025.
