 Gaussian 16, Revision C.01,

 ----------------------------------------------------------------------
 #t hf aug-cc-pvdz symm=none int=(grid=ultrafine) guess=(read,tcheck) s
 table=(opt,rrhf)
 ----------------------------------------------------------------------
 -----
 title
 -----
 Symbolic Z-matrix:
 Charge =  0 Multiplicity = 1

 SCF Done:  E(RHF) =  -308.838413670     A.U. after   15 cycles

 1\1\GINC-SE014\Stability\RHF\Aug-CC-pVDZ\C6H12O1\OHZDE\09-Apr-2025\0\\
 #t hf aug-cc-pvdz symm=none int=(grid=ultrafine) guess=(read,tcheck) s
 table=(opt,rrhf)\\title\\0,1\C,0,2.39022966,-0.84135598,0.30045942\C,0
 ,1.25626508,1.19794637,-0.40290742\O,0,0.38117665,1.14221492,0.5487750
 6\C,0,-0.17976667,-0.09274866,0.73953662\C,0,-1.50141988,-0.23051289,1
 .37877286\C,0,-1.31220764,-0.59553011,-0.08725242\C,0,-1.95378719,0.26
 376327,-1.14647446\H,0,2.38409601,-1.84211089,0.74492284\H,0,3.1007330
 5,-0.23629797,0.85935206\H,0,2.72065268,-0.94485183,-0.73053623\H,0,1.

 Normal termination of Gaussian 16 at Wed Apr  9 19:22:32 2025.
 Gaussian 16:  ES64L-G16RevC.01  3-Jul-2019

 ----------------------------------------------------------------------
 #t hf aug-cc-pvdz iop(5/13=1,5/36=2,99/5=2) pseudo=read geom=check gue
 ss=(read,tcheck) scf=(maxcycle=1)
 ----------------------------------------------------------------------
 -----
 title
 -----
 Structure from the checkpoint file:  "Grambow2020_wb97xd3_009435_forward_mol1.chk"
 Charge =  0 Multiplicity = 1

                         Standard orientation:
 ---------------------------------------------------------------------
 Center     Atomic      Atomic             Coordinates (Angstroms)
 Number     Number       Type             X           Y           Z
 ---------------------------------------------------------------------
      1          6           0       -2.465215   -0.610948    0.715139
      2          6           0       -1.276897    1.214513   -0.377998
      3          8           0       -0.476836    0.424636   -1.018765
      4          6           0        0.065462   -0.579263   -0.260951
      5          6           0        1.334389   -1.219610   -0.653570
      6          6           0        1.256478   -0.372962    0.609516
      7          6           0        1.978503    0.949454    0.652607
      8          1           0       -2.494937   -1.612427    1.157011
      9          1           0       -3.214934   -0.575158   -0.072206
     10          1           0       -2.716481    0.098914    1.499871
     11          1           0       -1.025458    1.525886    0.627811
     12          1           0       -1.928038    1.812119   -1.001955
     13          1           0       -1.225930   -0.813022    0.331903
     14          1           0        1.894018   -0.795162   -1.480573
     15          1           0        1.414342   -2.296244   -0.563384
     16          1           0        1.246043   -0.915776    1.550456
     17          1           0        1.530132    1.629575    1.381930
     18          1           0        3.025645    0.812237    0.930770
     19          1           0        1.953959    1.444871   -0.319975
 ---------------------------------------------------------------------

 SCF Done:  E(RHF) =  -309.169672574     A.U. after    2 cycles

 The electronic state is 1-A.
 Alpha  occ. eigenvalues --  -20.62945 -11.35142 -11.25662 -11.23303 -11.22874
 Alpha  occ. eigenvalues --  -11.22486 -11.20233  -1.56685  -1.14463  -0.98072
 Alpha  occ. eigenvalues --   -0.94459  -0.91566  -0.81525  -0.78377  -0.71241
 Alpha  occ. eigenvalues --   -0.69260  -0.67593  -0.61936  -0.57683  -0.55620
 Alpha  occ. eigenvalues --   -0.54986  -0.54461  -0.52959  -0.50636  -0.47125
 Alpha  occ. eigenvalues --   -0.43784  -0.39118  -0.27785
 Alpha virt. eigenvalues --    0.03056   0.03551   0.03777   0.04142   0.05443
 Alpha virt. eigenvalues --    0.05912   0.06432   0.06517   0.07292   0.07759
 Alpha virt. eigenvalues --    0.09025   0.09452   0.09898   0.12358   0.12972

 Mulliken charges:
               1
     1  C   -0.617274
     2  C    0.464187
     3  O   -1.176805
     4  C    0.299983
     5  C    0.242730
     6  C    0.052995
     7  C   -0.449104
     8  H   -0.005153
     9  H    0.113033
    10  H    0.085538
    11  H    0.204368
    12  H   -0.078006
    13  H    0.835412
    14  H   -0.122283
    15  H   -0.130002
    16  H   -0.185904
    17  H    0.175315
    18  H    0.143526
    19  H    0.147441
 Sum of Mulliken charges =   0.00000

 Dipole moment (field-independent basis, Debye):
    X=              0.4001    Y=              2.0411    Z=              0.1253  Tot=              2.0838

 Test job not archived.
 1\1\GINC-SE014\SP\RHF\Aug-CC-pVDZ\C6H12O1\OHZDE\09-Apr-2025\0\\#t hf a
 ug-cc-pvdz iop(5/13=1,5/36=2,99/5=2) pseudo=read geom=check guess=(rea
 d,tcheck) scf=(maxcycle=1)\\title\\0,1\C,0,2.39022966,-0.84135598,0.30
 045942\C,0,1.25626508,1.19794637,-0.40290742\O,0,0.38117665,1.14221492
 ,0.54877506\C,0,-0.17976667,-0.09274866,0.73953662\C,0,-1.50141988,-0.
 23051289,1.37877286\C,0,-1.31220764,-0.59553011,-0.08725242\C,0,-1.953
 78719,0.26376327,-1.14647446\H,0,2.38409601,-1.84211089,0.74492284\H,0
 ,3.10073305,-0.23629797,0.85935206\H,0,2.72065268,-0.94485183,-0.73053

 Normal termination of Gaussian 16 at Wed Apr  9 19:22:39 2025.
