 Gaussian 16, Revision C.01,

 ----------------------------------------------------------------------
 #t hf aug-cc-pvdz symm=none int=(grid=ultrafine) guess=(read,tcheck) s
 table=(opt,rrhf)
 ----------------------------------------------------------------------
 -----
 title
 -----
 Symbolic Z-matrix:
 Charge =  0 Multiplicity = 1

 SCF Done:  E(RHF) =  -269.629150655     A.U. after   14 cycles
 Normal termination of Gaussian 16 at Wed Apr  9 03:58:46 2025.
 Gaussian 16:  ES64L-G16RevC.01  3-Jul-2019

 ----------------------------------------------------------------------
 #t hf aug-cc-pvdz iop(5/13=1,5/36=2,99/5=2) pseudo=read geom=check gue
 ss=(read,tcheck) scf=(maxcycle=1)
 ----------------------------------------------------------------------
 -----
 title
 -----
 Structure from the checkpoint file:  "Grambow2020_wb97xd3_008704_forward_mol2.chk"
 Charge =  0 Multiplicity = 1

                         Standard orientation:
 ---------------------------------------------------------------------
 Center     Atomic      Atomic             Coordinates (Angstroms)
 Number     Number       Type             X           Y           Z
 ---------------------------------------------------------------------
      1          6           0        0.001043    1.191000    1.263739
      2          6           0        0.000251    0.309975    0.000103
      3          6           0       -0.002972    1.191759   -1.263013
      4          6           0        1.202576   -0.541993   -0.001716
      5          6           0        2.198139   -1.205834   -0.001367
      6          6           0       -1.201418   -0.543147    0.000777
      7          6           0       -2.196730   -1.207337    0.000983
      8          1           0        0.006537    0.574643    2.161790
      9          1           0       -0.890216    1.819588    1.274706
     10          1           0        0.886847    1.827338    1.268840
     11          1           0        0.881869    1.829413   -1.270311
     12          1           0        0.000824    0.576163   -2.161574
     13          1           0       -0.895195    1.818978   -1.271976
     14          1           0        3.078542   -1.803654    0.000302
     15          1           0       -3.074535   -1.809005    0.001193
 ---------------------------------------------------------------------

 SCF Done:  E(RHF) =  -269.914630594     A.U. after    2 cycles

 The electronic state is 1-A.
 Alpha  occ. eigenvalues --  -11.30000 -11.24528 -11.24512 -11.24138 -11.24123
 Alpha  occ. eigenvalues --  -11.23590 -11.23583  -1.14225  -1.02684  -1.00894
 Alpha  occ. eigenvalues --   -0.95237  -0.87330  -0.75893  -0.71661  -0.68923
 Alpha  occ. eigenvalues --   -0.64304  -0.60474  -0.56352  -0.54539  -0.54502
 Alpha  occ. eigenvalues --   -0.51886  -0.41875  -0.41060  -0.39400  -0.39381
 Alpha virt. eigenvalues --    0.03466   0.03527   0.03952   0.04606   0.05591
 Alpha virt. eigenvalues --    0.06025   0.07296   0.07482   0.09622   0.10483
 Alpha virt. eigenvalues --    0.11819   0.11840   0.12172   0.12606   0.14415

 Mulliken charges:
               1
     1  C    0.090015
     2  C   -2.248248
     3  C    0.091172
     4  C    0.768572
     5  C    0.168313
     6  C    0.770106
     7  C    0.167567
     8  H    0.192833
     9  H    0.184002
    10  H    0.183809
    11  H    0.183484
    12  H    0.192547
    13  H    0.183247
    14  H   -0.463905
    15  H   -0.463514
 Sum of Mulliken charges =   0.00000

 Dipole moment (field-independent basis, Debye):
    X=              0.0014    Y=              0.6923    Z=              0.0030  Tot=              0.6923

 Test job not archived.
 1\1\GINC-SE072\SP\RHF\Aug-CC-pVDZ\C7H8\OHZDE\09-Apr-2025\0\\#t hf aug-
 cc-pvdz iop(5/13=1,5/36=2,99/5=2) pseudo=read geom=check guess=(read,t
 check) scf=(maxcycle=1)\\title\\0,1\C,0,-0.90268401,-0.71214125,-1.060
 9405\C,0,-0.03976288,-0.01060477,0.00498355\C,0,-0.87486891,0.26155745
 ,1.27050299\C,0,1.1048524,-0.87188723,0.3506544\C,0,2.01253608,-1.5959
 5139,0.63991351\C,0,0.45760461,1.26774829,-0.53377806\C,0,0.82871028,2
 .31632999,-0.97485767\H,0,-0.31825779,-0.91108216,-1.95831992\H,0,-1.7
 4842737,-0.07666086,-1.32639793\H,0,-1.27656768,-1.65845018,-0.6681128

 Normal termination of Gaussian 16 at Wed Apr  9 03:58:51 2025.
