 Gaussian 16, Revision C.01,

 ----------------------------------------------------------------------
 #t hf aug-cc-pvdz symm=none int=(grid=ultrafine) guess=(read,tcheck) s
 table=(opt,rrhf)
 ----------------------------------------------------------------------
 -----
 title
 -----
 Symbolic Z-matrix:
 Charge =  0 Multiplicity = 1

 SCF Done:  E(RHF) =  -302.877324982     A.U. after   14 cycles
 Normal termination of Gaussian 16 at Wed Apr  9 18:10:47 2025.
 Gaussian 16:  ES64L-G16RevC.01  3-Jul-2019

 ----------------------------------------------------------------------
 #t hf aug-cc-pvdz iop(5/13=1,5/36=2,99/5=2) pseudo=read geom=check gue
 ss=(read,tcheck) scf=(maxcycle=1)
 ----------------------------------------------------------------------
 -----
 title
 -----
 Structure from the checkpoint file:  "Grambow2020_wb97xd3_007162_forward_mol2.chk"
 Charge =  0 Multiplicity = 1

                         Standard orientation:
 ---------------------------------------------------------------------
 Center     Atomic      Atomic             Coordinates (Angstroms)
 Number     Number       Type             X           Y           Z
 ---------------------------------------------------------------------
      1          6           0       -1.885628    1.406914   -0.098175
      2          6           0       -1.142718    0.213910    0.429021
      3          6           0       -1.455892   -1.174651    0.016778
      4          7           0       -0.278831   -0.495213   -0.498645
      5          6           0        0.987925   -0.956827    0.027862
      6          6           0        1.981682    0.121873   -0.000802
      7          7           0        2.754949    0.968034   -0.001733
      8          1           0       -2.229762    1.220036   -1.115778
      9          1           0       -1.238520    2.285532   -0.113194
     10          1           0       -2.751891    1.629914    0.527808
     11          1           0       -0.757465    0.318032    1.442498
     12          1           0       -1.308130   -1.965611    0.747007
     13          1           0       -2.236427   -1.363054   -0.711043
     14          1           0        0.922201   -1.320746    1.064795
     15          1           0        1.354955   -1.781162   -0.587544
 ---------------------------------------------------------------------

 SCF Done:  E(RHF) =  -303.195220361     A.U. after    2 cycles

 The electronic state is 1-A.
 Alpha  occ. eigenvalues --  -15.52460 -15.51209 -11.32122 -11.28301 -11.27907
 Alpha  occ. eigenvalues --  -11.27863 -11.23648  -1.31112  -1.23583  -1.07509
 Alpha  occ. eigenvalues --   -0.99355  -0.88194  -0.83029  -0.75260  -0.70458
 Alpha  occ. eigenvalues --   -0.67958  -0.62876  -0.60281  -0.59485  -0.58155
 Alpha  occ. eigenvalues --   -0.53568  -0.51865  -0.50944  -0.49542  -0.48862
 Alpha  occ. eigenvalues --   -0.42750
 Alpha virt. eigenvalues --    0.03009   0.03846   0.03941   0.04449   0.05361
 Alpha virt. eigenvalues --    0.05592   0.06618   0.07835   0.08814   0.10964
 Alpha virt. eigenvalues --    0.12124   0.12543   0.13405   0.13788   0.14434

 Mulliken charges:
               1
     1  C   -0.502535
     2  C   -0.565577
     3  C    0.402839
     4  N    0.580669
     5  C    0.150251
     6  C   -1.554902
     7  N    0.928386
     8  H    0.166198
     9  H    0.255767
    10  H    0.215299
    11  H   -0.157730
    12  H   -0.101652
    13  H   -0.093792
    14  H    0.211159
    15  H    0.065618
 Sum of Mulliken charges =   0.00000

 Dipole moment (field-independent basis, Debye):
    X=             -3.8827    Y=             -3.3718    Z=              1.5473  Tot=              5.3701

 Test job not archived.
 1\1\GINC-SE030\SP\RHF\Aug-CC-pVDZ\C5H8N2\OHZDE\09-Apr-2025\0\\#t hf au
 g-cc-pvdz iop(5/13=1,5/36=2,99/5=2) pseudo=read geom=check guess=(read
 ,tcheck) scf=(maxcycle=1)\\title\\0,1\C,0,-1.79061054,-0.945277,0.2021
 7972\C,0,-0.73153928,-0.01329424,-0.31054368\C,0,-0.54366642,1.3584705
 1,0.21774623\N,0,0.37448228,0.29153037,0.58025287\C,0,1.68654175,0.365
 30587,-0.02639814\C,0,2.26979027,-0.9743451,-0.15726278\N,0,2.72003948
 ,-2.02122191,-0.28077637\H,0,-1.98891074,-0.75062355,1.25652996\H,0,-1
 .46901473,-1.98328205,0.10185301\H,0,-2.71982761,-0.81879224,-0.356884

 Normal termination of Gaussian 16 at Wed Apr  9 18:10:53 2025.
