 Gaussian 16, Revision C.01,

 ----------------------------------------------------------------------
 #t hf aug-cc-pvdz symm=none int=(grid=ultrafine) guess=(read,tcheck) s
 table=(opt,rrhf)
 ----------------------------------------------------------------------
 -----
 title
 -----
 Symbolic Z-matrix:
 Charge =  0 Multiplicity = 1

 SCF Done:  E(RHF) =  -317.606423167     A.U. after   16 cycles
 Normal termination of Gaussian 16 at Wed Apr  9 19:14:46 2025.
 Gaussian 16:  ES64L-G16RevC.01  3-Jul-2019

 ----------------------------------------------------------------------
 #t hf aug-cc-pvdz iop(5/13=1,5/36=2,99/5=2) pseudo=read geom=check gue
 ss=(read,tcheck) scf=(maxcycle=1)
 ----------------------------------------------------------------------
 -----
 title
 -----
 Structure from the checkpoint file:  "Grambow2020_wb97xd3_008975_forward_mol1.chk"
 Charge =  0 Multiplicity = 1

                         Standard orientation:
 ---------------------------------------------------------------------
 Center     Atomic      Atomic             Coordinates (Angstroms)
 Number     Number       Type             X           Y           Z
 ---------------------------------------------------------------------
      1          7           0       -2.310499    0.047553   -0.074015
      2          6           0       -0.934419    0.023810   -0.008028
      3          6           0       -0.199427   -1.151798    0.003052
      4          7           0        1.140491   -1.201661    0.001796
      5          6           0        1.795398   -0.071650   -0.004197
      6          7           0        1.154871    1.106349    0.012702
      7          6           0       -0.201384    1.225121    0.009609
      8          1           0       -2.804073   -0.758396    0.267842
      9          1           0       -2.728575    0.927178    0.177117
     10          1           0       -0.703793   -2.116252    0.007987
     11          1           0        2.878218   -0.072189   -0.014390
     12          1           0        0.703173    2.201075   -0.024556
 ---------------------------------------------------------------------

 SCF Done:  E(RHF) =  -317.930755894     A.U. after    2 cycles

 The electronic state is 1-A.
 Alpha  occ. eigenvalues --  -15.54427 -15.51446 -15.51204 -11.32352 -11.29102
 Alpha  occ. eigenvalues --  -11.28821 -11.26623  -1.32874  -1.22742  -1.21893
 Alpha  occ. eigenvalues --   -1.05226  -0.94312  -0.90797  -0.80038  -0.75892
 Alpha  occ. eigenvalues --   -0.71425  -0.67375  -0.63277  -0.62220  -0.55142
 Alpha  occ. eigenvalues --   -0.53199  -0.50949  -0.47017  -0.37580  -0.33945
 Alpha virt. eigenvalues --    0.03092   0.04240   0.04918   0.05286   0.06333
 Alpha virt. eigenvalues --    0.06886   0.08804   0.09781   0.10000   0.10787
 Alpha virt. eigenvalues --    0.11613   0.13046   0.13326   0.14166   0.14627

 Mulliken charges:
               1
     1  N    0.704517
     2  C   -0.597773
     3  C   -0.298031
     4  N    0.734710
     5  C   -0.757342
     6  N    0.534137
     7  C   -0.759939
     8  H    0.028794
     9  H    0.046002
    10  H   -0.113882
    11  H   -0.013965
    12  H    0.492773
 Sum of Mulliken charges =  -0.00000

 Dipole moment (field-independent basis, Debye):
    X=             -1.2724    Y=              0.1649    Z=              0.8126  Tot=              1.5187

 Test job not archived.
 1\1\GINC-SE097\SP\RHF\Aug-CC-pVDZ\C4H5N3\OHZDE\09-Apr-2025\0\\#t hf au
 g-cc-pvdz iop(5/13=1,5/36=2,99/5=2) pseudo=read geom=check guess=(read
 ,tcheck) scf=(maxcycle=1)\\title\\0,1\N,0,-2.16158981,0.17724362,0.078
 97893\C,0,-0.78963343,0.06219525,0.02407236\C,0,0.06298916,1.15282718,
 0.10118814\N,0,1.40073615,1.0627673,0.11496156\C,0,1.93521725,-0.12691
 466,0.04532513\N,0,1.17669045,-1.22779912,-0.059234\C,0,-0.1844866,-1.
 20470912,-0.07365724\H,0,-2.56439393,1.05204466,-0.20826057\H,0,-2.664
 76069,-0.63443527,-0.23660203\H,0,-0.33889448,2.16251642,0.16116829\H,

 Normal termination of Gaussian 16 at Wed Apr  9 19:14:50 2025.
