 Gaussian 16, Revision C.01,

 ----------------------------------------------------------------------
 #t hf aug-cc-pvdz symm=none int=(grid=ultrafine) guess=(read,tcheck) s
 table=(opt,rrhf)
 ----------------------------------------------------------------------
 -----
 title
 -----
 Symbolic Z-matrix:
 Charge =  0 Multiplicity = 1

 SCF Done:  E(RHF) =  -283.710608549     A.U. after   14 cycles
 Normal termination of Gaussian 16 at Wed Apr  9 17:05:08 2025.
 Gaussian 16:  ES64L-G16RevC.01  3-Jul-2019

 ----------------------------------------------------------------------
 #t hf aug-cc-pvdz iop(5/13=1,5/36=2,99/5=2) pseudo=read geom=check gue
 ss=(read,tcheck) scf=(maxcycle=1)
 ----------------------------------------------------------------------
 -----
 title
 -----
 Structure from the checkpoint file:  "Grambow2020_wb97xd3_006238_reverse_mol2.chk"
 Charge =  0 Multiplicity = 1

                         Standard orientation:
 ---------------------------------------------------------------------
 Center     Atomic      Atomic             Coordinates (Angstroms)
 Number     Number       Type             X           Y           Z
 ---------------------------------------------------------------------
      1          8           0        2.006026    0.094806   -0.000296
      2          6           0        0.679860   -0.029640   -0.000443
      3          6           0       -0.202666    1.179020    0.000322
      4          6           0       -1.542062    0.505522   -0.000561
      5          6           0       -1.315787   -0.810309   -0.000034
      6          7           0        0.062359   -1.147401    0.000051
      7          1           0       -0.018020    1.803378   -0.877992
      8          1           0       -0.018228    1.799054    0.881830
      9          1           0       -2.496626    1.008469   -0.000209
     10          1           0       -2.043955   -1.608995    0.001167
     11          1           0        2.376037   -0.796101    0.001508
 ---------------------------------------------------------------------

 SCF Done:  E(RHF) =  -284.001445098     A.U. after    2 cycles

 The electronic state is 1-A.
 Alpha  occ. eigenvalues --  -20.60052 -15.48632 -11.34923 -11.26661 -11.25758
 Alpha  occ. eigenvalues --  -11.23130  -1.52882  -1.27073  -1.05672  -0.98336
 Alpha  occ. eigenvalues --   -0.81616  -0.81207  -0.72273  -0.66997  -0.65825
 Alpha  occ. eigenvalues --   -0.60465  -0.57128  -0.56944  -0.53189  -0.48675
 Alpha  occ. eigenvalues --   -0.48042  -0.33808
 Alpha virt. eigenvalues --    0.03577   0.04250   0.04600   0.05085   0.05497
 Alpha virt. eigenvalues --    0.09746   0.10645   0.10661   0.12051   0.12900
 Alpha virt. eigenvalues --    0.12939   0.13833   0.14740   0.15841   0.16721

 Mulliken charges:
               1
     1  O   -1.373340
     2  C    0.228794
     3  C   -0.430676
     4  C    0.596155
     5  C   -0.426312
     6  N    0.835564
     7  H    0.244302
     8  H    0.246368
     9  H   -0.107049
    10  H   -0.128155
    11  H    0.314350
 Sum of Mulliken charges =  -0.00000

 Dipole moment (field-independent basis, Debye):
    X=              0.0164    Y=              1.5585    Z=              0.0053  Tot=              1.5586

 Test job not archived.
 1\1\GINC-SE162\SP\RHF\Aug-CC-pVDZ\C4H5N1O1\OHZDE\09-Apr-2025\0\\#t hf
 aug-cc-pvdz iop(5/13=1,5/36=2,99/5=2) pseudo=read geom=check guess=(re
 ad,tcheck) scf=(maxcycle=1)\\title\\0,1\O,0,-0.91350908,2.03549563,0.1
 8550065\C,0,-0.21907727,0.90134676,0.11017704\C,0,-0.89998212,-0.39410
 831,-0.20267461\C,0,0.28627606,-1.31015853,-0.16766826\C,0,1.35095803,
 -0.5570667,0.11854494\N,0,1.04207532,0.8167755,0.29194259\H,0,-1.40140
 664,-0.35235904,-1.17333562\H,0,-1.66288327,-0.6270801,0.54513819\H,0,
 0.261697,-2.37459586,-0.34236291\H,0,2.37839424,-0.87429723,0.2274895\

 Normal termination of Gaussian 16 at Wed Apr  9 17:05:12 2025.
