 Gaussian 16, Revision C.01,

 ----------------------------------------------------------------------
 #t hf aug-cc-pvdz symm=none int=(grid=ultrafine) guess=(read,tcheck) s
 table=(opt,rrhf)
 ----------------------------------------------------------------------
 -----
 title
 -----
 Symbolic Z-matrix:
 Charge =  0 Multiplicity = 1

 SCF Done:  E(RHF) =  -231.598064130     A.U. after   15 cycles
 Normal termination of Gaussian 16 at Wed Apr  9 15:51:55 2025.
 Gaussian 16:  ES64L-G16RevC.01  3-Jul-2019

 ----------------------------------------------------------------------
 #t hf aug-cc-pvdz iop(5/13=1,5/36=2,99/5=2) pseudo=read geom=check gue
 ss=(read,tcheck) scf=(maxcycle=1)
 ----------------------------------------------------------------------
 -----
 title
 -----
 Structure from the checkpoint file:  "Grambow2020_b97d3_006871_forward_mol1.chk"
 Charge =  0 Multiplicity = 1

                         Standard orientation:
 ---------------------------------------------------------------------
 Center     Atomic      Atomic             Coordinates (Angstroms)
 Number     Number       Type             X           Y           Z
 ---------------------------------------------------------------------
      1          6           0        1.334837   -0.458650   -0.415181
      2          6           0        0.666953    0.909367   -0.391434
      3          6           0       -0.898611    0.751606   -0.265938
      4          6           0       -1.491531   -0.659602   -0.244899
      5          6           0        0.165093   -0.935635    0.556903
      6          6           0       -0.020796    0.584062    0.918964
      7          1           0        2.274218   -0.445467    0.153359
      8          1           0        1.478031   -0.997154   -1.366883
      9          1           0        1.118571    1.853639   -0.693077
     10          1           0       -1.498507    1.640298   -0.453284
     11          1           0       -0.425815   -1.282546   -0.516314
     12          1           0       -1.723546   -1.168644   -1.216608
     13          1           0        0.267822   -1.784531    1.233643
     14          1           0       -0.026444    1.037520    1.908677
 ---------------------------------------------------------------------

 SCF Done:  E(RHF) =  -231.844626091     A.U. after    2 cycles

 The electronic state is 1-A.
 Alpha  occ. eigenvalues --  -11.31092 -11.26201 -11.25246 -11.25106 -11.24778
 Alpha  occ. eigenvalues --  -11.22780  -1.23862  -0.99331  -0.98088  -0.86933
 Alpha  occ. eigenvalues --   -0.76339  -0.73520  -0.71711  -0.63932  -0.60549
 Alpha  occ. eigenvalues --   -0.58511  -0.53422  -0.48497  -0.47214  -0.43534
 Alpha  occ. eigenvalues --   -0.39163  -0.30334
 Alpha virt. eigenvalues --    0.03149   0.03345   0.03578   0.04408   0.05745
 Alpha virt. eigenvalues --    0.06032   0.06564   0.08765   0.09938   0.11832
 Alpha virt. eigenvalues --    0.12201   0.12882   0.13499   0.14369   0.14788

 Mulliken charges:
               1
     1  C   -0.270052
     2  C    0.393498
     3  C    0.274242
     4  C   -0.651934
     5  C   -0.371608
     6  C    0.451312
     7  H    0.099323
     8  H    0.011582
     9  H   -0.194855
    10  H   -0.161713
    11  H    0.784773
    12  H    0.014803
    13  H   -0.166327
    14  H   -0.213045
 Sum of Mulliken charges =  -0.00000

 Dipole moment (field-independent basis, Debye):
    X=              2.9950    Y=              0.3050    Z=             -0.2504  Tot=              3.0209

 Test job not archived.
 1\1\GINC-SE173\SP\RHF\Aug-CC-pVDZ\C6H8\OHZDE\09-Apr-2025\0\\#t hf aug-
 cc-pvdz iop(5/13=1,5/36=2,99/5=2) pseudo=read geom=check guess=(read,t
 check) scf=(maxcycle=1)\\title\\0,1\C,0,-1.18615122,-0.30766245,0.5989
 3901\C,0,-0.47707657,1.02121518,0.37667897\C,0,1.03302843,0.77699894,-
 0.01264108\C,0,1.55361928,-0.66203276,-0.05360466\C,0,-0.22952411,-0.8
 9329046,-0.53360987\C,0,-0.04838024,0.59430218,-1.01254066\H,0,-2.2105
 6441,-0.2753715,0.20475058\H,0,-1.17937243,-0.78863727,1.5913325\H,0,-
 0.82803579,2.00165494,0.69630495\H,0,1.69306698,1.64212192,0.01301315\

 Normal termination of Gaussian 16 at Wed Apr  9 15:51:59 2025.
