 Gaussian 16, Revision C.01,

 ----------------------------------------------------------------------
 #t hf aug-cc-pvdz symm=none int=(grid=ultrafine) guess=(read,tcheck) s
 table=(opt,rrhf)
 ----------------------------------------------------------------------
 -----
 title
 -----
 Symbolic Z-matrix:
 Charge =  0 Multiplicity = 1

 SCF Done:  E(RHF) =  -301.523792228     A.U. after   16 cycles
 Normal termination of Gaussian 16 at Wed Apr  9 18:38:30 2025.
 Gaussian 16:  ES64L-G16RevC.01  3-Jul-2019

 ----------------------------------------------------------------------
 #t hf aug-cc-pvdz iop(5/13=1,5/36=2,99/5=2) pseudo=read geom=check gue
 ss=(read,tcheck) scf=(maxcycle=1)
 ----------------------------------------------------------------------
 -----
 title
 -----
 Structure from the checkpoint file:  "Grambow2020_wb97xd3_007927_forward_mol1.chk"
 Charge =  0 Multiplicity = 1

                         Standard orientation:
 ---------------------------------------------------------------------
 Center     Atomic      Atomic             Coordinates (Angstroms)
 Number     Number       Type             X           Y           Z
 ---------------------------------------------------------------------
      1          6           0       -1.033537    0.720061    0.552186
      2          6           0       -1.832971   -0.450501   -0.001029
      3          6           0       -0.389167   -0.531286   -0.309133
      4          7           0        0.657147   -1.299476    0.031596
      5          6           0        1.639399   -0.428969    0.147555
      6          6           0        1.173686    0.911130   -0.014674
      7          7           0       -0.097494    0.807167   -0.683474
      8          1           0        0.447787    0.858075    1.123170
      9          1           0       -1.412636    1.650456    0.952348
     10          1           0       -2.200981   -1.173596    0.718697
     11          1           0       -2.510897   -0.262130   -0.834653
     12          1           0        2.611268   -0.726702    0.521174
     13          1           0        1.803426    1.777455   -0.167019
 ---------------------------------------------------------------------

 SCF Done:  E(RHF) =  -301.840091882     A.U. after    2 cycles

 The electronic state is 1-A.
 Alpha  occ. eigenvalues --  -15.52688 -15.51296 -11.34765 -11.31071 -11.27939
 Alpha  occ. eigenvalues --  -11.27828 -11.26235  -1.37946  -1.22675  -1.10023
 Alpha  occ. eigenvalues --   -0.96664  -0.87431  -0.83285  -0.78867  -0.72245
 Alpha  occ. eigenvalues --   -0.68729  -0.65562  -0.61833  -0.56126  -0.54287
 Alpha  occ. eigenvalues --   -0.52575  -0.50396  -0.49033  -0.41702  -0.32556
 Alpha virt. eigenvalues --    0.03477   0.04044   0.04692   0.04880   0.05270
 Alpha virt. eigenvalues --    0.06297   0.08032   0.08601   0.09379   0.10280
 Alpha virt. eigenvalues --    0.12446   0.13349   0.13595   0.14507   0.14597

 Mulliken charges:
               1
     1  C   -0.011516
     2  C    0.254129
     3  C   -1.668552
     4  N    1.075065
     5  C    0.083487
     6  C   -0.651802
     7  N    0.429448
     8  H    0.918057
     9  H   -0.297642
    10  H    0.043983
    11  H    0.018684
    12  H   -0.100639
    13  H   -0.092703
 Sum of Mulliken charges =  -0.00000

 Dipole moment (field-independent basis, Debye):
    X=              0.4592    Y=              1.3761    Z=              1.2730  Tot=              1.9300

 Test job not archived.
 1\1\GINC-SE029\SP\RHF\Aug-CC-pVDZ\C5H6N2\OHZDE\09-Apr-2025\0\\#t hf au
 g-cc-pvdz iop(5/13=1,5/36=2,99/5=2) pseudo=read geom=check guess=(read
 ,tcheck) scf=(maxcycle=1)\\title\\0,1\C,0,-1.13320766,-0.29720519,-0.0
 7728828\C,0,-1.40762478,1.14363138,0.32773366\C,0,0.02999032,0.7983222
 6,0.33470835\N,0,1.13088265,1.11698929,-0.36348461\C,0,1.76786665,-0.0
 3278504,-0.45469771\C,0,1.00001262,-1.10240609,0.09791862\N,0,0.017393
 97,-0.48214056,0.94864296\H,0,0.05896377,-1.00175419,-0.8657876\H,0,-1
 .84559446,-1.10519934,-0.17283852\H,0,-1.72463504,1.81967551,-0.458886

 Normal termination of Gaussian 16 at Wed Apr  9 18:38:35 2025.
