 Gaussian 16, Revision C.01,

 ----------------------------------------------------------------------
 #t hf aug-cc-pvdz symm=none int=(grid=ultrafine) guess=(read,tcheck) s
 table=(opt,rrhf)
 ----------------------------------------------------------------------
 -----
 title
 -----
 Symbolic Z-matrix:
 Charge =  0 Multiplicity = 1

 SCF Done:  E(RHF) =  -306.657412726     A.U. after   12 cycles
 Normal termination of Gaussian 16 at Wed Apr  9 03:27:47 2025.
 Gaussian 16:  ES64L-G16RevC.01  3-Jul-2019

 ----------------------------------------------------------------------
 #t hf aug-cc-pvdz iop(5/13=1,5/36=2,99/5=2) pseudo=read geom=check gue
 ss=(read,tcheck) scf=(maxcycle=1)
 ----------------------------------------------------------------------
 -----
 title
 -----
 Structure from the checkpoint file:  "Grambow2020_wb97xd3_006669_forward_mol2.chk"
 Charge =  0 Multiplicity = 1

                         Standard orientation:
 ---------------------------------------------------------------------
 Center     Atomic      Atomic             Coordinates (Angstroms)
 Number     Number       Type             X           Y           Z
 ---------------------------------------------------------------------
      1          6           0       -2.207281    0.000671   -0.271785
      2          6           0       -0.735679    0.000905   -0.618589
      3          6           0        0.174058    0.960967    0.207328
      4          8           0        0.115412   -0.003041    1.295394
      5          6           0        0.174691   -0.962171    0.203104
      6          6           0        1.549406   -0.662916   -0.394656
      7          6           0        1.548593    0.665320   -0.392193
      8          1           0       -2.700722    0.881895   -0.687839
      9          1           0       -2.355145   -0.001739    0.807982
     10          1           0       -2.701421   -0.879026   -0.690392
     11          1           0       -0.565472    0.003387   -1.695926
     12          1           0       -0.105151    1.976399    0.480040
     13          1           0       -0.104080   -1.978687    0.472298
     14          1           0        2.294497   -1.369702   -0.726300
     15          1           0        2.291475    1.375148   -0.722263
 ---------------------------------------------------------------------

 SCF Done:  E(RHF) =  -306.976892326     A.U. after    2 cycles

 The electronic state is 1-A.
 Alpha  occ. eigenvalues --  -20.53387 -11.29698 -11.29619 -11.24664 -11.23948
 Alpha  occ. eigenvalues --  -11.23820 -11.22363  -1.47311  -1.11564  -1.02956
 Alpha  occ. eigenvalues --   -0.94361  -0.89959  -0.75349  -0.74798  -0.72433
 Alpha  occ. eigenvalues --   -0.67743  -0.59181  -0.58589  -0.56106  -0.54734
 Alpha  occ. eigenvalues --   -0.54167  -0.51596  -0.47751  -0.44904  -0.41443
 Alpha  occ. eigenvalues --   -0.35692
 Alpha virt. eigenvalues --    0.03481   0.03525   0.03797   0.04568   0.05297
 Alpha virt. eigenvalues --    0.05887   0.07089   0.07442   0.10240   0.10596
 Alpha virt. eigenvalues --    0.12351   0.12459   0.13624   0.14625   0.15125

 Mulliken charges:
               1
     1  C   -0.350747
     2  C   -0.760074
     3  C    0.828463
     4  O   -1.456336
     5  C    0.828137
     6  C    0.469960
     7  C    0.470160
     8  H    0.186358
     9  H    0.215387
    10  H    0.186021
    11  H   -0.142249
    12  H   -0.086774
    13  H   -0.086846
    14  H   -0.150471
    15  H   -0.150989
 Sum of Mulliken charges =   0.00000

 Dipole moment (field-independent basis, Debye):
    X=             -0.1846    Y=              0.0054    Z=             -1.9928  Tot=              2.0014

 Test job not archived.
 1\1\GINC-SE094\SP\RHF\Aug-CC-pVDZ\C6H8O1\OHZDE\09-Apr-2025\0\\#t hf au
 g-cc-pvdz iop(5/13=1,5/36=2,99/5=2) pseudo=read geom=check guess=(read
 ,tcheck) scf=(maxcycle=1)\\title\\0,1\C,0,1.93620882,0.39271858,-0.216
 94699\C,0,0.55016907,-0.19969582,-0.33452797\C,0,-0.22536947,-0.426636
 77,0.99908192\O,0,-0.50286276,1.00135961,1.02057051\C,0,-0.63533024,0.
 81000739,-0.41552828\C,0,-1.83394549,-0.13572703,-0.49048723\C,0,-1.55
 038407,-0.99007235,0.48619223\H,0,2.65185489,-0.36478348,0.11043851\H,
 0,1.95115321,1.21529855,0.49782982\H,0,2.27755896,0.76880305,-1.184063

 Normal termination of Gaussian 16 at Wed Apr  9 03:27:52 2025.
