 Gaussian 16, Revision C.01,

 ----------------------------------------------------------------------
 #t hf aug-cc-pvdz symm=none int=(grid=ultrafine) guess=(read,tcheck) s
 table=(opt,rrhf)
 ----------------------------------------------------------------------
 -----
 title
 -----
 Symbolic Z-matrix:
 Charge =  0 Multiplicity = 1

 SCF Done:  E(RHF) =  -338.608071925     A.U. after   16 cycles
 Normal termination of Gaussian 16 at Wed Apr  9 19:05:50 2025.
 Gaussian 16:  ES64L-G16RevC.01  3-Jul-2019

 ----------------------------------------------------------------------
 #t hf aug-cc-pvdz iop(5/13=1,5/36=2,99/5=2) pseudo=read geom=check gue
 ss=(read,tcheck) scf=(maxcycle=1)
 ----------------------------------------------------------------------
 -----
 title
 -----
 Structure from the checkpoint file:  "Grambow2020_wb97xd3_008558_reverse_mol1.chk"
 Charge =  0 Multiplicity = 1

                         Standard orientation:
 ---------------------------------------------------------------------
 Center     Atomic      Atomic             Coordinates (Angstroms)
 Number     Number       Type             X           Y           Z
 ---------------------------------------------------------------------
      1          7           0       -1.965485    1.123000   -0.240929
      2          6           0       -2.296155   -0.144841    0.079929
      3          8           0       -1.289005   -1.001828    0.090534
      4          6           0       -0.010528   -0.645353   -0.460729
      5          6           0        0.859540    0.019596    0.603119
      6          6           0        2.225224    0.201493    0.122099
      7          7           0        3.292522    0.331108   -0.276797
      8          1           0       -2.835468    1.640765   -0.362133
      9          1           0       -2.436006    0.789465    0.926813
     10          1           0       -0.135069    0.012486   -1.320024
     11          1           0        0.428120   -1.587796   -0.782620
     12          1           0        0.449492    0.994647    0.868993
     13          1           0        0.883221   -0.599082    1.502272
 ---------------------------------------------------------------------

 SCF Done:  E(RHF) =  -338.948113946     A.U. after    2 cycles

 The electronic state is 1-A.
 Alpha  occ. eigenvalues --  -20.60323 -15.57058 -15.51733 -11.34720 -11.32472
 Alpha  occ. eigenvalues --  -11.29859 -11.28618  -1.54064  -1.27509  -1.24348
 Alpha  occ. eigenvalues --   -1.09881  -0.94867  -0.84150  -0.75490  -0.73451
 Alpha  occ. eigenvalues --   -0.70714  -0.66702  -0.64655  -0.60732  -0.60277
 Alpha  occ. eigenvalues --   -0.59157  -0.53709  -0.51848  -0.49884  -0.48475
 Alpha  occ. eigenvalues --   -0.38897
 Alpha virt. eigenvalues --    0.02468   0.03923   0.04426   0.05247   0.05907
 Alpha virt. eigenvalues --    0.06070   0.07679   0.08735   0.09963   0.11428
 Alpha virt. eigenvalues --    0.12086   0.12394   0.12974   0.13991   0.14994

 Mulliken charges:
               1
     1  N    0.210064
     2  C   -0.434359
     3  O   -1.117254
     4  C    0.608140
     5  C    0.034812
     6  C   -1.675677
     7  N    0.952019
     8  H    0.114114
     9  H    0.470138
    10  H    0.275982
    11  H    0.022611
    12  H    0.292180
    13  H    0.247229
 Sum of Mulliken charges =  -0.00000

 Dipole moment (field-independent basis, Debye):
    X=             -3.9351    Y=              0.8286    Z=              1.4556  Tot=              4.2767

 Test job not archived.
 1\1\GINC-SE105\SP\RHF\Aug-CC-pVDZ\C4H6N2O1\OHZDE\09-Apr-2025\0\\#t hf
 aug-cc-pvdz iop(5/13=1,5/36=2,99/5=2) pseudo=read geom=check guess=(re
 ad,tcheck) scf=(maxcycle=1)\\title\\0,1\N,0,-1.82319387,0.93515585,-0.
 15965775\C,0,-2.0393659,-0.29264473,0.35559877\O,0,-0.9984703,-1.10757
 673,0.31936491\C,0,0.16833843,-0.78085986,-0.45347677\C,0,1.14609327,0
 .04094578,0.38293161\C,0,2.41805955,0.20628055,-0.31300491\N,0,3.40948
 034,0.32017304,-0.87794403\H,0,-2.72692236,1.4044096,-0.21179789\H,0,-
 2.1046035,0.73543733,1.09620045\H,0,-0.11103413,-0.24062736,-1.3572185

 Normal termination of Gaussian 16 at Wed Apr  9 19:05:54 2025.
