 Gaussian 16, Revision C.01,

 ----------------------------------------------------------------------
 #t hf aug-cc-pvdz symm=none int=(grid=ultrafine) guess=(read,tcheck) s
 table=(opt,rrhf)
 ----------------------------------------------------------------------
 -----
 title
 -----
 Symbolic Z-matrix:
 Charge =  0 Multiplicity = 1

 SCF Done:  E(RHF) =  -324.964821673     A.U. after   14 cycles
 Normal termination of Gaussian 16 at Wed Apr  9 03:52:58 2025.
 Gaussian 16:  ES64L-G16RevC.01  3-Jul-2019

 ----------------------------------------------------------------------
 #t hf aug-cc-pvdz iop(5/13=1,5/36=2,99/5=2) pseudo=read geom=check gue
 ss=(read,tcheck) scf=(maxcycle=1)
 ----------------------------------------------------------------------
 -----
 title
 -----
 Structure from the checkpoint file:  "Grambow2020_wb97xd3_008235_reverse_mol1.chk"
 Charge =  0 Multiplicity = 1

                         Standard orientation:
 ---------------------------------------------------------------------
 Center     Atomic      Atomic             Coordinates (Angstroms)
 Number     Number       Type             X           Y           Z
 ---------------------------------------------------------------------
      1          6           0        2.310714   -0.855790   -0.420241
      2          6           0        1.515273   -0.033136    0.542068
      3          6           0        1.162187    1.302054    0.300662
      4          7           0       -0.857122    1.058576   -0.651553
      5          6           0       -1.225179   -0.101401   -0.158403
      6          8           0       -0.394161   -1.034710    0.029856
      7          6           0       -2.662877   -0.385083    0.242492
      8          1           0        3.282695   -1.126208   -0.003754
      9          1           0        1.745315   -1.764180   -0.613586
     10          1           0        2.451670   -0.328014   -1.363115
     11          1           0        1.289611   -0.445294    1.516289
     12          1           0        2.316495    1.020609    0.892708
     13          1           0        0.675625    1.886095    1.066111
     14          1           0        1.461554    1.779922   -0.618056
     15          1           0       -1.625049    1.719355   -0.649221
     16          1           0       -2.992138   -1.305128   -0.241761
     17          1           0       -3.345216    0.423122   -0.023599
     18          1           0       -2.708129   -0.552495    1.320542
 ---------------------------------------------------------------------

 SCF Done:  E(RHF) =  -325.307695543     A.U. after    2 cycles

 The electronic state is 1-A.
 Alpha  occ. eigenvalues --  -20.44978 -15.41821 -11.33901 -11.32694 -11.28861
 Alpha  occ. eigenvalues --  -11.25128 -11.20486  -1.38741  -1.15714  -1.12580
 Alpha  occ. eigenvalues --   -0.98693  -0.95170  -0.82404  -0.72949  -0.70500
 Alpha  occ. eigenvalues --   -0.66644  -0.64355  -0.60589  -0.59050  -0.57235
 Alpha  occ. eigenvalues --   -0.56571  -0.55587  -0.52990  -0.52267  -0.46676
 Alpha  occ. eigenvalues --   -0.41824  -0.35914  -0.34825
 Alpha virt. eigenvalues --    0.02495   0.03600   0.03864   0.04708   0.05844
 Alpha virt. eigenvalues --    0.05958   0.06443   0.06702   0.07349   0.09042
 Alpha virt. eigenvalues --    0.09148   0.11151   0.12320   0.13487   0.13798

 Mulliken charges:
               1
     1  C   -0.342827
     2  C    0.108624
     3  C    0.080455
     4  N    0.602196
     5  C    0.006762
     6  O   -1.496804
     7  C   -0.379864
     8  H    0.176434
     9  H    0.302461
    10  H    0.196135
    11  H   -0.036285
    12  H    0.344434
    13  H   -0.001086
    14  H   -0.061938
    15  H    0.019178
    16  H    0.195205
    17  H    0.087319
    18  H    0.199601
 Sum of Mulliken charges =  -0.00000

 Dipole moment (field-independent basis, Debye):
    X=              3.8460    Y=              2.0210    Z=              2.4325  Tot=              4.9793

 Test job not archived.
 1\1\GINC-SE054\SP\RHF\Aug-CC-pVDZ\C5H11N1O1\OHZDE\09-Apr-2025\0\\#t hf
  aug-cc-pvdz iop(5/13=1,5/36=2,99/5=2) pseudo=read geom=check guess=(r
 ead,tcheck) scf=(maxcycle=1)\\title\\0,1\C,0,-2.06349063,0.3855591,-0.
 98389233\C,0,-1.16084837,0.85967748,0.1097141\C,0,-1.04888353,0.210691
 5,1.34743799\N,0,0.68078333,-1.17004995,0.96611412\C,0,1.30242776,-0.5
 2829367,0.00386787\O,0,0.66826755,0.10412986,-0.88774855\C,0,2.8184955
 4,-0.48134079,-0.08273578\H,0,-2.85826457,1.10632856,-1.18429112\H,0,-
 1.4561031,0.27315122,-1.8786971\H,0,-2.50126346,-0.58166624,-0.7384207

 Normal termination of Gaussian 16 at Wed Apr  9 03:53:05 2025.
