 Gaussian 16, Revision C.01,

 ----------------------------------------------------------------------
 #t hf aug-cc-pvdz symm=none int=(grid=ultrafine) guess=(read,tcheck) s
 table=(opt,rrhf)
 ----------------------------------------------------------------------
 -----
 title
 -----
 Symbolic Z-matrix:
 Charge =  0 Multiplicity = 1

 SCF Done:  E(RHF) =  -338.648776024     A.U. after   14 cycles
 Normal termination of Gaussian 16 at Wed Apr  9 03:28:16 2025.
 Gaussian 16:  ES64L-G16RevC.01  3-Jul-2019

 ----------------------------------------------------------------------
 #t hf aug-cc-pvdz iop(5/13=1,5/36=2,99/5=2) pseudo=read geom=check gue
 ss=(read,tcheck) scf=(maxcycle=1)
 ----------------------------------------------------------------------
 -----
 title
 -----
 Structure from the checkpoint file:  "Grambow2020_wb97xd3_006696_forward_mol1.chk"
 Charge =  0 Multiplicity = 1

                         Standard orientation:
 ---------------------------------------------------------------------
 Center     Atomic      Atomic             Coordinates (Angstroms)
 Number     Number       Type             X           Y           Z
 ---------------------------------------------------------------------
      1          6           0        1.938169   -0.122843    0.797234
      2          6           0        0.996935   -0.719535   -0.699461
      3          6           0        0.966623    0.681406   -0.521431
      4          7           0       -0.277937    1.176026   -0.126098
      5          6           0       -0.965955    0.089340   -0.006325
      6          7           0       -2.249797   -0.024507    0.380439
      7          8           0       -0.311987   -1.054798   -0.271380
      8          1           0        2.972231   -0.230278    0.493102
      9          1           0        1.802398    0.755982    1.431607
     10          1           0        1.603483   -0.994721    1.349486
     11          1           0        1.712894    1.359145   -0.910534
     12          1           0       -2.716202   -0.897020    0.214235
     13          1           0       -2.799403    0.814439    0.392655
 ---------------------------------------------------------------------

 SCF Done:  E(RHF) =  -338.993213598     A.U. after    2 cycles

 The electronic state is 1-A.
 Alpha  occ. eigenvalues --  -20.60182 -15.54586 -15.48254 -11.38798 -11.29873
 Alpha  occ. eigenvalues --  -11.27779 -11.27222  -1.55472  -1.27314  -1.23275
 Alpha  occ. eigenvalues --   -1.06656  -0.92317  -0.85934  -0.83653  -0.77108
 Alpha  occ. eigenvalues --   -0.73223  -0.68471  -0.65335  -0.60959  -0.58004
 Alpha  occ. eigenvalues --   -0.56830  -0.52790  -0.50760  -0.47336  -0.39469
 Alpha  occ. eigenvalues --   -0.37333
 Alpha virt. eigenvalues --    0.02750   0.04223   0.04584   0.05534   0.05758
 Alpha virt. eigenvalues --    0.06502   0.08778   0.10444   0.11084   0.11801
 Alpha virt. eigenvalues --    0.13065   0.14233   0.14721   0.15212   0.15650

 Mulliken charges:
               1
     1  C   -0.283971
     2  C    0.454519
     3  C   -0.450617
     4  N    0.742867
     5  C   -0.680924
     6  N    0.743338
     7  O   -1.341909
     8  H    0.124206
     9  H    0.230665
    10  H    0.201740
    11  H   -0.038343
    12  H    0.156012
    13  H    0.142416
 Sum of Mulliken charges =   0.00000

 Dipole moment (field-independent basis, Debye):
    X=             -1.7661    Y=              0.5213    Z=              1.4885  Tot=              2.3678

 Test job not archived.
 1\1\GINC-SE363\SP\RHF\Aug-CC-pVDZ\C4H6N2O1\OHZDE\09-Apr-2025\0\\#t hf
 aug-cc-pvdz iop(5/13=1,5/36=2,99/5=2) pseudo=read geom=check guess=(re
 ad,tcheck) scf=(maxcycle=1)\\title\\0,1\C,0,-1.7957174,-0.00921883,0.2
 3745414\C,0,-0.72828679,0.84824059,-1.03038381\C,0,-0.62713069,-0.5605
 1562,-1.0509838\N,0,0.592856,-1.04844127,-0.57830406\C,0,1.1896533,0.0
 3989886,-0.22060343\N,0,2.40970702,0.15609419,0.33506338\O,0,0.4973243
 2,1.17816218,-0.39954319\H,0,-2.79230285,0.09276976,-0.17453835\H,0,-1
 .67720101,-0.96527695,0.75233474\H,0,-1.58521513,0.78559497,0.94535888

 Normal termination of Gaussian 16 at Wed Apr  9 03:28:20 2025.
