 Gaussian 16, Revision C.01,

 ----------------------------------------------------------------------
 #t hf aug-cc-pvdz symm=none int=(grid=ultrafine) guess=(read,tcheck) s
 table=(opt,rrhf)
 ----------------------------------------------------------------------
 -----
 title
 -----
 Symbolic Z-matrix:
 Charge =  0 Multiplicity = 1

 SCF Done:  E(RHF) =  -307.776887729     A.U. after   16 cycles

 1\1\GINC-SE222\Stability\RHF\Aug-CC-pVDZ\C6H10O1\OHZDE\09-Apr-2025\0\\
 #t hf aug-cc-pvdz symm=none int=(grid=ultrafine) guess=(read,tcheck) s
 table=(opt,rrhf)\\title\\0,1\C,0,1.80926539,0.70851077,0.30524813\C,0,
 0.93751611,-0.45902685,-0.132971\C,0,-0.08430524,-0.91992372,0.9224584
 5\C,0,-1.32556986,-0.04957967,0.65987584\O,0,-2.40000435,-0.84090311,0
 .54141004\C,0,-0.86286432,0.95713644,-1.05497754\C,0,-0.0774956,-0.139
 25834,-1.20431496\H,0,2.38981951,1.09772266,-0.53393053\H,0,2.5053076,
 0.39198383,1.08421065\H,0,1.21108106,1.52485819,0.71325498\H,0,1.57899

 Normal termination of Gaussian 16 at Wed Apr  9 19:08:10 2025.
 Gaussian 16:  ES64L-G16RevC.01  3-Jul-2019

 ----------------------------------------------------------------------
 #t hf aug-cc-pvdz iop(5/13=1,5/36=2,99/5=2) pseudo=read geom=check gue
 ss=(read,tcheck) scf=(maxcycle=1)
 ----------------------------------------------------------------------
 -----
 title
 -----
 Structure from the checkpoint file:  "Grambow2020_wb97xd3_008618_reverse_mol1.chk"
 Charge =  0 Multiplicity = 1

                         Standard orientation:
 ---------------------------------------------------------------------
 Center     Atomic      Atomic             Coordinates (Angstroms)
 Number     Number       Type             X           Y           Z
 ---------------------------------------------------------------------
      1          6           0       -2.188519   -0.184275   -0.523329
      2          6           0       -1.109444   -0.333746    0.538924
      3          6           0        0.075706   -1.222635    0.119673
      4          6           0        1.055003   -0.256077   -0.568752
      5          8           0        2.269927   -0.398586   -0.022596
      6          6           0        0.230209    1.584268   -0.250720
      7          6           0       -0.289162    0.906157    0.803608
      8          1           0       -2.911362    0.583468   -0.239043
      9          1           0       -2.724785   -1.125732   -0.655710
     10          1           0       -1.764066    0.089108   -1.490706
     11          1           0       -1.564668   -0.703784    1.458380
     12          1           0       -0.167521   -2.037320   -0.569276
     13          1           0        0.524648   -1.664837    1.014694
     14          1           0        2.893929    0.107618   -0.549489
     15          1           0        1.019103    2.310451   -0.085900
     16          1           0       -0.276058    1.662777   -1.200508
     17          1           0        0.168601    1.004785    1.781909
 ---------------------------------------------------------------------

 SCF Done:  E(RHF) =  -308.100949787     A.U. after    2 cycles

 The electronic state is 1-A.
 Alpha  occ. eigenvalues --  -20.58084 -11.29066 -11.25086 -11.24255 -11.24055
 Alpha  occ. eigenvalues --  -11.22598 -11.22260  -1.49764  -1.13226  -1.00448
 Alpha  occ. eigenvalues --   -0.96391  -0.87131  -0.79460  -0.73871  -0.69632
 Alpha  occ. eigenvalues --   -0.65525  -0.61047  -0.60857  -0.58580  -0.57467
 Alpha  occ. eigenvalues --   -0.55875  -0.53859  -0.49553  -0.48329  -0.47082
 Alpha  occ. eigenvalues --   -0.40705  -0.28653
 Alpha virt. eigenvalues --    0.03395   0.03698   0.04210   0.04246   0.05882
 Alpha virt. eigenvalues --    0.06219   0.06263   0.07159   0.07229   0.09623
 Alpha virt. eigenvalues --    0.10180   0.11969   0.13045   0.13928   0.14452

 Mulliken charges:
               1
     1  C   -0.263453
     2  C   -0.681451
     3  C   -0.271986
     4  C    0.921654
     5  O   -1.228929
     6  C   -0.089750
     7  C    0.760883
     8  H    0.168846
     9  H    0.140865
    10  H    0.239851
    11  H    0.055815
    12  H    0.130169
    13  H    0.098746
    14  H    0.336224
    15  H   -0.104217
    16  H   -0.013113
    17  H   -0.200156
 Sum of Mulliken charges =  -0.00000

 Dipole moment (field-independent basis, Debye):
    X=              0.1910    Y=              0.6419    Z=              0.3633  Tot=              0.7620

 Test job not archived.
 1\1\GINC-SE222\SP\RHF\Aug-CC-pVDZ\C6H10O1\OHZDE\09-Apr-2025\0\\#t hf a
 ug-cc-pvdz iop(5/13=1,5/36=2,99/5=2) pseudo=read geom=check guess=(rea
 d,tcheck) scf=(maxcycle=1)\\title\\0,1\C,0,1.80926539,0.70851077,0.305
 24813\C,0,0.93751611,-0.45902685,-0.132971\C,0,-0.08430524,-0.91992372
 ,0.92245845\C,0,-1.32556986,-0.04957967,0.65987584\O,0,-2.40000435,-0.
 84090311,0.54141004\C,0,-0.86286432,0.95713644,-1.05497754\C,0,-0.0774
 956,-0.13925834,-1.20431496\H,0,2.38981951,1.09772266,-0.53393053\H,0,
 2.5053076,0.39198383,1.08421065\H,0,1.21108106,1.52485819,0.71325498\H

 Normal termination of Gaussian 16 at Wed Apr  9 19:08:16 2025.
