 Gaussian 16, Revision C.01,

 ----------------------------------------------------------------------
 #t hf aug-cc-pvdz symm=none int=(grid=ultrafine) guess=(read,tcheck) s
 table=(opt,rrhf)
 ----------------------------------------------------------------------
 -----
 title
 -----
 Symbolic Z-matrix:
 Charge =  0 Multiplicity = 1

 SCF Done:  E(RHF) =  -359.601933571     A.U. after   14 cycles
 Normal termination of Gaussian 16 at Wed Apr  9 17:25:26 2025.
 Gaussian 16:  ES64L-G16RevC.01  3-Jul-2019

 ----------------------------------------------------------------------
 #t hf aug-cc-pvdz iop(5/13=1,5/36=2,99/5=2) pseudo=read geom=check gue
 ss=(read,tcheck) scf=(maxcycle=1)
 ----------------------------------------------------------------------
 -----
 title
 -----
 Structure from the checkpoint file:  "Grambow2020_wb97xd3_006597_reverse_mol2.chk"
 Charge =  0 Multiplicity = 1

                         Standard orientation:
 ---------------------------------------------------------------------
 Center     Atomic      Atomic             Coordinates (Angstroms)
 Number     Number       Type             X           Y           Z
 ---------------------------------------------------------------------
      1          6           0       -1.278438   -1.720825   -0.007283
      2          7           0       -1.760259   -0.370841    0.030760
      3          6           0       -1.370883    0.753992   -0.001069
      4          6           0        1.629577    0.132015    1.173411
      5          8           0        1.818695   -0.395662    0.008556
      6          6           0        1.638081    0.100952   -1.172062
      7          8           0       -1.105986    1.894426   -0.023197
      8          1           0       -0.683823   -1.937762    0.881339
      9          1           0       -2.127927   -2.400203   -0.036944
     10          1           0       -0.662915   -1.882190   -0.893325
     11          1           0        1.879458   -0.501704    2.006385
     12          1           0        1.301795    1.160244    1.247554
     13          1           0        1.895446   -0.555275   -1.985059
     14          1           0        1.308090    1.125863   -1.276125
 ---------------------------------------------------------------------

 SCF Done:  E(RHF) =  -359.963768796     A.U. after    2 cycles

 The electronic state is 1-A.
 Alpha  occ. eigenvalues --  -20.69254 -20.58400 -15.52258 -11.39955 -11.29474
 Alpha  occ. eigenvalues --  -11.29167 -11.29065  -1.60798  -1.53222  -1.27869
 Alpha  occ. eigenvalues --   -1.03699  -1.01753  -0.83822  -0.75325  -0.74546
 Alpha  occ. eigenvalues --   -0.72241  -0.71140  -0.67894  -0.67558  -0.64604
 Alpha  occ. eigenvalues --   -0.60341  -0.59323  -0.59137  -0.52600  -0.45894
 Alpha  occ. eigenvalues --   -0.44115  -0.26330
 Alpha virt. eigenvalues --    0.03204   0.03976   0.04224   0.04911   0.05888
 Alpha virt. eigenvalues --    0.06566   0.07546   0.07861   0.09537   0.10319
 Alpha virt. eigenvalues --    0.11411   0.12776   0.13499   0.14404   0.14797

 Mulliken charges:
               1
     1  C   -0.378478
     2  N    0.835628
     3  C   -0.013359
     4  C    0.447077
     5  O   -0.779803
     6  C    0.452240
     7  O   -0.844327
     8  H    0.162698
     9  H    0.079397
    10  H    0.164298
    11  H   -0.103106
    12  H    0.044071
    13  H   -0.107279
    14  H    0.040941
 Sum of Mulliken charges =   0.00000

 Dipole moment (field-independent basis, Debye):
    X=              0.8528    Y=             -2.0807    Z=             -0.0310  Tot=              2.2489

 Test job not archived.
 1\1\GINC-SE219\SP\RHF\Aug-CC-pVDZ\C4H7N1O2\OHZDE\09-Apr-2025\0\\#t hf
 aug-cc-pvdz iop(5/13=1,5/36=2,99/5=2) pseudo=read geom=check guess=(re
 ad,tcheck) scf=(maxcycle=1)\\title\\0,1\C,0,1.87623989,-0.14031767,-0.
 98059703\N,0,1.7168676,-0.55994471,0.38122837\C,0,0.87729203,-0.717837
 29,1.21072127\C,0,-1.25594866,1.45369827,-0.01513957\O,0,-1.41901791,0
 .55791463,-0.932786\C,0,-1.70808218,-0.69871122,-0.83060821\O,0,0.1420
 9023,-0.90967914,2.10174554\H,0,1.62255501,0.91557573,-1.08553287\H,0,
 2.91315628,-0.28445095,-1.27740725\H,0,1.23319647,-0.72613039,-1.63885

 Normal termination of Gaussian 16 at Wed Apr  9 17:25:31 2025.
