 Gaussian 16, Revision C.01,

 ----------------------------------------------------------------------
 #t hf aug-cc-pvdz symm=none int=(grid=ultrafine) guess=(read,tcheck) s
 table=(opt,rrhf)
 ----------------------------------------------------------------------
 -----
 title
 -----
 Symbolic Z-matrix:
 Charge =  0 Multiplicity = 1

 SCF Done:  E(RHF) =  -381.914671903     A.U. after   12 cycles

 1\1\GINC-SE014\Stability\RHF\Aug-CC-pVDZ\C4H10O3\OHZDE\09-Apr-2025\0\\
 #t hf aug-cc-pvdz symm=none int=(grid=ultrafine) guess=(read,tcheck) s
 table=(opt,rrhf)\\title\\0,1\C,0,2.64604314,0.49621932,-0.25529554\O,0
 ,1.50917618,-0.02046322,0.38763135\C,0,0.39694705,-0.14769879,-0.46950
 101\C,0,-0.78083115,-0.57792662,0.38387244\O,0,-0.95432355,0.32080022,
 1.46433826\C,0,-2.08809386,-0.58503527,-0.38938832\O,0,-2.4439606,0.70
 320801,-0.83438502\H,0,3.43496623,0.58307418,0.49037769\H,0,2.44653302
 ,1.48671283,-0.68305064\H,0,2.98508377,-0.16939343,-1.0586744\H,0,0.17

 Normal termination of Gaussian 16 at Wed Apr  9 19:13:07 2025.
 Gaussian 16:  ES64L-G16RevC.01  3-Jul-2019

 ----------------------------------------------------------------------
 #t hf aug-cc-pvdz iop(5/13=1,5/36=2,99/5=2) pseudo=read geom=check gue
 ss=(read,tcheck) scf=(maxcycle=1)
 ----------------------------------------------------------------------
 -----
 title
 -----
 Structure from the checkpoint file:  "Grambow2020_wb97xd3_008925_forward_mol2.chk"
 Charge =  0 Multiplicity = 1

                         Standard orientation:
 ---------------------------------------------------------------------
 Center     Atomic      Atomic             Coordinates (Angstroms)
 Number     Number       Type             X           Y           Z
 ---------------------------------------------------------------------
      1          6           0        2.867923   -0.403353   -0.257754
      2          8           0        1.726810    0.305614    0.152133
      3          6           0        0.579519   -0.506343    0.263347
      4          6           0       -0.590029    0.408642    0.572318
      5          8           0       -0.673536    1.437640   -0.396912
      6          6           0       -1.922077   -0.320703    0.547360
      7          8           0       -2.219198   -0.831379   -0.731376
      8          1           0        3.686390    0.310159   -0.341331
      9          1           0        2.710387   -0.883768   -1.231530
     10          1           0        3.139730   -1.175318    0.472724
     11          1           0        0.396694   -1.041895   -0.677020
     12          1           0        0.703904   -1.245470    1.066883
     13          1           0       -0.442606    0.843378    1.570861
     14          1           0        0.226568    1.725836   -0.577169
     15          1           0       -2.702904    0.371833    0.884757
     16          1           0       -1.901212   -1.167015    1.237483
     17          1           0       -2.101575   -0.102196   -1.348046
 ---------------------------------------------------------------------

 SCF Done:  E(RHF) =  -382.311796273     A.U. after    2 cycles

 The electronic state is 1-A.
 Alpha  occ. eigenvalues --  -20.55862 -20.54945 -20.54149 -11.29099 -11.28865
 Alpha  occ. eigenvalues --  -11.28785 -11.28276  -1.48763  -1.46019  -1.43797
 Alpha  occ. eigenvalues --   -1.04915  -0.96517  -0.89377  -0.81743  -0.72735
 Alpha  occ. eigenvalues --   -0.70109  -0.67947  -0.66565  -0.64515  -0.61524
 Alpha  occ. eigenvalues --   -0.59118  -0.58209  -0.54939  -0.51933  -0.50162
 Alpha  occ. eigenvalues --   -0.49559  -0.44365  -0.43945  -0.42784
 Alpha virt. eigenvalues --    0.03436   0.03763   0.04221   0.04672   0.06071
 Alpha virt. eigenvalues --    0.06285   0.06498   0.07941   0.09062   0.09161
 Alpha virt. eigenvalues --    0.11426   0.12532   0.14282   0.15060   0.15100

 Mulliken charges:
               1
     1  C    0.114279
     2  O   -1.303649
     3  C    0.705160
     4  C    0.575245
     5  O   -1.419281
     6  C    0.793970
     7  O   -1.153558
     8  H   -0.025889
     9  H    0.166770
    10  H    0.180291
    11  H    0.187361
    12  H    0.119079
    13  H    0.116339
    14  H    0.357758
    15  H    0.124342
    16  H    0.109607
    17  H    0.352177
 Sum of Mulliken charges =  -0.00000

 Dipole moment (field-independent basis, Debye):
    X=              2.2478    Y=             -0.3531    Z=              0.7012  Tot=              2.3810

 Test job not archived.
 1\1\GINC-SE014\SP\RHF\Aug-CC-pVDZ\C4H10O3\OHZDE\09-Apr-2025\0\\#t hf a
 ug-cc-pvdz iop(5/13=1,5/36=2,99/5=2) pseudo=read geom=check guess=(rea
 d,tcheck) scf=(maxcycle=1)\\title\\0,1\C,0,2.64604314,0.49621932,-0.25
 529554\O,0,1.50917618,-0.02046322,0.38763135\C,0,0.39694705,-0.1476987
 9,-0.46950101\C,0,-0.78083115,-0.57792662,0.38387244\O,0,-0.95432355,0
 .32080022,1.46433826\C,0,-2.08809386,-0.58503527,-0.38938832\O,0,-2.44
 39606,0.70320801,-0.83438502\H,0,3.43496623,0.58307418,0.49037769\H,0,
 2.44653302,1.48671283,-0.68305064\H,0,2.98508377,-0.16939343,-1.058674

 Normal termination of Gaussian 16 at Wed Apr  9 19:13:13 2025.
