 Gaussian 16, Revision C.01,

 ----------------------------------------------------------------------
 #t hf aug-cc-pvdz symm=none int=(grid=ultrafine) guess=(read,tcheck) s
 table=(opt,rrhf)
 ----------------------------------------------------------------------
 -----
 title
 -----
 Symbolic Z-matrix:
 Charge =  0 Multiplicity = 1

 SCF Done:  E(RHF) =  -321.370206547     A.U. after   16 cycles
 Normal termination of Gaussian 16 at Wed Apr  9 03:40:45 2025.
 Gaussian 16:  ES64L-G16RevC.01  3-Jul-2019

 ----------------------------------------------------------------------
 #t hf aug-cc-pvdz iop(5/13=1,5/36=2,99/5=2) pseudo=read geom=check gue
 ss=(read,tcheck) scf=(maxcycle=1)
 ----------------------------------------------------------------------
 -----
 title
 -----
 Structure from the checkpoint file:  "Grambow2020_wb97xd3_007493_reverse_mol1.chk"
 Charge =  0 Multiplicity = 1

                         Standard orientation:
 ---------------------------------------------------------------------
 Center     Atomic      Atomic             Coordinates (Angstroms)
 Number     Number       Type             X           Y           Z
 ---------------------------------------------------------------------
      1          8           0        0.203261    1.624653    0.228919
      2          6           0        0.392095    0.466855   -0.091979
      3          6           0        1.717820   -0.134399   -0.040377
      4          6           0        2.797002   -0.649664    0.021650
      5          6           0       -0.646475   -0.440094   -0.592745
      6          6           0       -1.523339   -1.076606    0.397235
      7          7           0       -2.141204    0.143794   -0.123647
      8          1           0        3.761742   -1.098229    0.074059
      9          1           0       -1.636567    0.105309   -1.224485
     10          1           0       -1.234269   -0.985574    1.439964
     11          1           0       -2.051148   -1.994034    0.160757
     12          1           0       -1.900034    0.972196    0.421169
 ---------------------------------------------------------------------

 SCF Done:  E(RHF) =  -321.698144890     A.U. after    2 cycles

 The electronic state is 1-A.
 Alpha  occ. eigenvalues --  -20.55448 -15.57054 -11.37554 -11.30760 -11.27676
 Alpha  occ. eigenvalues --  -11.27487 -11.26412  -1.49117  -1.30746  -1.07654
 Alpha  occ. eigenvalues --   -0.99122  -0.93522  -0.85300  -0.79457  -0.73940
 Alpha  occ. eigenvalues --   -0.68200  -0.67501  -0.62440  -0.58829  -0.56537
 Alpha  occ. eigenvalues --   -0.49326  -0.45910  -0.43268  -0.43083  -0.37888
 Alpha virt. eigenvalues --    0.03169   0.03615   0.04848   0.05050   0.06791
 Alpha virt. eigenvalues --    0.06850   0.08377   0.08900   0.10527   0.10725
 Alpha virt. eigenvalues --    0.10988   0.11953   0.13757   0.14242   0.14784

 Mulliken charges:
               1
     1  O   -1.406621
     2  C    1.362384
     3  C    0.260781
     4  C    0.350279
     5  C   -0.877233
     6  C   -0.138593
     7  N    0.208233
     8  H   -0.346367
     9  H    0.466624
    10  H   -0.008778
    11  H   -0.069067
    12  H    0.198357
 Sum of Mulliken charges =  -0.00000

 Dipole moment (field-independent basis, Debye):
    X=              0.4584    Y=             -2.4320    Z=              1.1132  Tot=              2.7137

 Test job not archived.
 1\1\GINC-SE207\SP\RHF\Aug-CC-pVDZ\C5H5N1O1\OHZDE\09-Apr-2025\0\\#t hf
 aug-cc-pvdz iop(5/13=1,5/36=2,99/5=2) pseudo=read geom=check guess=(re
 ad,tcheck) scf=(maxcycle=1)\\title\\0,1\O,0,0.33272178,-0.06505318,1.9
 0076224\C,0,0.55564702,0.21486465,0.73840312\C,0,1.88533069,0.07640829
 ,0.16005417\C,0,2.96703107,-0.05695991,-0.3360468\C,0,-0.44085099,0.74
 683484,-0.19752013\C,0,-1.36056255,-0.21089821,-0.8228014\N,0,-1.96720
 135,0.37414853,0.37392815\H,0,3.93400917,-0.17283474,-0.7675635\H,0,-1
 .40320778,1.44489918,0.31572229\H,0,-1.1297252,-1.26491661,-0.70077267

 Normal termination of Gaussian 16 at Wed Apr  9 03:40:50 2025.
