 Gaussian 16, Revision C.01,

 ----------------------------------------------------------------------
 #t hf aug-cc-pvdz symm=none int=(grid=ultrafine) guess=(read,tcheck) s
 table=(opt,rrhf)
 ----------------------------------------------------------------------
 -----
 title
 -----
 Symbolic Z-matrix:
 Charge =  0 Multiplicity = 1

 SCF Done:  E(RHF) =  -168.783951477     A.U. after   14 cycles
 Normal termination of Gaussian 16 at Wed Apr  9 16:05:34 2025.
 Gaussian 16:  ES64L-G16RevC.01  3-Jul-2019

 ----------------------------------------------------------------------
 #t hf aug-cc-pvdz iop(5/13=1,5/36=2,99/5=2) pseudo=read geom=check gue
 ss=(read,tcheck) scf=(maxcycle=1)
 ----------------------------------------------------------------------
 -----
 title
 -----
 Structure from the checkpoint file:  "Grambow2020_b97d3_007119_reverse_mol2.chk"
 Charge =  0 Multiplicity = 1

                         Standard orientation:
 ---------------------------------------------------------------------
 Center     Atomic      Atomic             Coordinates (Angstroms)
 Number     Number       Type             X           Y           Z
 ---------------------------------------------------------------------
      1          7           0       -1.165386    0.111428   -0.121685
      2          6           0        1.156652    0.410014    0.038565
      3          8           0        0.214745   -0.474446   -0.027491
      4          1           0       -1.598036   -0.292894    0.721195
      5          1           0       -0.966179    1.102409    0.101142
      6          1           0        2.064041   -0.254023    0.017992
 ---------------------------------------------------------------------

 SCF Done:  E(RHF) =  -168.952030363     A.U. after    2 cycles

 The electronic state is 1-A.
 Alpha  occ. eigenvalues --  -20.65201 -15.58450 -11.31781  -1.55462  -1.15695
 Alpha  occ. eigenvalues --   -0.86433  -0.74862  -0.66237  -0.62753  -0.60704
 Alpha  occ. eigenvalues --   -0.49799  -0.38513
 Alpha virt. eigenvalues --    0.03416   0.05038   0.06327   0.07044   0.10361
 Alpha virt. eigenvalues --    0.12646   0.15040   0.16603   0.17648   0.17967
 Alpha virt. eigenvalues --    0.20568   0.22266   0.22728   0.24201   0.24836

 Mulliken charges:
               1
     1  N    0.393583
     2  C    0.060042
     3  O   -0.896257
     4  H    0.155484
     5  H    0.126328
     6  H    0.160820
 Sum of Mulliken charges =   0.00000

 Dipole moment (field-independent basis, Debye):
    X=             -0.4283    Y=             -0.4902    Z=              1.5451  Tot=              1.6766

 Test job not archived.
 1\1\GINC-SE168\SP\RHF\Aug-CC-pVDZ\C1H3N1O1\OHZDE\09-Apr-2025\0\\#t hf
 aug-cc-pvdz iop(5/13=1,5/36=2,99/5=2) pseudo=read geom=check guess=(re
 ad,tcheck) scf=(maxcycle=1)\\title\\0,1\N,0,0.9593258,0.57597072,-0.15
 615346\C,0,-0.87792956,-0.88372719,-0.13452703\O,0,-0.52606258,0.35874
 423,-0.21374777\H,0,1.02774403,1.1805873,0.67503065\H,0,1.27680288,-0.
 36328074,0.14115704\H,0,-1.98936658,-0.79231631,-0.27969843\\Version=E
 S64L-G16RevC.01\State=1-A\HF=-168.9520304\RMSD=9.323e-03\Dipole=-0.021
 7574,0.2770313,0.5982556\Quadrupole=2.0027466,-2.2643198,0.2615732,0.2

 Normal termination of Gaussian 16 at Wed Apr  9 16:05:36 2025.
