 Gaussian 16, Revision C.01,

 ----------------------------------------------------------------------
 #t hf aug-cc-pvdz symm=none int=(grid=ultrafine) guess=(read,tcheck) s
 table=(opt,rrhf)
 ----------------------------------------------------------------------
 -----
 title
 -----
 Symbolic Z-matrix:
 Charge =  0 Multiplicity = 1

 SCF Done:  E(RHF) =  -304.624428303     A.U. after   14 cycles
 Normal termination of Gaussian 16 at Wed Apr  9 03:16:26 2025.
 Gaussian 16:  ES64L-G16RevC.01  3-Jul-2019

 ----------------------------------------------------------------------
 #t hf aug-cc-pvdz iop(5/13=1,5/36=2,99/5=2) pseudo=read geom=check gue
 ss=(read,tcheck) scf=(maxcycle=1)
 ----------------------------------------------------------------------
 -----
 title
 -----
 Structure from the checkpoint file:  "Grambow2020_b97d3_007011_reverse_mol2.chk"
 Charge =  0 Multiplicity = 1

                         Standard orientation:
 ---------------------------------------------------------------------
 Center     Atomic      Atomic             Coordinates (Angstroms)
 Number     Number       Type             X           Y           Z
 ---------------------------------------------------------------------
      1          8           0       -1.243211    0.694376   -0.613660
      2          6           0        1.732083   -0.561345   -0.500718
      3          6           0        1.789531    0.621159    0.457651
      4          6           0        2.869189   -0.369071    0.096848
      5          6           0       -1.841275   -0.148568    0.267441
      6          8           0       -3.013133   -0.431397    0.216982
      7          1           0       -0.290627    0.763647   -0.382242
      8          1           0        1.117209   -1.123898   -1.193749
      9          1           0        1.852701    1.646594    0.068262
     10          1           0        1.312001    0.553896    1.444977
     11          1           0        3.899670   -0.650700    0.276589
     12          1           0       -1.137362   -0.546424    1.032253
 ---------------------------------------------------------------------

 SCF Done:  E(RHF) =  -304.933251800     A.U. after    2 cycles

 The electronic state is 1-A.
 Alpha  occ. eigenvalues --  -20.60574 -20.54570 -11.40304 -11.28834 -11.28623
 Alpha  occ. eigenvalues --  -11.28506  -1.53871  -1.45520  -1.19112  -0.86500
 Alpha  occ. eigenvalues --   -0.85971  -0.80512  -0.77794  -0.72107  -0.66291
 Alpha  occ. eigenvalues --   -0.63535  -0.61924  -0.58691  -0.53655  -0.47482
 Alpha  occ. eigenvalues --   -0.46498  -0.44963  -0.39675
 Alpha virt. eigenvalues --    0.02763   0.03550   0.04070   0.04169   0.06757
 Alpha virt. eigenvalues --    0.07428   0.09188   0.09666   0.10595   0.11685
 Alpha virt. eigenvalues --    0.12287   0.13170   0.14212   0.14679   0.15618

 Mulliken charges:
               1
     1  O   -1.232348
     2  C    0.302430
     3  C   -0.226058
     4  C    0.243321
     5  C    1.454050
     6  O   -1.045616
     7  H    0.747944
     8  H   -0.230346
     9  H    0.010498
    10  H   -0.008817
    11  H   -0.168607
    12  H    0.153548
 Sum of Mulliken charges =   0.00000

 Dipole moment (field-independent basis, Debye):
    X=              5.2885    Y=             -0.2337    Z=              0.8808  Tot=              5.3664

 Test job not archived.
 1\1\GINC-SE095\SP\RHF\Aug-CC-pVDZ\C4H6O2\OHZDE\09-Apr-2025\0\\#t hf au
 g-cc-pvdz iop(5/13=1,5/36=2,99/5=2) pseudo=read geom=check guess=(read
 ,tcheck) scf=(maxcycle=1)\\title\\0,1\O,0,-1.09225805,1.21257773,1.264
 1166\C,0,-0.2313755,-1.24298501,-0.6518842\C,0,0.3259853,-0.01034906,-
 1.3519169\C,0,0.41943161,-1.46140816,-1.75452007\C,0,-0.08142339,1.116
 25591,2.16606448\O,0,-0.19223299,1.45571488,3.3185739\H,0,-0.77387588,
 0.86880302,0.40027571\H,0,-0.79496057,-1.61342509,0.19662844\H,0,-0.34
 262428,0.65790463,-1.91185463\H,0,1.21908518,0.49198905,-0.95517999\H,

 Normal termination of Gaussian 16 at Wed Apr  9 03:16:30 2025.
