 Gaussian 16, Revision C.01,

 ----------------------------------------------------------------------
 #t hf aug-cc-pvdz symm=none int=(grid=ultrafine) guess=(read,tcheck) s
 table=(opt,rrhf)
 ----------------------------------------------------------------------
 -----
 title
 -----
 Symbolic Z-matrix:
 Charge =  0 Multiplicity = 1

 SCF Done:  E(RHF) =  -304.546309369     A.U. after   15 cycles
 Normal termination of Gaussian 16 at Wed Apr  9 16:23:51 2025.
 Gaussian 16:  ES64L-G16RevC.01  3-Jul-2019

 ----------------------------------------------------------------------
 #t hf aug-cc-pvdz iop(5/13=1,5/36=2,99/5=2) pseudo=read geom=check gue
 ss=(read,tcheck) scf=(maxcycle=1)
 ----------------------------------------------------------------------
 -----
 title
 -----
 Structure from the checkpoint file:  "Grambow2020_wb97xd3_006104_reverse_mol1.chk"
 Charge =  0 Multiplicity = 1

                         Standard orientation:
 ---------------------------------------------------------------------
 Center     Atomic      Atomic             Coordinates (Angstroms)
 Number     Number       Type             X           Y           Z
 ---------------------------------------------------------------------
      1          6           0       -0.482858    1.212029    0.102942
      2          8           0       -1.318843    0.198638   -0.415590
      3          6           0       -0.868375   -1.052542    0.077280
      4          6           0        0.528728   -0.918326    0.582348
      5          8           0        1.401353   -0.079900   -0.694882
      6          6           0        0.810652    0.526694    0.463352
      7          1           0       -0.367420    1.987195   -0.656323
      8          1           0       -0.910359    1.663229    1.009332
      9          1           0       -1.456849   -1.373417    0.952927
     10          1           0       -0.987972   -1.804249   -0.703443
     11          1           0        1.624146   -1.079102   -0.185019
     12          1           0        1.509484    1.049305    1.110769
 ---------------------------------------------------------------------

 SCF Done:  E(RHF) =  -304.856486676     A.U. after    2 cycles

 The electronic state is 1-A.
 Alpha  occ. eigenvalues --  -20.60262 -20.55275 -11.31096 -11.29809 -11.29698
 Alpha  occ. eigenvalues --  -11.28707  -1.51254  -1.46721  -1.04173  -1.02155
 Alpha  occ. eigenvalues --   -0.84490  -0.82184  -0.73965  -0.68776  -0.65889
 Alpha  occ. eigenvalues --   -0.62040  -0.57541  -0.56546  -0.54889  -0.48564
 Alpha  occ. eigenvalues --   -0.47995  -0.42675  -0.39039
 Alpha virt. eigenvalues --    0.03430   0.04282   0.04617   0.04840   0.06415
 Alpha virt. eigenvalues --    0.06585   0.08309   0.10549   0.11117   0.13076
 Alpha virt. eigenvalues --    0.13901   0.14331   0.14740   0.14908   0.15479

 Mulliken charges:
               1
     1  C    0.700343
     2  O   -1.293812
     3  C    0.676917
     4  C   -0.972116
     5  O   -1.347177
     6  C    0.947172
     7  H    0.102401
     8  H    0.152853
     9  H    0.213441
    10  H    0.107195
    11  H    0.661512
    12  H    0.051271
 Sum of Mulliken charges =  -0.00000

 Dipole moment (field-independent basis, Debye):
    X=              0.1689    Y=              0.7246    Z=              1.2873  Tot=              1.4869

 Test job not archived.
 1\1\GINC-SE041\SP\RHF\Aug-CC-pVDZ\C4H6O2\OHZDE\09-Apr-2025\0\\#t hf au
 g-cc-pvdz iop(5/13=1,5/36=2,99/5=2) pseudo=read geom=check guess=(read
 ,tcheck) scf=(maxcycle=1)\\title\\0,1\C,0,-1.24936562,-0.22605669,0.03
 702056\O,0,-0.8422484,1.08093709,-0.31043957\C,0,0.52371106,1.0410654,
 -0.68972726\C,0,1.14679221,-0.21726573,-0.18636137\O,0,0.67226171,-0.3
 2139702,1.50471162\C,0,0.01485474,-0.96180269,0.40194786\H,0,-1.965467
 55,-0.158494,0.85758448\H,0,-1.72672847,-0.73852972,-0.80996049\H,0,0.
 63373247,0.9931727,-1.78591208\H,0,1.01453724,1.95002822,-0.34076979\H

 Normal termination of Gaussian 16 at Wed Apr  9 16:23:56 2025.
