 Gaussian 16, Revision C.01,

 ----------------------------------------------------------------------
 #t hf aug-cc-pvdz symm=none int=(grid=ultrafine) guess=(read,tcheck) s
 table=(opt,rrhf)
 ----------------------------------------------------------------------
 -----
 title
 -----
 Symbolic Z-matrix:
 Charge =  0 Multiplicity = 1

 SCF Done:  E(RHF) =  -231.680213438     A.U. after   14 cycles
 Normal termination of Gaussian 16 at Wed Apr  9 15:51:54 2025.
 Gaussian 16:  ES64L-G16RevC.01  3-Jul-2019

 ----------------------------------------------------------------------
 #t hf aug-cc-pvdz iop(5/13=1,5/36=2,99/5=2) pseudo=read geom=check gue
 ss=(read,tcheck) scf=(maxcycle=1)
 ----------------------------------------------------------------------
 -----
 title
 -----
 Structure from the checkpoint file:  "Grambow2020_b97d3_006875_reverse_mol1.chk"
 Charge =  0 Multiplicity = 1

                         Standard orientation:
 ---------------------------------------------------------------------
 Center     Atomic      Atomic             Coordinates (Angstroms)
 Number     Number       Type             X           Y           Z
 ---------------------------------------------------------------------
      1          6           0        1.097864   -0.778358   -0.376837
      2          6           0        0.771866    0.728032   -0.456637
      3          6           0       -0.738567    0.964527   -0.628174
      4          6           0       -1.289784   -0.480803   -0.269834
      5          6           0       -0.096328   -0.849433    0.616500
      6          6           0        0.177873    0.660185    0.942993
      7          1           0        2.061655   -0.960434    0.115494
      8          1           0        1.026313   -1.376241   -1.297525
      9          1           0        1.470465    1.503668   -0.771889
     10          1           0       -0.868808    1.378791    0.687222
     11          1           0       -2.236433   -0.411964    0.282740
     12          1           0       -1.432341   -1.112282   -1.157545
     13          1           0       -0.164569   -1.651857    1.360394
     14          1           0        0.606165    1.165422    1.813041
 ---------------------------------------------------------------------

 SCF Done:  E(RHF) =  -231.927174438     A.U. after    2 cycles

 The electronic state is 1-A.
 Alpha  occ. eigenvalues --  -11.28438 -11.25835 -11.25741 -11.24792 -11.24410
 Alpha  occ. eigenvalues --  -11.23778  -1.23096  -0.97323  -0.96818  -0.88015
 Alpha  occ. eigenvalues --   -0.75646  -0.74054  -0.68997  -0.62786  -0.59491
 Alpha  occ. eigenvalues --   -0.55222  -0.52219  -0.48715  -0.47117  -0.46878
 Alpha  occ. eigenvalues --   -0.43175  -0.33056
 Alpha virt. eigenvalues --    0.02977   0.03477   0.03709   0.04549   0.05894
 Alpha virt. eigenvalues --    0.06297   0.06628   0.08145   0.10160   0.11673
 Alpha virt. eigenvalues --    0.12226   0.12593   0.13055   0.13868   0.14957

 Mulliken charges:
               1
     1  C   -0.048259
     2  C    0.408164
     3  C   -0.550245
     4  C   -0.118236
     5  C    0.325600
     6  C   -0.319483
     7  H    0.003806
     8  H    0.023062
     9  H   -0.152666
    10  H    0.607694
    11  H    0.052732
    12  H    0.068278
    13  H   -0.106676
    14  H   -0.193770
 Sum of Mulliken charges =   0.00000

 Dipole moment (field-independent basis, Debye):
    X=              1.4303    Y=             -1.5673    Z=              1.8803  Tot=              2.8351

 Test job not archived.
 1\1\GINC-SE042\SP\RHF\Aug-CC-pVDZ\C6H8\OHZDE\09-Apr-2025\0\\#t hf aug-
 cc-pvdz iop(5/13=1,5/36=2,99/5=2) pseudo=read geom=check guess=(read,t
 check) scf=(maxcycle=1)\\title\\0,1\C,0,-1.1470544,-0.2243841,0.670462
 13\C,0,-0.33589276,1.07304546,0.46909436\C,0,1.17390348,0.7841647,0.40
 724613\C,0,1.14881849,-0.79172437,0.21445255\C,0,-0.234295,-0.81144322
 ,-0.44313474\C,0,-0.0499251,0.65585358,-0.9663734\H,0,-2.18721208,-0.1
 0921749,0.33994387\H,0,-1.11693724,-0.7096173,1.6573207\H,0,-0.6750256
 3,2.07219641,0.74426893\H,0,1.2022509,0.98660675,-0.9628116\H,0,1.9542

 Normal termination of Gaussian 16 at Wed Apr  9 15:51:58 2025.
