 Gaussian 16, Revision C.01,

 ----------------------------------------------------------------------
 #t hf aug-cc-pvdz symm=none int=(grid=ultrafine) guess=(read,tcheck) s
 table=(opt,rrhf)
 ----------------------------------------------------------------------
 -----
 title
 -----
 Symbolic Z-matrix:
 Charge =  0 Multiplicity = 1

 SCF Done:  E(RHF) =  -269.897076398     A.U. after   14 cycles

 1\1\GINC-SE220\Stability\RHF\Aug-CC-pVDZ\C5H10O1\OHZDE\09-Apr-2025\0\\
 #t hf aug-cc-pvdz symm=none int=(grid=ultrafine) guess=(read,tcheck) s
 table=(opt,rrhf)\\title\\0,1\C,0,-2.28668225,0.09331485,0.05272936\C,0
 ,-1.19637648,-0.55100167,-0.78695167\O,0,-0.25421829,0.4818288,-1.1863
 4676\C,0,0.5605559,-0.09179851,-0.17096135\C,0,1.78658582,-0.75202614,
 -0.7813526\C,0,0.77837838,0.792146,1.04017687\H,0,-3.01151766,0.421270
 86,-0.71539383\H,0,-2.02073586,0.99006101,0.63535608\H,0,-2.80024089,-
 0.64718045,0.68031145\H,0,-0.15785025,-1.04715633,0.10295041\H,0,1.467

 Normal termination of Gaussian 16 at Wed Apr  9 15:59:01 2025.
 Gaussian 16:  ES64L-G16RevC.01  3-Jul-2019

 ----------------------------------------------------------------------
 #t hf aug-cc-pvdz iop(5/13=1,5/36=2,99/5=2) pseudo=read geom=check gue
 ss=(read,tcheck) scf=(maxcycle=1)
 ----------------------------------------------------------------------
 -----
 title
 -----
 Structure from the checkpoint file:  "Grambow2020_b97d3_007063_reverse_mol1.chk"
 Charge =  0 Multiplicity = 1

                         Standard orientation:
 ---------------------------------------------------------------------
 Center     Atomic      Atomic             Coordinates (Angstroms)
 Number     Number       Type             X           Y           Z
 ---------------------------------------------------------------------
      1          6           0        2.221302    0.138552   -0.222249
      2          6           0        1.056961   -0.836427   -0.274211
      3          8           0        0.198583   -0.587478    0.872580
      4          6           0       -0.636128    0.044919   -0.090356
      5          6           0       -1.930953   -0.732488   -0.265554
      6          6           0       -0.743637    1.549152    0.055882
      7          1           0        2.951489   -0.401316    0.408881
      8          1           0        2.050367    1.113904    0.261284
      9          1           0        2.684498    0.263480   -1.210064
     10          1           0        0.002897   -0.256871   -1.092560
     11          1           0       -1.696719   -1.773849   -0.518542
     12          1           0       -2.476664   -0.721358    0.688617
     13          1           0       -2.565896   -0.296838   -1.048269
     14          1           0       -1.340106    1.972567   -0.764024
     15          1           0        0.239540    2.032972    0.065961
     16          1           0       -1.243346    1.784895    1.007008
 ---------------------------------------------------------------------

 SCF Done:  E(RHF) =  -270.181965073     A.U. after    2 cycles

 The electronic state is 1-A.
 Alpha  occ. eigenvalues --  -20.55782 -11.33373 -11.31366 -11.24929 -11.24315
 Alpha  occ. eigenvalues --  -11.23688  -1.48272  -1.06391  -1.00892  -0.96121
 Alpha  occ. eigenvalues --   -0.84233  -0.77621  -0.65258  -0.64575  -0.62825
 Alpha  occ. eigenvalues --   -0.58600  -0.56791  -0.56446  -0.54928  -0.54229
 Alpha  occ. eigenvalues --   -0.52714  -0.48274  -0.46037  -0.33552
 Alpha virt. eigenvalues --    0.03359   0.03959   0.04091   0.04671   0.06044
 Alpha virt. eigenvalues --    0.06447   0.06952   0.07265   0.08263   0.09692
 Alpha virt. eigenvalues --    0.11328   0.12738   0.13545   0.13664   0.14330

 Mulliken charges:
               1
     1  C   -0.427317
     2  C   -0.342336
     3  O   -1.361063
     4  C   -0.129429
     5  C   -0.186239
     6  C   -0.361659
     7  H    0.239076
     8  H    0.120791
     9  H    0.219644
    10  H    0.902875
    11  H    0.190358
    12  H    0.262918
    13  H    0.224901
    14  H    0.247598
    15  H    0.119394
    16  H    0.280486
 Sum of Mulliken charges =   0.00000

 Dipole moment (field-independent basis, Debye):
    X=             -0.9955    Y=              2.4915    Z=             -0.8111  Tot=              2.8029

 Test job not archived.
 1\1\GINC-SE220\SP\RHF\Aug-CC-pVDZ\C5H10O1\OHZDE\09-Apr-2025\0\\#t hf a
 ug-cc-pvdz iop(5/13=1,5/36=2,99/5=2) pseudo=read geom=check guess=(rea
 d,tcheck) scf=(maxcycle=1)\\title\\0,1\C,0,-2.28668225,0.09331485,0.05
 272936\C,0,-1.19637648,-0.55100167,-0.78695167\O,0,-0.25421829,0.48182
 88,-1.18634676\C,0,0.5605559,-0.09179851,-0.17096135\C,0,1.78658582,-0
 .75202614,-0.7813526\C,0,0.77837838,0.792146,1.04017687\H,0,-3.0115176
 6,0.42127086,-0.71539383\H,0,-2.02073586,0.99006101,0.63535608\H,0,-2.
 80024089,-0.64718045,0.68031145\H,0,-0.15785025,-1.04715633,0.10295041

 Normal termination of Gaussian 16 at Wed Apr  9 15:59:06 2025.
