 Gaussian 16, Revision C.01,

 ----------------------------------------------------------------------
 #t hf aug-cc-pvdz symm=none int=(grid=ultrafine) guess=(read,tcheck) s
 table=(opt,rrhf)
 ----------------------------------------------------------------------
 -----
 title
 -----
 Symbolic Z-matrix:
 Charge =  0 Multiplicity = 1

 SCF Done:  E(RHF) =  -279.745077344     A.U. after   17 cycles
 Normal termination of Gaussian 16 at Wed Apr  9 15:56:40 2025.
 Gaussian 16:  ES64L-G16RevC.01  3-Jul-2019

 ----------------------------------------------------------------------
 #t hf aug-cc-pvdz iop(5/13=1,5/36=2,99/5=2) pseudo=read geom=check gue
 ss=(read,tcheck) scf=(maxcycle=1)
 ----------------------------------------------------------------------
 -----
 title
 -----
 Structure from the checkpoint file:  "Grambow2020_b97d3_007047_forward_mol1.chk"
 Charge =  0 Multiplicity = 1

                         Standard orientation:
 ---------------------------------------------------------------------
 Center     Atomic      Atomic             Coordinates (Angstroms)
 Number     Number       Type             X           Y           Z
 ---------------------------------------------------------------------
      1          7           0        2.124300   -0.320925   -0.078575
      2          6           0        0.786331    0.094098   -0.005016
      3          6           0       -0.196546   -0.995780   -0.006827
      4          6           0       -1.453750   -0.479128   -0.003081
      5          7           0       -2.285924    0.453393    0.001414
      6          7           0        0.370623    1.320022    0.007867
      7          1           0        2.310454   -1.242616    0.309434
      8          1           0        2.790117    0.368070    0.262101
      9          1           0        0.041612   -2.049240   -0.068473
     10          1           0       -2.543242   -0.973045    0.099388
     11          1           0        1.121852    2.014270   -0.027844
 ---------------------------------------------------------------------

 SCF Done:  E(RHF) =  -280.024120237     A.U. after    2 cycles

 The electronic state is 1-A.
 Alpha  occ. eigenvalues --  -15.60763 -15.52196 -15.45542 -11.35641 -11.32884
 Alpha  occ. eigenvalues --  -11.23965  -1.29798  -1.24937  -1.14015  -1.03305
 Alpha  occ. eigenvalues --   -0.83807  -0.74987  -0.74154  -0.70772  -0.66640
 Alpha  occ. eigenvalues --   -0.63526  -0.60799  -0.57632  -0.56070  -0.46462
 Alpha  occ. eigenvalues --   -0.42518  -0.34081
 Alpha virt. eigenvalues --    0.01920   0.03282   0.04373   0.04900   0.06041
 Alpha virt. eigenvalues --    0.07431   0.10623   0.11110   0.11744   0.12198
 Alpha virt. eigenvalues --    0.12700   0.13355   0.14278   0.14521   0.15060

 Mulliken charges:
               1
     1  N    0.597784
     2  C   -1.895431
     3  C    0.969606
     4  C   -1.265303
     5  N    0.686549
     6  N    0.757565
     7  H    0.080519
     8  H    0.085781
     9  H   -0.235677
    10  H    0.209598
    11  H    0.009010
 Sum of Mulliken charges =  -0.00000

 Dipole moment (field-independent basis, Debye):
    X=              1.5386    Y=             -3.7998    Z=              1.0517  Tot=              4.2322

 Test job not archived.
 1\1\GINC-SE219\SP\RHF\Aug-CC-pVDZ\C3H5N3\OHZDE\09-Apr-2025\0\\#t hf au
 g-cc-pvdz iop(5/13=1,5/36=2,99/5=2) pseudo=read geom=check guess=(read
 ,tcheck) scf=(maxcycle=1)\\title\\0,1\N,0,-1.83973522,-0.16245273,0.18
 648452\C,0,-0.50894588,0.25730952,0.04290537\C,0,0.48570115,-0.8200925
 ,0.10427485\C,0,1.73651308,-0.29416894,0.0244014\N,0,2.55782277,0.6424
 1199,-0.0775568\N,0,-0.10741861,1.48194415,-0.07922423\H,0,-2.02601815
 ,-1.11385824,-0.12148221\H,0,-2.52214021,0.49109587,-0.18939364\H,0,0.
 2610438,-1.86733328,0.25630719\H,0,2.82827502,-0.7849326,-0.0686128\H,

 Normal termination of Gaussian 16 at Wed Apr  9 15:56:44 2025.
