 Gaussian 16, Revision C.01,

 ----------------------------------------------------------------------
 #t hf aug-cc-pvdz symm=none int=(grid=ultrafine) guess=(read,tcheck) s
 table=(opt,rrhf)
 ----------------------------------------------------------------------
 -----
 title
 -----
 Symbolic Z-matrix:
 Charge =  0 Multiplicity = 1

 SCF Done:  E(RHF) =  -343.541085905     A.U. after   17 cycles
 Normal termination of Gaussian 16 at Wed Apr  9 03:28:28 2025.
 Gaussian 16:  ES64L-G16RevC.01  3-Jul-2019

 ----------------------------------------------------------------------
 #t hf aug-cc-pvdz iop(5/13=1,5/36=2,99/5=2) pseudo=read geom=check gue
 ss=(read,tcheck) scf=(maxcycle=1)
 ----------------------------------------------------------------------
 -----
 title
 -----
 Structure from the checkpoint file:  "Grambow2020_wb97xd3_006681_forward_mol1.chk"
 Charge =  0 Multiplicity = 1

                         Standard orientation:
 ---------------------------------------------------------------------
 Center     Atomic      Atomic             Coordinates (Angstroms)
 Number     Number       Type             X           Y           Z
 ---------------------------------------------------------------------
      1          6           0       -0.932481   -0.486664    1.172856
      2          6           0       -0.725114    0.146586   -0.095439
      3          8           0       -1.524746   -0.238480   -1.020195
      4          6           0       -0.005363    1.508571   -0.115333
      5          6           0        1.400887    0.947490    0.157778
      6          6           0        0.954678   -0.481207   -0.030415
      7          8           0        1.430715   -1.508836   -0.326364
      8          1           0       -2.639081   -0.346405    0.837221
      9          1           0       -1.064136   -1.561005    1.167047
     10          1           0       -0.581899   -0.049418    2.106059
     11          1           0       -2.589441   -0.353112   -0.061724
     12          1           0       -0.097616    1.939618   -1.109122
     13          1           0       -0.373395    2.217778    0.626410
     14          1           0        2.202782    1.243103   -0.518484
     15          1           0        1.739401    1.079321    1.188381
 ---------------------------------------------------------------------

 SCF Done:  E(RHF) =  -343.892362399     A.U. after    2 cycles

 The electronic state is 1-A.
 Alpha  occ. eigenvalues --  -20.59160 -20.50997 -11.38823 -11.33088 -11.32186
 Alpha  occ. eigenvalues --  -11.28013 -11.26058  -1.53597  -1.43343  -1.15687
 Alpha  occ. eigenvalues --   -1.03198  -0.92299  -0.83593  -0.74650  -0.71372
 Alpha  occ. eigenvalues --   -0.69380  -0.67666  -0.66372  -0.62904  -0.58371
 Alpha  occ. eigenvalues --   -0.58000  -0.55194  -0.53442  -0.52553  -0.43791
 Alpha  occ. eigenvalues --   -0.39211  -0.35098
 Alpha virt. eigenvalues --    0.02289   0.03247   0.03838   0.04346   0.05096
 Alpha virt. eigenvalues --    0.06240   0.06517   0.07771   0.08278   0.09668
 Alpha virt. eigenvalues --    0.11083   0.12501   0.12710   0.13586   0.14270

 Mulliken charges:
               1
     1  C   -0.127533
     2  C    1.467836
     3  O   -1.692572
     4  C   -0.070750
     5  C   -0.200848
     6  C    1.148087
     7  O   -1.293576
     8  H    0.052677
     9  H    0.013729
    10  H   -0.009000
    11  H    0.152834
    12  H    0.139370
    13  H    0.102083
    14  H    0.093326
    15  H    0.224337
 Sum of Mulliken charges =  -0.00000

 Dipole moment (field-independent basis, Debye):
    X=              2.1663    Y=              2.6170    Z=              3.6724  Tot=              5.0028

 Test job not archived.
 1\1\GINC-SE186\SP\RHF\Aug-CC-pVDZ\C5H8O2\OHZDE\09-Apr-2025\0\\#t hf au
 g-cc-pvdz iop(5/13=1,5/36=2,99/5=2) pseudo=read geom=check guess=(read
 ,tcheck) scf=(maxcycle=1)\\title\\0,1\C,0,-1.20956268,-0.56022873,-0.4
 3361823\C,0,-0.38883052,0.53822793,-0.01844485\O,0,-0.87261413,1.69499
 46,-0.2843517\C,0,0.6391245,0.2906924,1.1020357\C,0,1.63382341,-0.4969
 7029,0.23191918\C,0,0.90581609,-0.16066909,-1.04581359\O,0,1.14902335,
 -0.07176507,-2.18737626\H,0,-2.56633341,0.39698428,0.10278039\H,0,-1.6
 2485619,-0.51011291,-1.43191438\H,0,-1.11355155,-1.55461839,-0.0012610

 Normal termination of Gaussian 16 at Wed Apr  9 03:28:34 2025.
