 Gaussian 16, Revision C.01,

 ----------------------------------------------------------------------
 #t hf aug-cc-pvdz symm=none int=(grid=ultrafine) guess=(read,tcheck) s
 table=(opt,rrhf)
 ----------------------------------------------------------------------
 -----
 title
 -----
 Symbolic Z-matrix:
 Charge =  0 Multiplicity = 1

 SCF Done:  E(RHF) =  -309.054654237     A.U. after   15 cycles

 1\1\GINC-SE162\Stability\RHF\Aug-CC-pVDZ\C6H12O1\OHZDE\09-Apr-2025\0\\
 #t hf aug-cc-pvdz symm=none int=(grid=ultrafine) guess=(read,tcheck) s
 table=(opt,rrhf)\\title\\0,1\C,0,3.27078701,0.81563952,0.01064774\C,0,
 0.12462411,-1.20036545,0.88681139\O,0,0.90248328,-1.3917853,1.78479772
 \C,0,-0.25064612,0.13398535,0.38795327\C,0,-0.55356802,0.29100067,-1.0
 8837462\C,0,-1.65804802,0.41798722,-0.1064863\C,0,-2.7726443,-0.595139
 83,-0.03210489\H,0,2.79080244,0.44220576,-0.89339288\H,0,4.35184869,0.
 73871711,-0.09689668\H,0,2.99770935,1.85950471,0.16274427\H,0,-0.34814

 Normal termination of Gaussian 16 at Wed Apr  9 18:27:44 2025.
 Gaussian 16:  ES64L-G16RevC.01  3-Jul-2019

 ----------------------------------------------------------------------
 #t hf aug-cc-pvdz iop(5/13=1,5/36=2,99/5=2) pseudo=read geom=check gue
 ss=(read,tcheck) scf=(maxcycle=1)
 ----------------------------------------------------------------------
 -----
 title
 -----
 Structure from the checkpoint file:  "Grambow2020_wb97xd3_007578_reverse_mol2.chk"
 Charge =  0 Multiplicity = 1

                         Standard orientation:
 ---------------------------------------------------------------------
 Center     Atomic      Atomic             Coordinates (Angstroms)
 Number     Number       Type             X           Y           Z
 ---------------------------------------------------------------------
      1          6           0        3.384115   -0.780477   -0.015058
      2          6           0        0.101884    1.187975    0.272060
      3          8           0        0.931050    1.977168   -0.099080
      4          6           0       -0.143250   -0.116337   -0.367359
      5          6           0       -0.563806   -1.279096    0.508474
      6          6           0       -1.542861   -0.700430   -0.443736
      7          6           0       -2.767158    0.041034    0.031248
      8          1           0        2.775017   -1.167914    0.801042
      9          1           0        4.430650   -0.776389    0.286479
     10          1           0        3.264737   -1.416592   -0.891679
     11          1           0       -0.526213    1.417968    1.158264
     12          1           0        3.067269    0.234051   -0.252288
     13          1           0        0.522107   -0.325840   -1.194938
     14          1           0       -0.708272   -1.067724    1.562046
     15          1           0       -0.108855   -2.237474    0.299115
     16          1           0       -1.700204   -1.271539   -1.351994
     17          1           0       -2.605118    0.533142    0.990874
     18          1           0       -3.597047   -0.656188    0.160762
     19          1           0       -3.076012    0.801143   -0.688813
 ---------------------------------------------------------------------

 SCF Done:  E(RHF) =  -309.386085741     A.U. after    2 cycles

 The electronic state is 1-A.
 Alpha  occ. eigenvalues --  -20.53794 -11.33768 -11.26331 -11.25552 -11.25118
 Alpha  occ. eigenvalues --  -11.24397 -11.21123  -1.47271  -1.18134  -0.99228
 Alpha  occ. eigenvalues --   -0.93890  -0.91876  -0.82567  -0.77383  -0.70244
 Alpha  occ. eigenvalues --   -0.67078  -0.63328  -0.59308  -0.57658  -0.56841
 Alpha  occ. eigenvalues --   -0.54886  -0.54356  -0.54293  -0.53134  -0.52738
 Alpha  occ. eigenvalues --   -0.45376  -0.42555  -0.40857
 Alpha virt. eigenvalues --    0.02981   0.03302   0.03522   0.04385   0.05272
 Alpha virt. eigenvalues --    0.05983   0.06168   0.06774   0.07760   0.08364
 Alpha virt. eigenvalues --    0.09018   0.10144   0.11629   0.12893   0.13235

 Mulliken charges:
               1
     1  C   -0.281235
     2  C    0.757395
     3  O   -1.172605
     4  C    0.435627
     5  C    0.218088
     6  C    0.484924
     7  C   -0.646914
     8  H    0.100807
     9  H    0.026538
    10  H    0.081787
    11  H    0.080972
    12  H    0.065390
    13  H   -0.243819
    14  H   -0.092486
    15  H   -0.166604
    16  H   -0.186423
    17  H    0.142757
    18  H    0.177872
    19  H    0.217929
 Sum of Mulliken charges =  -0.00000

 Dipole moment (field-independent basis, Debye):
    X=             -2.5322    Y=             -2.5963    Z=              0.5235  Tot=              3.6643

 Test job not archived.
 1\1\GINC-SE162\SP\RHF\Aug-CC-pVDZ\C6H12O1\OHZDE\09-Apr-2025\0\\#t hf a
 ug-cc-pvdz iop(5/13=1,5/36=2,99/5=2) pseudo=read geom=check guess=(rea
 d,tcheck) scf=(maxcycle=1)\\title\\0,1\C,0,3.27078701,0.81563952,0.010
 64774\C,0,0.12462411,-1.20036545,0.88681139\O,0,0.90248328,-1.3917853,
 1.78479772\C,0,-0.25064612,0.13398535,0.38795327\C,0,-0.55356802,0.291
 00067,-1.08837462\C,0,-1.65804802,0.41798722,-0.1064863\C,0,-2.7726443
 ,-0.59513983,-0.03210489\H,0,2.79080244,0.44220576,-0.89339288\H,0,4.3
 5184869,0.73871711,-0.09689668\H,0,2.99770935,1.85950471,0.16274427\H,

 Normal termination of Gaussian 16 at Wed Apr  9 18:27:51 2025.
