 Gaussian 16, Revision C.01,

 ----------------------------------------------------------------------
 #t hf aug-cc-pvdz symm=none int=(grid=ultrafine) guess=(read,tcheck) s
 table=(opt,rrhf)
 ----------------------------------------------------------------------
 -----
 title
 -----
 Symbolic Z-matrix:
 Charge =  0 Multiplicity = 1

 SCF Done:  E(RHF) =  -306.661689641     A.U. after   14 cycles
 Normal termination of Gaussian 16 at Wed Apr  9 04:05:48 2025.
 Gaussian 16:  ES64L-G16RevC.01  3-Jul-2019

 ----------------------------------------------------------------------
 #t hf aug-cc-pvdz iop(5/13=1,5/36=2,99/5=2) pseudo=read geom=check gue
 ss=(read,tcheck) scf=(maxcycle=1)
 ----------------------------------------------------------------------
 -----
 title
 -----
 Structure from the checkpoint file:  "Grambow2020_wb97xd3_009206_forward_mol2.chk"
 Charge =  0 Multiplicity = 1

                         Standard orientation:
 ---------------------------------------------------------------------
 Center     Atomic      Atomic             Coordinates (Angstroms)
 Number     Number       Type             X           Y           Z
 ---------------------------------------------------------------------
      1          6           0        3.485871    0.433818    0.075518
      2          6           0        2.118410   -0.061797   -0.031495
      3          6           0        0.997269   -0.475534   -0.124059
      4          6           0       -0.381227   -0.953259   -0.217185
      5          6           0       -1.349073   -0.010555    0.458966
      6          6           0       -2.074304    1.006800   -0.289859
      7          8           0       -2.715221   -0.186972    0.139315
      8          1           0        4.181414   -0.236607   -0.431531
      9          1           0        3.576958    1.422467   -0.376951
     10          1           0        3.789690    0.509850    1.120700
     11          1           0       -0.461684   -1.940145    0.247473
     12          1           0       -0.672383   -1.070943   -1.264045
     13          1           0       -1.152752    0.171473    1.513723
     14          1           0       -2.403341    1.914407    0.206958
     15          1           0       -1.917808    1.088429   -1.362174
 ---------------------------------------------------------------------

 SCF Done:  E(RHF) =  -306.982567292     A.U. after    2 cycles

 The electronic state is 1-A.
 Alpha  occ. eigenvalues --  -20.55922 -11.29876 -11.29112 -11.26403 -11.25907
 Alpha  occ. eigenvalues --  -11.23494 -11.22961  -1.50303  -1.08546  -1.03376
 Alpha  occ. eigenvalues --   -0.95278  -0.92181  -0.83496  -0.72250  -0.67490
 Alpha  occ. eigenvalues --   -0.65744  -0.62592  -0.60424  -0.59666  -0.58820
 Alpha  occ. eigenvalues --   -0.55141  -0.53828  -0.45016  -0.44474  -0.38297
 Alpha  occ. eigenvalues --   -0.38165
 Alpha virt. eigenvalues --    0.03147   0.03953   0.04101   0.04336   0.05758
 Alpha virt. eigenvalues --    0.06155   0.06765   0.07430   0.08170   0.11317
 Alpha virt. eigenvalues --    0.12588   0.12754   0.13435   0.14354   0.14751

 Mulliken charges:
               1
     1  C   -0.901229
     2  C   -0.323694
     3  C    0.592812
     4  C   -0.850438
     5  C    1.139296
     6  C    0.311492
     7  O   -1.258813
     8  H    0.262181
     9  H    0.266798
    10  H    0.269435
    11  H    0.331246
    12  H    0.256674
    13  H   -0.090207
    14  H    0.010550
    15  H   -0.016104
 Sum of Mulliken charges =  -0.00000

 Dipole moment (field-independent basis, Debye):
    X=              1.9699    Y=              1.1200    Z=             -0.0926  Tot=              2.2679

 Test job not archived.
 1\1\GINC-SE174\SP\RHF\Aug-CC-pVDZ\C6H8O1\OHZDE\09-Apr-2025\0\\#t hf au
 g-cc-pvdz iop(5/13=1,5/36=2,99/5=2) pseudo=read geom=check guess=(read
 ,tcheck) scf=(maxcycle=1)\\title\\0,1\C,0,2.62292622,-1.06807897,-1.55
 497438\C,0,1.6269078,-0.2948449,-0.82210751\C,0,0.81444406,0.34460269,
 -0.21571492\C,0,-0.20202385,1.10794327,0.50626209\C,0,-1.60018462,0.66
 82632,0.1396179\C,0,-2.33175555,-0.3016388,0.9432371\O,0,-2.63227475,1
 .08583799,1.01144394\H,0,3.63241721,-0.76456445,-1.27362789\H,0,2.5183
 2339,-2.13369925,-1.34530257\H,0,2.51250399,-0.9215867,-2.63053857\H,0

 Normal termination of Gaussian 16 at Wed Apr  9 04:05:52 2025.
