 Gaussian 16, Revision C.01,

 ----------------------------------------------------------------------
 #t hf aug-cc-pvdz symm=none int=(grid=ultrafine) guess=(read,tcheck) s
 table=(opt,rrhf)
 ----------------------------------------------------------------------
 -----
 title
 -----
 Symbolic Z-matrix:
 Charge =  0 Multiplicity = 1

 SCF Done:  E(RHF) =  -307.666434083     A.U. after   15 cycles

 1\1\GINC-SE403\Stability\RHF\Aug-CC-pVDZ\C6H10O1\OHZDE\09-Apr-2025\0\\
 #t hf aug-cc-pvdz symm=none int=(grid=ultrafine) guess=(read,tcheck) s
 table=(opt,rrhf)\\title\\0,1\C,0,1.8644261,-0.3748202,0.21267947\C,0,0
 .49367354,0.08862001,0.6294734\C,0,-0.05833349,1.41710814,-0.60714806\
 C,0,-1.62890167,1.3017858,-0.59112792\C,0,-1.88711148,0.12090069,0.007
 8683\C,0,-0.71552035,-0.80637623,0.42165557\O,0,-0.44553735,-1.7488825
 ,-0.61168218\H,0,1.84528528,-0.79792225,-0.78946153\H,0,2.58528962,0.4
 4231858,0.25058028\H,0,2.20546864,-1.15467514,0.89803758\H,0,0.5032624

 Normal termination of Gaussian 16 at Wed Apr  9 03:45:45 2025.
 Gaussian 16:  ES64L-G16RevC.01  3-Jul-2019

 ----------------------------------------------------------------------
 #t hf aug-cc-pvdz iop(5/13=1,5/36=2,99/5=2) pseudo=read geom=check gue
 ss=(read,tcheck) scf=(maxcycle=1)
 ----------------------------------------------------------------------
 -----
 title
 -----
 Structure from the checkpoint file:  "Grambow2020_wb97xd3_007815_reverse_mol1.chk"
 Charge =  0 Multiplicity = 1

                         Standard orientation:
 ---------------------------------------------------------------------
 Center     Atomic      Atomic             Coordinates (Angstroms)
 Number     Number       Type             X           Y           Z
 ---------------------------------------------------------------------
      1          6           0       -2.111951   -0.352050   -0.051331
      2          6           0       -0.752016   -0.353933    0.595221
      3          6           0        0.369909   -1.477877   -0.442498
      4          6           0        1.807104   -0.878785   -0.206278
      5          6           0        1.594278    0.339767    0.332048
      6          6           0        0.145838    0.867065    0.498381
      7          8           0       -0.225576    1.649878   -0.632217
      8          1           0       -2.059483    0.028290   -1.069298
      9          1           0       -2.547270   -1.351682   -0.056760
     10          1           0       -2.779923    0.301324    0.515340
     11          1           0       -0.807221   -0.704008    1.631667
     12          1           0       -0.003435   -1.051504   -1.363648
     13          1           0        0.182216   -2.542830   -0.346962
     14          1           0        0.498759   -1.100731    0.624664
     15          1           0        2.392369    1.052270    0.519082
     16          1           0        0.041882    1.485996    1.394666
     17          1           0        0.567740    1.818732   -1.144276
 ---------------------------------------------------------------------

 SCF Done:  E(RHF) =  -307.990451680     A.U. after    2 cycles

 The electronic state is 1-A.
 Alpha  occ. eigenvalues --  -20.55485 -11.31395 -11.30544 -11.29167 -11.25993
 Alpha  occ. eigenvalues --  -11.21558 -11.20895  -1.46077  -1.17481  -1.04732
 Alpha  occ. eigenvalues --   -0.97450  -0.92079  -0.81395  -0.74171  -0.70572
 Alpha  occ. eigenvalues --   -0.69056  -0.64553  -0.62212  -0.60475  -0.58134
 Alpha  occ. eigenvalues --   -0.56266  -0.53975  -0.51471  -0.49761  -0.45102
 Alpha  occ. eigenvalues --   -0.34837  -0.30885
 Alpha virt. eigenvalues --    0.02489   0.03107   0.03685   0.04274   0.05737
 Alpha virt. eigenvalues --    0.06081   0.06567   0.07153   0.07445   0.09740
 Alpha virt. eigenvalues --    0.10656   0.11331   0.12599   0.13414   0.13852

 Mulliken charges:
               1
     1  C   -0.237880
     2  C   -1.142815
     3  C   -0.545068
     4  C   -0.810970
     5  C    0.401828
     6  C    1.108641
     7  O   -1.378283
     8  H    0.242672
     9  H    0.204578
    10  H    0.203466
    11  H   -0.022969
    12  H    0.186919
    13  H   -0.044253
    14  H    1.518744
    15  H   -0.141103
    16  H    0.107416
    17  H    0.349076
 Sum of Mulliken charges =  -0.00000

 Dipole moment (field-independent basis, Debye):
    X=             -4.3958    Y=             -0.1553    Z=              1.0103  Tot=              4.5131

 Test job not archived.
 1\1\GINC-SE403\SP\RHF\Aug-CC-pVDZ\C6H10O1\OHZDE\09-Apr-2025\0\\#t hf a
 ug-cc-pvdz iop(5/13=1,5/36=2,99/5=2) pseudo=read geom=check guess=(rea
 d,tcheck) scf=(maxcycle=1)\\title\\0,1\C,0,1.8644261,-0.3748202,0.2126
 7947\C,0,0.49367354,0.08862001,0.6294734\C,0,-0.05833349,1.41710814,-0
 .60714806\C,0,-1.62890167,1.3017858,-0.59112792\C,0,-1.88711148,0.1209
 0069,0.0078683\C,0,-0.71552035,-0.80637623,0.42165557\O,0,-0.44553735,
 -1.7488825,-0.61168218\H,0,1.84528528,-0.79792225,-0.78946153\H,0,2.58
 528962,0.44231858,0.25058028\H,0,2.20546864,-1.15467514,0.89803758\H,0

 Normal termination of Gaussian 16 at Wed Apr  9 03:45:51 2025.
