 Gaussian 16, Revision C.01,

 ----------------------------------------------------------------------
 #t hf aug-cc-pvdz symm=none int=(grid=ultrafine) guess=(read,tcheck) s
 table=(opt,rrhf)
 ----------------------------------------------------------------------
 -----
 title
 -----
 Symbolic Z-matrix:
 Charge =  0 Multiplicity = 1

 SCF Done:  E(RHF) =  -306.523082045     A.U. after   16 cycles
 Normal termination of Gaussian 16 at Wed Apr  9 03:51:44 2025.
 Gaussian 16:  ES64L-G16RevC.01  3-Jul-2019

 ----------------------------------------------------------------------
 #t hf aug-cc-pvdz iop(5/13=1,5/36=2,99/5=2) pseudo=read geom=check gue
 ss=(read,tcheck) scf=(maxcycle=1)
 ----------------------------------------------------------------------
 -----
 title
 -----
 Structure from the checkpoint file:  "Grambow2020_wb97xd3_008179_reverse_mol1.chk"
 Charge =  0 Multiplicity = 1

                         Standard orientation:
 ---------------------------------------------------------------------
 Center     Atomic      Atomic             Coordinates (Angstroms)
 Number     Number       Type             X           Y           Z
 ---------------------------------------------------------------------
      1          6           0       -1.657650    0.092054    0.206185
      2          6           0       -0.834102    0.010966   -1.055487
      3          8           0        0.417370    1.494267   -0.235663
      4          6           0        0.833661    0.486068    0.630630
      5          6           0        1.468237   -0.638522   -0.210759
      6          6           0        0.023561   -1.094337   -0.416221
      7          6           0       -0.409094   -0.442507    0.923827
      8          1           0       -2.134497    1.036669    0.458887
      9          1           0       -2.394615   -0.718580    0.196979
     10          1           0       -0.097216    1.087216   -1.201511
     11          1           0        1.373540    0.927056    1.468627
     12          1           0        2.056693   -0.318800   -1.070781
     13          1           0        2.018875   -1.363579    0.390549
     14          1           0       -0.250243   -2.110134   -0.699845
     15          1           0       -0.459180   -0.976319    1.873349
 ---------------------------------------------------------------------

 SCF Done:  E(RHF) =  -306.842290513     A.U. after    2 cycles

 The electronic state is 1-A.
 Alpha  occ. eigenvalues --  -20.53647 -11.29404 -11.29124 -11.25419 -11.24895
 Alpha  occ. eigenvalues --  -11.24841 -11.23738  -1.43568  -1.19364  -1.04017
 Alpha  occ. eigenvalues --   -0.92505  -0.85757  -0.79410  -0.76431  -0.68013
 Alpha  occ. eigenvalues --   -0.66468  -0.62967  -0.61918  -0.54696  -0.53487
 Alpha  occ. eigenvalues --   -0.52557  -0.50046  -0.46499  -0.43281  -0.41141
 Alpha  occ. eigenvalues --   -0.35550
 Alpha virt. eigenvalues --    0.02902   0.03523   0.03755   0.04769   0.05950
 Alpha virt. eigenvalues --    0.06179   0.06300   0.06655   0.07736   0.10989
 Alpha virt. eigenvalues --    0.12229   0.12513   0.13018   0.13935   0.14069

 Mulliken charges:
               1
     1  C    0.140223
     2  C   -0.589923
     3  O   -1.672335
     4  C    1.365498
     5  C    0.019559
     6  C    0.082194
     7  C    0.048234
     8  H   -0.025459
     9  H    0.173615
    10  H    0.711098
    11  H   -0.017268
    12  H    0.015565
    13  H    0.033888
    14  H   -0.114731
    15  H   -0.170159
 Sum of Mulliken charges =   0.00000

 Dipole moment (field-independent basis, Debye):
    X=             -0.4019    Y=             -2.6464    Z=              1.4158  Tot=              3.0281

 Test job not archived.
 1\1\GINC-SE173\SP\RHF\Aug-CC-pVDZ\C6H8O1\OHZDE\09-Apr-2025\0\\#t hf au
 g-cc-pvdz iop(5/13=1,5/36=2,99/5=2) pseudo=read geom=check guess=(read
 ,tcheck) scf=(maxcycle=1)\\title\\0,1\C,0,-1.66128483,-0.05740698,-0.1
 803486\C,0,-0.87407313,-0.14879121,1.10361831\O,0,0.2222683,-1.7176777
 3,0.22321748\C,0,0.77970454,-0.71579622,-0.56781048\C,0,1.51350263,0.2
 7440354,0.35759286\C,0,0.12563649,0.88395866,0.55594281\C,0,-0.3371902
 9,0.3682555,-0.83245278\H,0,-2.23619489,-0.92270145,-0.50327729\H,0,-2
 .29925241,0.83229099,-0.13833609\H,0,-0.27186187,-1.31099643,1.1998424

 Normal termination of Gaussian 16 at Wed Apr  9 03:51:49 2025.
