 Gaussian 16, Revision C.01,

 ----------------------------------------------------------------------
 #t hf aug-cc-pvdz symm=none int=(grid=ultrafine) guess=(read,tcheck) s
 table=(opt,rrhf)
 ----------------------------------------------------------------------
 -----
 title
 -----
 Symbolic Z-matrix:
 Charge =  0 Multiplicity = 1

 SCF Done:  E(RHF) =  -305.706664560     A.U. after   15 cycles
 Normal termination of Gaussian 16 at Wed Apr  9 15:48:50 2025.
 Gaussian 16:  ES64L-G16RevC.01  3-Jul-2019

 ----------------------------------------------------------------------
 #t hf aug-cc-pvdz iop(5/13=1,5/36=2,99/5=2) pseudo=read geom=check gue
 ss=(read,tcheck) scf=(maxcycle=1)
 ----------------------------------------------------------------------
 -----
 title
 -----
 Structure from the checkpoint file:  "Grambow2020_b97d3_006758_forward_mol1.chk"
 Charge =  0 Multiplicity = 1

                         Standard orientation:
 ---------------------------------------------------------------------
 Center     Atomic      Atomic             Coordinates (Angstroms)
 Number     Number       Type             X           Y           Z
 ---------------------------------------------------------------------
      1          6           0       -2.527961    0.008472    0.061684
      2          6           0       -1.201432   -0.731953   -0.111157
      3          6           0        0.014748    0.175465   -0.035634
      4          8           0       -0.025577    1.389027    0.020998
      5          6           0        1.399273   -0.554610   -0.075827
      6          8           0        2.529079    0.120921   -0.100822
      7          1           0       -2.569369    0.512838    1.035454
      8          1           0       -3.371108   -0.690934   -0.005751
      9          1           0       -2.646386    0.775726   -0.713201
     10          1           0       -1.165358   -1.248427   -1.086991
     11          1           0       -1.084237   -1.532770    0.638774
     12          1           0        1.267307   -1.149857    1.326043
     13          1           0        1.330318   -1.543529   -0.589239
     14          1           0        2.103052   -0.586875    0.999103
 ---------------------------------------------------------------------

 SCF Done:  E(RHF) =  -306.021709365     A.U. after    2 cycles

 The electronic state is 1-A.
 Alpha  occ. eigenvalues --  -20.56730 -20.52397 -11.39898 -11.36702 -11.27556
 Alpha  occ. eigenvalues --  -11.24828  -1.49298  -1.44925  -1.08773  -0.98833
 Alpha  occ. eigenvalues --   -0.88591  -0.78159  -0.73084  -0.70820  -0.65644
 Alpha  occ. eigenvalues --   -0.64421  -0.61292  -0.55909  -0.54467  -0.54104
 Alpha  occ. eigenvalues --   -0.50809  -0.47378  -0.41308  -0.39802
 Alpha virt. eigenvalues --    0.02181   0.03110   0.03483   0.04496   0.05878
 Alpha virt. eigenvalues --    0.06303   0.07177   0.08465   0.09044   0.10573
 Alpha virt. eigenvalues --    0.11918   0.13050   0.13310   0.14030   0.14597

 Mulliken charges:
               1
     1  C   -0.328364
     2  C   -0.538150
     3  C    1.322393
     4  O   -1.309564
     5  C    0.628690
     6  O   -1.356578
     7  H    0.184043
     8  H    0.150784
     9  H    0.193079
    10  H    0.277270
    11  H    0.216365
    12  H    0.145444
    13  H    0.171715
    14  H    0.242871
 Sum of Mulliken charges =   0.00000

 Dipole moment (field-independent basis, Debye):
    X=             -2.9549    Y=             -4.3273    Z=              0.5895  Tot=              5.2730

 Test job not archived.
 1\1\GINC-SE057\SP\RHF\Aug-CC-pVDZ\C4H8O2\OHZDE\09-Apr-2025\0\\#t hf au
 g-cc-pvdz iop(5/13=1,5/36=2,99/5=2) pseudo=read geom=check guess=(read
 ,tcheck) scf=(maxcycle=1)\\title\\0,1\C,0,-2.1081271,0.29366896,-0.153
 65087\C,0,-0.7659896,-0.43385633,-0.06905618\C,0,0.43008272,0.46649493
 ,-0.32787088\O,0,0.36317996,1.62192654,-0.69944606\C,0,1.83025075,-0.2
 0371351,-0.12322062\O,0,2.94486251,0.44256269,-0.39413638\H,0,-2.15858
 668,1.1062929,0.58216476\H,0,-2.93581751,-0.40164764,0.03628313\H,0,-2
 .24502913,0.73830476,-1.14698265\H,0,-0.72060029,-1.25864666,-0.802512

 Normal termination of Gaussian 16 at Wed Apr  9 15:48:54 2025.
