 Gaussian 16, Revision C.01,

 ----------------------------------------------------------------------
 #t hf aug-cc-pvdz symm=none int=(grid=ultrafine) guess=(read,tcheck) s
 table=(opt,rrhf)
 ----------------------------------------------------------------------
 -----
 title
 -----
 Symbolic Z-matrix:
 Charge =  0 Multiplicity = 1

 SCF Done:  E(RHF) =  -321.494944783     A.U. after   14 cycles
 Normal termination of Gaussian 16 at Wed Apr  9 03:51:23 2025.
 Gaussian 16:  ES64L-G16RevC.01  3-Jul-2019

 ----------------------------------------------------------------------
 #t hf aug-cc-pvdz iop(5/13=1,5/36=2,99/5=2) pseudo=read geom=check gue
 ss=(read,tcheck) scf=(maxcycle=1)
 ----------------------------------------------------------------------
 -----
 title
 -----
 Structure from the checkpoint file:  "Grambow2020_wb97xd3_008183_reverse_mol2.chk"
 Charge =  0 Multiplicity = 1

                         Standard orientation:
 ---------------------------------------------------------------------
 Center     Atomic      Atomic             Coordinates (Angstroms)
 Number     Number       Type             X           Y           Z
 ---------------------------------------------------------------------
      1          8           0        3.170153    0.065417   -0.219743
      2          6           0        1.946223   -0.632802   -0.165354
      3          6           0        0.924249    0.098211    0.668360
      4          6           0       -0.257208    0.420137    0.240828
      5          6           0       -1.434790    0.752249   -0.214735
      6          6           0       -3.499451   -0.731189   -0.026770
      7          7           0       -2.540418   -0.071758   -0.098707
      8          1           0        3.029538    0.896632   -0.677717
      9          1           0        1.540988   -0.831129   -1.162841
     10          1           0        2.170841   -1.592849    0.303230
     11          1           0        1.219616    0.366416    1.679683
     12          1           0       -1.613426    1.700265   -0.707439
 ---------------------------------------------------------------------

 SCF Done:  E(RHF) =  -321.814417939     A.U. after    2 cycles

 The electronic state is 1-A.
 Alpha  occ. eigenvalues --  -20.56870 -15.54945 -11.32780 -11.31491 -11.29439
 Alpha  occ. eigenvalues --  -11.29213 -11.28204  -1.47302  -1.29789  -1.12886
 Alpha  occ. eigenvalues --   -1.05686  -0.93719  -0.85604  -0.73982  -0.72693
 Alpha  occ. eigenvalues --   -0.70370  -0.63612  -0.62441  -0.59689  -0.53907
 Alpha  occ. eigenvalues --   -0.52752  -0.49365  -0.47833  -0.42097  -0.39660
 Alpha virt. eigenvalues --    0.02727   0.03771   0.04121   0.04482   0.06113
 Alpha virt. eigenvalues --    0.08105   0.08629   0.09361   0.09778   0.10539
 Alpha virt. eigenvalues --    0.11054   0.11455   0.12037   0.12713   0.13782

 Mulliken charges:
               1
     1  O   -1.081514
     2  C    0.487192
     3  C    0.393659
     4  C    0.216202
     5  C   -0.442071
     6  C   -0.475228
     7  N    0.570481
     8  H    0.307134
     9  H    0.046459
    10  H    0.108984
    11  H   -0.120561
    12  H   -0.010737
 Sum of Mulliken charges =   0.00000

 Dipole moment (field-independent basis, Debye):
    X=              2.0102    Y=              1.9185    Z=             -0.5961  Tot=              2.8420

 Test job not archived.
 1\1\GINC-SE273\SP\RHF\Aug-CC-pVDZ\C5H5N1O1\OHZDE\09-Apr-2025\0\\#t hf
 aug-cc-pvdz iop(5/13=1,5/36=2,99/5=2) pseudo=read geom=check guess=(re
 ad,tcheck) scf=(maxcycle=1)\\title\\0,1\O,0,-2.72350286,-0.05123949,-0
 .42386225\C,0,-1.55199208,-0.6855701,0.03837154\C,0,-0.34137623,-0.269
 07322,-0.75839127\C,0,0.73670912,0.21971873,-0.22822562\C,0,1.80555993
 ,0.72789604,0.3229984\C,0,3.78713461,-0.66184119,1.1234589\N,0,2.86849
 734,-0.0494534,0.74815359\H,0,-2.64249767,0.89246492,-0.2712428\H,0,-1
 .37823623,-0.50300977,1.10373996\H,0,-1.71908927,-1.75590959,-0.096409

 Normal termination of Gaussian 16 at Wed Apr  9 03:51:28 2025.
