 Gaussian 16, Revision C.01,

 ----------------------------------------------------------------------
 #t hf aug-cc-pvdz symm=none int=(grid=ultrafine) guess=(read,tcheck) s
 table=(opt,rrhf)
 ----------------------------------------------------------------------
 -----
 title
 -----
 Symbolic Z-matrix:
 Charge =  0 Multiplicity = 1

 SCF Done:  E(RHF) =  -338.988763576     A.U. after   19 cycles
 Normal termination of Gaussian 16 at Wed Apr  9 15:50:36 2025.
 Gaussian 16:  ES64L-G16RevC.01  3-Jul-2019

 ----------------------------------------------------------------------
 #t hf aug-cc-pvdz iop(5/13=1,5/36=2,99/5=2) pseudo=read geom=check gue
 ss=(read,tcheck) scf=(maxcycle=1)
 ----------------------------------------------------------------------
 -----
 title
 -----
 Structure from the checkpoint file:  "Grambow2020_b97d3_006816_reverse_mol1.chk"
 Charge =  0 Multiplicity = 1

                         Standard orientation:
 ---------------------------------------------------------------------
 Center     Atomic      Atomic             Coordinates (Angstroms)
 Number     Number       Type             X           Y           Z
 ---------------------------------------------------------------------
      1          8           0        1.560162    0.292440   -0.373836
      2          6           0       -0.248509    1.619079    0.206126
      3          6           0       -0.901990    0.534520    0.179319
      4          8           0       -1.437752   -0.528674   -0.519866
      5          6           0       -0.299848   -0.860779    0.368716
      6          8           0        1.029170   -0.861014    0.151149
      7          1           0        0.068452    2.637541    0.313086
      8          1           0       -0.579009   -1.616471    1.102382
 ---------------------------------------------------------------------

 SCF Done:  E(RHF) =  -339.312755372     A.U. after    2 cycles

 The electronic state is 1-A.
 Alpha  occ. eigenvalues --  -20.66983 -20.63140 -20.53739 -11.43728 -11.38111
 Alpha  occ. eigenvalues --  -11.36992  -1.61225  -1.56382  -1.21781  -1.10351
 Alpha  occ. eigenvalues --   -0.92206  -0.83811  -0.76420  -0.74142  -0.69590
 Alpha  occ. eigenvalues --   -0.64487  -0.59755  -0.55683  -0.48053  -0.46519
 Alpha  occ. eigenvalues --   -0.38044  -0.36348
 Alpha virt. eigenvalues --   -0.01911   0.02929   0.03544   0.06865   0.08416
 Alpha virt. eigenvalues --    0.08795   0.10723   0.11355   0.11948   0.12854
 Alpha virt. eigenvalues --    0.13493   0.14856   0.15645   0.16118   0.20337

 Mulliken charges:
               1
     1  O   -0.489850
     2  C    0.262177
     3  C    1.047906
     4  O   -1.241538
     5  C    1.337761
     6  O   -0.787566
     7  H   -0.171305
     8  H    0.042415
 Sum of Mulliken charges =   0.00000

 Dipole moment (field-independent basis, Debye):
    X=             -3.5384    Y=              1.5713    Z=              2.1351  Tot=              4.4214

 Test job not archived.
 1\1\GINC-SE097\SP\RHF\Aug-CC-pVDZ\C3H2O3\OHZDE\09-Apr-2025\0\\#t hf au
 g-cc-pvdz iop(5/13=1,5/36=2,99/5=2) pseudo=read geom=check guess=(read
 ,tcheck) scf=(maxcycle=1)\\title\\0,1\O,0,0.03209639,-0.78509737,1.579
 44562\C,0,-1.07209743,0.90991582,0.45015264\C,0,-0.17111266,0.75246315
 ,-0.42589451\O,0,1.14760669,0.84670228,-0.8238665\C,0,0.63693292,-0.53
 127706,-0.63656084\O,0,0.5971953,-1.32610949,0.44984946\H,0,-1.9314825
 7,1.21941674,1.01125567\H,0,0.73688536,-1.11715906,-1.54980655\\Versio
 n=ES64L-G16RevC.01\State=1-A\HF=-339.3127554\RMSD=1.848e-02\Dipole=-0.

 Normal termination of Gaussian 16 at Wed Apr  9 15:50:38 2025.
