 Gaussian 16, Revision C.01,

 ----------------------------------------------------------------------
 #t hf aug-cc-pvdz symm=none int=(grid=ultrafine) guess=(read,tcheck) s
 table=(opt,rrhf)
 ----------------------------------------------------------------------
 -----
 title
 -----
 Symbolic Z-matrix:
 Charge =  0 Multiplicity = 1

 SCF Done:  E(RHF) =  -375.642707463     A.U. after   15 cycles
 Normal termination of Gaussian 16 at Wed Apr  9 03:46:46 2025.
 Gaussian 16:  ES64L-G16RevC.01  3-Jul-2019

 ----------------------------------------------------------------------
 #t hf aug-cc-pvdz iop(5/13=1,5/36=2,99/5=2) pseudo=read geom=check gue
 ss=(read,tcheck) scf=(maxcycle=1)
 ----------------------------------------------------------------------
 -----
 title
 -----
 Structure from the checkpoint file:  "Grambow2020_wb97xd3_007916_forward_mol1.chk"
 Charge =  0 Multiplicity = 1

                         Standard orientation:
 ---------------------------------------------------------------------
 Center     Atomic      Atomic             Coordinates (Angstroms)
 Number     Number       Type             X           Y           Z
 ---------------------------------------------------------------------
      1          6           0       -0.638423    1.775595   -0.174154
      2          8           0       -0.219698    0.669073    0.596769
      3          6           0        1.250280   -0.374889   -0.029557
      4          7           0        2.327639    0.153414   -0.154027
      5          7           0        0.451080   -1.369170    0.044779
      6          6           0       -1.044399   -0.656105    0.372704
      7          8           0       -1.837260   -0.682056   -0.538272
      8          1           0       -1.292106    2.416514    0.420730
      9          1           0       -1.169552    1.441575   -1.067871
     10          1           0        0.246685    2.350555   -0.458882
     11          1           0        2.482776    1.101038   -0.451189
     12          1           0        0.587781   -2.169832   -0.554060
     13          1           0       -1.255702   -0.993305    1.394083
 ---------------------------------------------------------------------

 SCF Done:  E(RHF) =  -376.025616889     A.U. after    2 cycles

 The electronic state is 1-A.
 Alpha  occ. eigenvalues --  -20.57245 -20.48809 -15.54924 -15.54276 -11.43707
 Alpha  occ. eigenvalues --  -11.39869 -11.28734  -1.49672  -1.42659  -1.31661
 Alpha  occ. eigenvalues --   -1.24749  -0.96090  -0.88787  -0.83319  -0.82559
 Alpha  occ. eigenvalues --   -0.72405  -0.70027  -0.65512  -0.63000  -0.61919
 Alpha  occ. eigenvalues --   -0.59641  -0.57241  -0.51582  -0.48432  -0.45117
 Alpha  occ. eigenvalues --   -0.41897  -0.40013
 Alpha virt. eigenvalues --    0.02763   0.04101   0.04732   0.05346   0.06678
 Alpha virt. eigenvalues --    0.07104   0.09309   0.10056   0.10836   0.11547
 Alpha virt. eigenvalues --    0.12058   0.12858   0.13761   0.13876   0.15211

 Mulliken charges:
               1
     1  C    0.206486
     2  O   -1.422565
     3  C   -1.424214
     4  N    0.796004
     5  N    0.605004
     6  C    1.681918
     7  O   -1.285289
     8  H    0.013672
     9  H    0.185104
    10  H    0.074569
    11  H    0.224161
    12  H    0.170384
    13  H    0.174765
 Sum of Mulliken charges =  -0.00000

 Dipole moment (field-independent basis, Debye):
    X=              2.3948    Y=              1.2767    Z=             -0.0937  Tot=              2.7155

 Test job not archived.
 1\1\GINC-SE187\SP\RHF\Aug-CC-pVDZ\C3H6N2O2\OHZDE\09-Apr-2025\0\\#t hf
 aug-cc-pvdz iop(5/13=1,5/36=2,99/5=2) pseudo=read geom=check guess=(re
 ad,tcheck) scf=(maxcycle=1)\\title\\0,1\C,0,-0.85512017,-0.56413101,-1
 .06024084\O,0,-0.69561863,-0.32282037,0.32192156\C,0,0.30566246,1.2064
 8823,0.87112647\N,0,-0.08920514,2.30290671,0.5592857\N,0,1.0253032,0.3
 7959344,1.52778718\C,0,0.46843294,-1.13004047,1.01460666\O,0,1.2295566
 2,-1.74543771,0.30668181\H,0,-1.64887681,-1.2964965,-1.22010782\H,0,0.
 07576856,-0.93393813,-1.49508314\H,0,-1.14533558,0.37357701,-1.5414298

 Normal termination of Gaussian 16 at Wed Apr  9 03:46:51 2025.
