 Gaussian 16, Revision C.01,

 ----------------------------------------------------------------------
 #t hf aug-cc-pvdz symm=none int=(grid=ultrafine) guess=(read,tcheck) s
 table=(opt,rrhf)
 ----------------------------------------------------------------------
 -----
 title
 -----
 Symbolic Z-matrix:
 Charge =  0 Multiplicity = 1

 SCF Done:  E(RHF) =  -337.573289003     A.U. after   14 cycles
 Normal termination of Gaussian 16 at Wed Apr  9 03:58:25 2025.
 Gaussian 16:  ES64L-G16RevC.01  3-Jul-2019

 ----------------------------------------------------------------------
 #t hf aug-cc-pvdz iop(5/13=1,5/36=2,99/5=2) pseudo=read geom=check gue
 ss=(read,tcheck) scf=(maxcycle=1)
 ----------------------------------------------------------------------
 -----
 title
 -----
 Structure from the checkpoint file:  "Grambow2020_wb97xd3_008701_reverse_mol2.chk"
 Charge =  0 Multiplicity = 1

                         Standard orientation:
 ---------------------------------------------------------------------
 Center     Atomic      Atomic             Coordinates (Angstroms)
 Number     Number       Type             X           Y           Z
 ---------------------------------------------------------------------
      1          8           0       -2.452469   -0.328255   -0.000443
      2          6           0       -1.518192    0.596580   -0.000107
      3          6           0       -0.201001    0.291603    0.000787
      4          6           0        0.969451    1.120528    0.000130
      5          7           0        2.028734    0.364788   -0.000701
      6          6           0        1.512788   -0.928284   -0.000285
      7          7           0        0.221361   -1.035382    0.000933
      8          1           0       -1.900731    1.610580   -0.001362
      9          1           0        1.017021    2.201980    0.001619
     10          1           0        2.173785   -1.784823   -0.001339
     11          1           0       -1.999264   -1.190101   -0.000144
 ---------------------------------------------------------------------

 SCF Done:  E(RHF) =  -337.911814212     A.U. after    2 cycles

 The electronic state is 1-A.
 Alpha  occ. eigenvalues --  -20.62313 -15.50190 -15.50091 -11.36851 -11.30476
 Alpha  occ. eigenvalues --  -11.30151 -11.26775  -1.55240  -1.33459  -1.17184
 Alpha  occ. eigenvalues --   -1.06741  -0.93697  -0.85193  -0.81707  -0.77518
 Alpha  occ. eigenvalues --   -0.70208  -0.66632  -0.63722  -0.61158  -0.58917
 Alpha  occ. eigenvalues --   -0.58780  -0.51272  -0.48434  -0.43399  -0.36213
 Alpha virt. eigenvalues --    0.03044   0.03338   0.04384   0.04590   0.05590
 Alpha virt. eigenvalues --    0.08489   0.09346   0.09417   0.11013   0.11962
 Alpha virt. eigenvalues --    0.12876   0.13083   0.14305   0.14990   0.15420

 Mulliken charges:
               1
     1  O   -1.460977
     2  C    1.779917
     3  C   -0.458940
     4  C   -0.748766
     5  N    0.591422
     6  C   -0.869937
     7  N    0.910484
     8  H    0.012082
     9  H   -0.157016
    10  H   -0.056072
    11  H    0.457803
 Sum of Mulliken charges =  -0.00000

 Dipole moment (field-independent basis, Debye):
    X=             -2.2911    Y=              1.5323    Z=             -0.0011  Tot=              2.7563

 Test job not archived.
 1\1\GINC-SE435\SP\RHF\Aug-CC-pVDZ\C4H4N2O1\OHZDE\09-Apr-2025\0\\#t hf
 aug-cc-pvdz iop(5/13=1,5/36=2,99/5=2) pseudo=read geom=check guess=(re
 ad,tcheck) scf=(maxcycle=1)\\title\\0,1\O,0,-1.90965845,-1.57619724,0.
 09396303\C,0,-1.56464994,-0.31049885,0.00929238\C,0,-0.27200693,0.0854
 8847,-0.00717653\C,0,0.32544404,1.38652925,-0.09332417\N,0,1.62081112,
 1.26431799,-0.07559706\C,0,1.82232745,-0.10979292,0.02159569\N,0,0.758
 46321,-0.84837361,0.0657013\H,0,-2.40380648,0.37310091,-0.04586703\H,0
 ,-0.17534421,2.34376002,-0.16205581\H,0,2.82355539,-0.51831581,0.05664

 Normal termination of Gaussian 16 at Wed Apr  9 03:58:29 2025.
