 Gaussian 16, Revision C.01,

 ----------------------------------------------------------------------
 #t hf aug-cc-pvdz symm=none int=(grid=ultrafine) guess=(read,tcheck) s
 table=(opt,rrhf)
 ----------------------------------------------------------------------
 -----
 title
 -----
 Symbolic Z-matrix:
 Charge =  0 Multiplicity = 1

 SCF Done:  E(RHF) =  -322.616831941     A.U. after   17 cycles
 Normal termination of Gaussian 16 at Wed Apr  9 03:26:54 2025.
 Gaussian 16:  ES64L-G16RevC.01  3-Jul-2019

 ----------------------------------------------------------------------
 #t hf aug-cc-pvdz iop(5/13=1,5/36=2,99/5=2) pseudo=read geom=check gue
 ss=(read,tcheck) scf=(maxcycle=1)
 ----------------------------------------------------------------------
 -----
 title
 -----
 Structure from the checkpoint file:  "Grambow2020_wb97xd3_006636_reverse_mol2.chk"
 Charge =  0 Multiplicity = 1

                         Standard orientation:
 ---------------------------------------------------------------------
 Center     Atomic      Atomic             Coordinates (Angstroms)
 Number     Number       Type             X           Y           Z
 ---------------------------------------------------------------------
      1          8           0        1.200732    0.971130    0.024549
      2          6           0       -0.008148    1.396453   -0.244260
      3          6           0       -1.195883    0.725548   -0.077610
      4          6           0       -0.925128   -0.864469   -0.305719
      5          6           0        0.517461   -1.308539   -0.467645
      6          6           0        1.370244   -0.407914    0.410351
      7          7           0       -1.350432   -0.391142    0.874457
      8          1           0        0.011512    2.396260   -0.671679
      9          1           0       -2.074099    1.186370   -0.527626
     10          1           0       -1.598283   -1.137164   -1.138103
     11          1           0        0.837571   -1.282555   -1.512891
     12          1           0        0.623039   -2.336107   -0.108882
     13          1           0        2.436729   -0.594365    0.303007
     14          1           0        1.059419   -0.509954    1.447887
 ---------------------------------------------------------------------

 SCF Done:  E(RHF) =  -322.950557790     A.U. after    2 cycles

 The electronic state is 1-A.
 Alpha  occ. eigenvalues --  -20.61471 -15.43387 -11.36010 -11.30677 -11.29937
 Alpha  occ. eigenvalues --  -11.27000 -11.24997  -1.54989  -1.24973  -1.07826
 Alpha  occ. eigenvalues --   -0.99974  -0.92547  -0.80884  -0.75664  -0.74833
 Alpha  occ. eigenvalues --   -0.68172  -0.67877  -0.62457  -0.60380  -0.58436
 Alpha  occ. eigenvalues --   -0.55032  -0.52321  -0.51353  -0.49631  -0.36504
 Alpha  occ. eigenvalues --   -0.34870
 Alpha virt. eigenvalues --    0.03173   0.03666   0.03945   0.04458   0.05468
 Alpha virt. eigenvalues --    0.06092   0.06955   0.07573   0.10469   0.11048
 Alpha virt. eigenvalues --    0.12309   0.12966   0.13997   0.14338   0.14497

 Mulliken charges:
               1
     1  O   -1.359127
     2  C    1.088717
     3  C   -0.057001
     4  C   -0.814177
     5  C   -0.469795
     6  C    0.510040
     7  N    0.599840
     8  H   -0.030957
     9  H   -0.096819
    10  H   -0.003282
    11  H    0.130637
    12  H    0.267807
    13  H    0.001886
    14  H    0.232232
 Sum of Mulliken charges =  -0.00000

 Dipole moment (field-independent basis, Debye):
    X=              2.7696    Y=              0.6750    Z=             -3.2896  Tot=              4.3529

 Test job not archived.
 1\1\GINC-SE116\SP\RHF\Aug-CC-pVDZ\C5H7N1O1\OHZDE\09-Apr-2025\0\\#t hf
 aug-cc-pvdz iop(5/13=1,5/36=2,99/5=2) pseudo=read geom=check guess=(re
 ad,tcheck) scf=(maxcycle=1)\\title\\0,1\O,0,0.3810897,0.74718359,1.369
 15746\C,0,0.85428237,1.27360894,0.26756131\C,0,0.41135578,1.08007517,-
 1.01889176\C,0,-0.17387144,-0.43536395,-1.13910546\C,0,-0.28659151,-1.
 24151562,0.14225833\C,0,-0.63376238,-0.27129945,1.25912579\N,0,-0.9607
 6547,0.63372989,-1.32771466\H,0,1.71521569,1.90616598,0.47091391\H,0,1
 .05146834,1.46829323,-1.80988981\H,0,0.43587782,-0.89882269,-1.9352051

 Normal termination of Gaussian 16 at Wed Apr  9 03:26:59 2025.
