 Gaussian 16, Revision C.01,

 ----------------------------------------------------------------------
 #t hf aug-cc-pvdz symm=none int=(grid=ultrafine) guess=(read,tcheck) s
 table=(opt,rrhf)
 ----------------------------------------------------------------------
 -----
 title
 -----
 Symbolic Z-matrix:
 Charge =  0 Multiplicity = 1

 SCF Done:  E(RHF) =  -344.793076150     A.U. after   14 cycles

 1\1\GINC-SE115\Stability\RHF\Aug-CC-pVDZ\C5H10O2\OHZDE\09-Apr-2025\0\\
 #t hf aug-cc-pvdz symm=none int=(grid=ultrafine) guess=(read,tcheck) s
 table=(opt,rrhf)\\title\\0,1\C,0,-1.35584165,-1.50880006,0.15326398\C,
 0,-0.55798267,-0.32716435,-0.32399135\C,0,0.76767782,-0.63497674,-0.96
 465124\C,0,2.58894464,1.39789025,1.66326029\O,0,1.70792485,2.18007162,
 1.12480963\C,0,-1.23542576,0.93036302,-0.6332069\O,0,-0.53870778,0.773
 12875,0.60482379\H,0,-1.60921342,-2.15876449,-0.68632702\H,0,-0.773729
 59,-2.09212858,0.86917243\H,0,-2.27685363,-1.18561327,0.63727742\H,0,1

 Normal termination of Gaussian 16 at Wed Apr  9 18:27:33 2025.
 Gaussian 16:  ES64L-G16RevC.01  3-Jul-2019

 ----------------------------------------------------------------------
 #t hf aug-cc-pvdz iop(5/13=1,5/36=2,99/5=2) pseudo=read geom=check gue
 ss=(read,tcheck) scf=(maxcycle=1)
 ----------------------------------------------------------------------
 -----
 title
 -----
 Structure from the checkpoint file:  "Grambow2020_wb97xd3_007586_reverse_mol2.chk"
 Charge =  0 Multiplicity = 1

                         Standard orientation:
 ---------------------------------------------------------------------
 Center     Atomic      Atomic             Coordinates (Angstroms)
 Number     Number       Type             X           Y           Z
 ---------------------------------------------------------------------
      1          6           0       -2.200634    0.438419   -0.865911
      2          6           0       -1.115847    0.086583    0.113917
      3          6           0       -0.579353    1.218487    0.946705
      4          6           0        2.903599    0.685284   -0.446214
      5          8           0        2.522003   -0.444996    0.058547
      6          6           0       -0.987776   -1.287795    0.594129
      7          8           0       -0.112738   -0.795937   -0.423340
      8          1           0       -3.076779    0.821618   -0.339516
      9          1           0       -1.852224    1.213008   -1.551676
     10          1           0       -2.495088   -0.433536   -1.448984
     11          1           0        0.223519    0.883022    1.603237
     12          1           0       -1.375059    1.640945    1.562919
     13          1           0       -0.192871    2.013004    0.305158
     14          1           0        2.001376    1.123687   -0.962461
     15          1           0        1.571183   -0.652478   -0.113526
     16          1           0       -1.683778   -2.048420    0.254846
     17          1           0       -0.514336   -1.479257    1.552594
 ---------------------------------------------------------------------

 SCF Done:  E(RHF) =  -345.148533667     A.U. after    2 cycles

 The electronic state is 1-A.
 Alpha  occ. eigenvalues --  -20.58769 -20.58719 -11.32446 -11.31360 -11.29052
 Alpha  occ. eigenvalues --  -11.25258 -11.25226  -1.52845  -1.50761  -1.07709
 Alpha  occ. eigenvalues --   -0.97856  -0.94908  -0.85564  -0.80974  -0.73255
 Alpha  occ. eigenvalues --   -0.70577  -0.67734  -0.63808  -0.60723  -0.57878
 Alpha  occ. eigenvalues --   -0.56936  -0.55701  -0.55126  -0.54034  -0.53765
 Alpha  occ. eigenvalues --   -0.47284  -0.46190  -0.34267
 Alpha virt. eigenvalues --    0.02635   0.03246   0.03378   0.04687   0.05598
 Alpha virt. eigenvalues --    0.06209   0.07019   0.07465   0.07736   0.09381
 Alpha virt. eigenvalues --    0.11086   0.11168   0.12091   0.13438   0.13592

 Mulliken charges:
               1
     1  C   -0.502599
     2  C    0.676927
     3  C   -0.492953
     4  C    0.160502
     5  O   -0.874836
     6  C    0.552691
     7  O   -1.542936
     8  H    0.253790
     9  H    0.251012
    10  H    0.165066
    11  H    0.144695
    12  H    0.218866
    13  H    0.277258
    14  H    0.119367
    15  H    0.705232
    16  H   -0.049192
    17  H   -0.062891
 Sum of Mulliken charges =  -0.00000

 Dipole moment (field-independent basis, Debye):
    X=             -6.3437    Y=             -0.5011    Z=              0.9615  Tot=              6.4357

 Test job not archived.
 1\1\GINC-SE115\SP\RHF\Aug-CC-pVDZ\C5H10O2\OHZDE\09-Apr-2025\0\\#t hf a
 ug-cc-pvdz iop(5/13=1,5/36=2,99/5=2) pseudo=read geom=check guess=(rea
 d,tcheck) scf=(maxcycle=1)\\title\\0,1\C,0,-1.35584165,-1.50880006,0.1
 5326398\C,0,-0.55798267,-0.32716435,-0.32399135\C,0,0.76767782,-0.6349
 7674,-0.96465124\C,0,2.58894464,1.39789025,1.66326029\O,0,1.70792485,2
 .18007162,1.12480963\C,0,-1.23542576,0.93036302,-0.6332069\O,0,-0.5387
 0778,0.77312875,0.60482379\H,0,-1.60921342,-2.15876449,-0.68632702\H,0
 ,-0.77372959,-2.09212858,0.86917243\H,0,-2.27685363,-1.18561327,0.6372

 Normal termination of Gaussian 16 at Wed Apr  9 18:27:39 2025.
