 Gaussian 16, Revision C.01,

 ----------------------------------------------------------------------
 #t hf aug-cc-pvdz symm=none int=(grid=ultrafine) guess=(read,tcheck) s
 table=(opt,rrhf)
 ----------------------------------------------------------------------
 -----
 title
 -----
 Symbolic Z-matrix:
 Charge =  0 Multiplicity = 1

 SCF Done:  E(RHF) =  -302.911040141     A.U. after   14 cycles
 Normal termination of Gaussian 16 at Wed Apr  9 19:12:01 2025.
 Gaussian 16:  ES64L-G16RevC.01  3-Jul-2019

 ----------------------------------------------------------------------
 #t hf aug-cc-pvdz iop(5/13=1,5/36=2,99/5=2) pseudo=read geom=check gue
 ss=(read,tcheck) scf=(maxcycle=1)
 ----------------------------------------------------------------------
 -----
 title
 -----
 Structure from the checkpoint file:  "Grambow2020_wb97xd3_008877_reverse_mol2.chk"
 Charge =  0 Multiplicity = 1

                         Standard orientation:
 ---------------------------------------------------------------------
 Center     Atomic      Atomic             Coordinates (Angstroms)
 Number     Number       Type             X           Y           Z
 ---------------------------------------------------------------------
      1          6           0        0.305753    1.912449   -0.428347
      2          7           0       -1.517673    0.442631    0.301976
      3          6           0       -1.598888   -0.772819   -0.097324
      4          6           0       -0.328891   -1.457623   -0.267680
      5          6           0        0.613913   -0.552993    0.070276
      6          7           0        1.974782   -0.649329    0.048040
      7          6           0       -0.095964    0.726846    0.440439
      8          1           0       -0.277027    2.788771   -0.147479
      9          1           0        1.367194    2.144786   -0.320147
     10          1           0        0.107375    1.685187   -1.476807
     11          1           0       -2.567572   -1.230334   -0.281675
     12          1           0       -0.186760   -2.476610   -0.596814
     13          1           0        2.382409   -1.563998   -0.026203
     14          1           0        2.502220    0.002325    0.599892
     15          1           0        0.096853    0.961600    1.494931
 ---------------------------------------------------------------------

 SCF Done:  E(RHF) =  -303.229651168     A.U. after    2 cycles

 The electronic state is 1-A.
 Alpha  occ. eigenvalues --  -15.52816 -15.46637 -11.29072 -11.26915 -11.26187
 Alpha  occ. eigenvalues --  -11.22845 -11.21279  -1.26488  -1.21968  -1.02944
 Alpha  occ. eigenvalues --   -1.01922  -0.89545  -0.80464  -0.79174  -0.72714
 Alpha  occ. eigenvalues --   -0.70464  -0.64281  -0.60853  -0.59159  -0.56145
 Alpha  occ. eigenvalues --   -0.54512  -0.51960  -0.49710  -0.44958  -0.44249
 Alpha  occ. eigenvalues --   -0.32966
 Alpha virt. eigenvalues --    0.02523   0.04022   0.04417   0.05089   0.05516
 Alpha virt. eigenvalues --    0.06016   0.06675   0.08271   0.09317   0.11245
 Alpha virt. eigenvalues --    0.11671   0.12242   0.12915   0.13813   0.14520

 Mulliken charges:
               1
     1  C   -0.026888
     2  N    0.898846
     3  C   -0.859792
     4  C    1.103443
     5  C   -1.011249
     6  N    0.839813
     7  C   -1.427131
     8  H    0.149406
     9  H    0.189178
    10  H    0.244113
    11  H   -0.101053
    12  H   -0.197490
    13  H    0.042370
    14  H    0.010418
    15  H    0.146015
 Sum of Mulliken charges =  -0.00000

 Dipole moment (field-independent basis, Debye):
    X=              3.4602    Y=             -1.7622    Z=              0.2427  Tot=              3.8907

 Test job not archived.
 1\1\GINC-SE036\SP\RHF\Aug-CC-pVDZ\C5H8N2\OHZDE\09-Apr-2025\0\\#t hf au
 g-cc-pvdz iop(5/13=1,5/36=2,99/5=2) pseudo=read geom=check guess=(read
 ,tcheck) scf=(maxcycle=1)\\title\\0,1\C,0,1.36790294,1.10916324,0.4818
 9349\N,0,1.22691208,-1.0171136,-0.73370809\C,0,0.36731682,-1.91386264,
 -0.4170175\C,0,-0.91973758,-1.41073264,0.03156093\C,0,-0.81878576,-0.0
 6617739,-0.02698864\N,0,-1.71543526,0.90029769,0.32470028\C,0,0.573689
 54,0.26473149,-0.50703597\H,0,2.37658866,1.26847408,0.10290273\H,0,0.8
 9548618,2.07963374,0.64728427\H,0,1.43479754,0.59029048,1.43926866\H,0

 Normal termination of Gaussian 16 at Wed Apr  9 19:12:07 2025.
