 Gaussian 16, Revision C.01,

 ----------------------------------------------------------------------
 #t hf aug-cc-pvdz symm=none int=(grid=ultrafine) guess=(read,tcheck) s
 table=(opt,rrhf)
 ----------------------------------------------------------------------
 -----
 title
 -----
 Symbolic Z-matrix:
 Charge =  0 Multiplicity = 1

 SCF Done:  E(RHF) =  -323.934880546     A.U. after   14 cycles
 Normal termination of Gaussian 16 at Wed Apr  9 18:55:55 2025.
 Gaussian 16:  ES64L-G16RevC.01  3-Jul-2019

 ----------------------------------------------------------------------
 #t hf aug-cc-pvdz iop(5/13=1,5/36=2,99/5=2) pseudo=read geom=check gue
 ss=(read,tcheck) scf=(maxcycle=1)
 ----------------------------------------------------------------------
 -----
 title
 -----
 Structure from the checkpoint file:  "Grambow2020_wb97xd3_008335_reverse_mol2.chk"
 Charge =  0 Multiplicity = 1

                         Standard orientation:
 ---------------------------------------------------------------------
 Center     Atomic      Atomic             Coordinates (Angstroms)
 Number     Number       Type             X           Y           Z
 ---------------------------------------------------------------------
      1          7           0        0.944568   -1.153984   -0.659288
      2          6           0        1.359539   -0.060221    0.031333
      3          6           0        0.312820    0.995829    0.358856
      4          6           0       -0.942420    1.061090   -0.506424
      5          6           0       -2.022718    0.048823   -0.246992
      6          6           0       -2.061794   -0.855574    0.721321
      7          8           0        2.515383    0.086568    0.369386
      8          1           0        1.618205   -1.883760   -0.810491
      9          1           0        0.053005    0.869321    1.414204
     10          1           0        0.848170    1.943385    0.300867
     11          1           0       -0.663422    1.012415   -1.564598
     12          1           0       -1.394772    2.050741   -0.383263
     13          1           0       -2.863015    0.100478   -0.935574
     14          1           0       -0.031008   -1.358423   -0.784245
     15          1           0       -2.909369   -1.521400    0.825392
     16          1           0       -1.265401   -0.967091    1.449069
 ---------------------------------------------------------------------

 SCF Done:  E(RHF) =  -324.273324585     A.U. after    2 cycles

 The electronic state is 1-A.
 Alpha  occ. eigenvalues --  -20.49984 -15.51968 -11.35272 -11.26058 -11.25606
 Alpha  occ. eigenvalues --  -11.24921 -11.24649  -1.45375  -1.22006  -1.10767
 Alpha  occ. eigenvalues --   -1.02499  -0.92286  -0.82659  -0.77213  -0.75634
 Alpha  occ. eigenvalues --   -0.68779  -0.65953  -0.63754  -0.61444  -0.58803
 Alpha  occ. eigenvalues --   -0.56434  -0.55834  -0.51718  -0.50368  -0.43000
 Alpha  occ. eigenvalues --   -0.41419  -0.39004
 Alpha virt. eigenvalues --    0.02969   0.03406   0.03991   0.04136   0.05947
 Alpha virt. eigenvalues --    0.06088   0.06523   0.07874   0.08497   0.10608
 Alpha virt. eigenvalues --    0.11815   0.12130   0.13629   0.14073   0.14504

 Mulliken charges:
               1
     1  N    0.709165
     2  C    0.218274
     3  C   -0.086573
     4  C   -0.479584
     5  C    0.404111
     6  C   -0.025184
     7  O   -1.314793
     8  H    0.093914
     9  H    0.282023
    10  H    0.150106
    11  H    0.226599
    12  H    0.165566
    13  H   -0.171480
    14  H    0.072853
    15  H   -0.132100
    16  H   -0.112897
 Sum of Mulliken charges =   0.00000

 Dipole moment (field-independent basis, Debye):
    X=             -3.9106    Y=             -0.6212    Z=             -1.0572  Tot=              4.0983

 Test job not archived.
 1\1\GINC-SE014\SP\RHF\Aug-CC-pVDZ\C5H9N1O1\OHZDE\09-Apr-2025\0\\#t hf
 aug-cc-pvdz iop(5/13=1,5/36=2,99/5=2) pseudo=read geom=check guess=(re
 ad,tcheck) scf=(maxcycle=1)\\title\\0,1\N,0,1.2413482,0.91186825,1.155
 61412\C,0,1.77250788,0.07002715,0.23114115\C,0,0.80488004,-0.81223848,
 -0.54567155\C,0,-0.55834515,-1.1079605,0.07300584\C,0,-1.61212225,-0.0
 3996243,-0.01624015\C,0,-1.5329658,1.11633122,-0.65952101\O,0,2.967328
 72,0.00603633,0.03086441\H,0,1.87145059,1.54550646,1.61462948\H,0,0.69
 41358,-0.36538352,-1.53830605\H,0,1.34638995,-1.74482727,-0.70336964\H

 Normal termination of Gaussian 16 at Wed Apr  9 18:56:01 2025.
