 Gaussian 16, Revision C.01,

 ----------------------------------------------------------------------
 #t hf aug-cc-pvdz symm=none int=(grid=ultrafine) guess=(read,tcheck) s
 table=(opt,rrhf)
 ----------------------------------------------------------------------
 -----
 title
 -----
 Symbolic Z-matrix:
 Charge =  0 Multiplicity = 1

 SCF Done:  E(RHF) =  -352.255047602     A.U. after   18 cycles
 Normal termination of Gaussian 16 at Wed Apr  9 03:51:27 2025.
 Gaussian 16:  ES64L-G16RevC.01  3-Jul-2019

 ----------------------------------------------------------------------
 #t hf aug-cc-pvdz iop(5/13=1,5/36=2,99/5=2) pseudo=read geom=check gue
 ss=(read,tcheck) scf=(maxcycle=1)
 ----------------------------------------------------------------------
 -----
 title
 -----
 Structure from the checkpoint file:  "Grambow2020_wb97xd3_008228_forward_mol1.chk"
 Charge =  0 Multiplicity = 1

                         Standard orientation:
 ---------------------------------------------------------------------
 Center     Atomic      Atomic             Coordinates (Angstroms)
 Number     Number       Type             X           Y           Z
 ---------------------------------------------------------------------
      1          7           0        1.946370   -0.523372    0.579252
      2          6           0        1.740531   -0.348284   -0.574079
      3          6           0        0.237971   -0.118651   -0.195055
      4          6           0       -0.772443   -1.157792   -0.068145
      5          8           0       -1.940595   -0.923931    0.112764
      6          7           0       -0.551072    2.159576    0.075100
      7          7           0       -0.158501    1.123887   -0.042897
      8          1           0       -0.369168   -2.180820   -0.158620
 ---------------------------------------------------------------------

 SCF Done:  E(RHF) =  -352.586588352     A.U. after    2 cycles

 The electronic state is 1-A.
 Alpha  occ. eigenvalues --  -20.56122 -15.73773 -15.68328 -15.61354 -11.37807
 Alpha  occ. eigenvalues --  -11.36791 -11.30759  -1.56336  -1.49970  -1.34413
 Alpha  occ. eigenvalues --   -1.21101  -0.96175  -0.82159  -0.79315  -0.78679
 Alpha  occ. eigenvalues --   -0.75932  -0.71251  -0.68271  -0.63844  -0.58715
 Alpha  occ. eigenvalues --   -0.58338  -0.54100  -0.45539  -0.37942
 Alpha virt. eigenvalues --   -0.00861   0.02207   0.04171   0.05713   0.06602
 Alpha virt. eigenvalues --    0.07738   0.08727   0.09569   0.10235   0.11052
 Alpha virt. eigenvalues --    0.11608   0.12466   0.14268   0.15098   0.15673

 Mulliken charges:
               1
     1  N    0.582087
     2  C   -0.398719
     3  C   -0.619565
     4  C    1.197725
     5  O   -1.211925
     6  N    1.060522
     7  N   -0.773973
     8  H    0.163848
 Sum of Mulliken charges =  -0.00000

 Dipole moment (field-independent basis, Debye):
    X=              0.9501    Y=              0.0341    Z=             -0.7817  Tot=              1.2308

 Test job not archived.
 1\1\GINC-SE284\SP\RHF\Aug-CC-pVDZ\C3H1N3O1\OHZDE\09-Apr-2025\0\\#t hf
 aug-cc-pvdz iop(5/13=1,5/36=2,99/5=2) pseudo=read geom=check guess=(re
 ad,tcheck) scf=(maxcycle=1)\\title\\0,1\N,0,1.8084143,-0.3323342,-0.76
 59172\C,0,1.73134048,-0.45146154,0.41012129\C,0,0.19335961,-0.19372648
 ,0.26090641\C,0,-0.45003926,1.11116565,0.24860387\O,0,-1.64613437,1.25
 728819,0.24687689\N,0,-1.29709533,-2.10636379,0.18183141\N,0,-0.588451
 54,-1.24739802,0.20809864\H,0,0.26063312,1.95516919,0.24650869\\Versio
 n=ES64L-G16RevC.01\State=1-A\HF=-352.5865884\RMSD=5.763e-02\Dipole=0.3

 Normal termination of Gaussian 16 at Wed Apr  9 03:51:30 2025.
