 Gaussian 16, Revision C.01,

 ----------------------------------------------------------------------
 #t hf aug-cc-pvdz symm=none int=(grid=ultrafine) guess=(read,tcheck) s
 table=(opt,rrhf)
 ----------------------------------------------------------------------
 -----
 title
 -----
 Symbolic Z-matrix:
 Charge =  0 Multiplicity = 1

 SCF Done:  E(RHF) =  -380.631677825     A.U. after   15 cycles
 Normal termination of Gaussian 16 at Wed Apr  9 19:02:54 2025.
 Gaussian 16:  ES64L-G16RevC.01  3-Jul-2019

 ----------------------------------------------------------------------
 #t hf aug-cc-pvdz iop(5/13=1,5/36=2,99/5=2) pseudo=read geom=check gue
 ss=(read,tcheck) scf=(maxcycle=1)
 ----------------------------------------------------------------------
 -----
 title
 -----
 Structure from the checkpoint file:  "Grambow2020_wb97xd3_008491_reverse_mol1.chk"
 Charge =  0 Multiplicity = 1

                         Standard orientation:
 ---------------------------------------------------------------------
 Center     Atomic      Atomic             Coordinates (Angstroms)
 Number     Number       Type             X           Y           Z
 ---------------------------------------------------------------------
      1          6           0       -2.877847    0.032511    0.129453
      2          8           0       -1.657968   -0.714725    0.025901
      3          6           0       -0.550744   -0.038064   -0.111230
      4          8           0       -0.530266    1.245373   -0.033905
      5          6           0        0.713430   -0.556165   -0.483780
      6          6           0        1.853543   -0.367568    0.484826
      7          8           0        2.946598    0.260231   -0.179893
      8          1           0       -2.907876    0.813345   -0.629429
      9          1           0       -3.678705   -0.686275   -0.021357
     10          1           0       -2.955683    0.483193    1.117718
     11          1           0        0.731479   -1.471402   -1.065085
     12          1           0        0.509270    0.936829   -0.644048
     13          1           0        1.525318    0.245369    1.333802
     14          1           0        2.179235   -1.337681    0.881524
     15          1           0        3.699754    0.265303    0.414442
 ---------------------------------------------------------------------

 SCF Done:  E(RHF) =  -381.018756687     A.U. after    2 cycles

 The electronic state is 1-A.
 Alpha  occ. eigenvalues --  -20.61946 -20.56411 -20.53817 -11.40988 -11.31366
 Alpha  occ. eigenvalues --  -11.29032 -11.20532  -1.57906  -1.48325  -1.43872
 Alpha  occ. eigenvalues --   -1.06191  -0.99062  -0.88320  -0.80792  -0.72636
 Alpha  occ. eigenvalues --   -0.70517  -0.69749  -0.68557  -0.63568  -0.61590
 Alpha  occ. eigenvalues --   -0.58096  -0.56088  -0.53738  -0.52113  -0.49602
 Alpha  occ. eigenvalues --   -0.48400  -0.43442  -0.32925
 Alpha virt. eigenvalues --    0.03261   0.03910   0.04420   0.05201   0.05615
 Alpha virt. eigenvalues --    0.06390   0.06843   0.08516   0.10240   0.12577
 Alpha virt. eigenvalues --    0.12932   0.13173   0.13738   0.14200   0.15009

 Mulliken charges:
               1
     1  C    0.157183
     2  O   -1.370501
     3  C    2.249814
     4  O   -1.357379
     5  C   -0.673870
     6  C    0.556003
     7  O   -1.116471
     8  H    0.178774
     9  H    0.029403
    10  H    0.152509
    11  H   -0.124782
    12  H    0.877504
    13  H    0.031102
    14  H    0.109364
    15  H    0.301349
 Sum of Mulliken charges =  -0.00000

 Dipole moment (field-independent basis, Debye):
    X=             -2.1021    Y=             -0.9358    Z=              1.7152  Tot=              2.8699

 Test job not archived.
 1\1\GINC-SE173\SP\RHF\Aug-CC-pVDZ\C4H8O3\OHZDE\09-Apr-2025\0\\#t hf au
 g-cc-pvdz iop(5/13=1,5/36=2,99/5=2) pseudo=read geom=check guess=(read
 ,tcheck) scf=(maxcycle=1)\\title\\0,1\C,0,-2.79950845,0.08911411,-0.28
 676937\O,0,-1.60415458,0.48927898,0.39747225\C,0,-0.49779908,-0.125340
 62,0.07991732\O,0,-0.44850009,-0.96801421,-0.89017538\C,0,0.72626753,-
 0.07916475,0.79047114\C,0,1.93717546,0.43562346,0.05404822\O,0,2.99006
 311,-0.52101404,0.13786869\H,0,-2.87062573,-0.99736596,-0.31853326\H,0
 ,-3.62211406,0.51546724,0.28095759\H,0,-2.79693055,0.48286025,-1.30205

 Normal termination of Gaussian 16 at Wed Apr  9 19:02:58 2025.
