 Gaussian 16, Revision C.01,

 ----------------------------------------------------------------------
 #t hf aug-cc-pvdz symm=none int=(grid=ultrafine) guess=(read,tcheck) s
 table=(opt,rrhf)
 ----------------------------------------------------------------------
 -----
 title
 -----
 Symbolic Z-matrix:
 Charge =  0 Multiplicity = 1

 SCF Done:  E(RHF) =  -322.709692783     A.U. after   14 cycles
 Normal termination of Gaussian 16 at Wed Apr  9 03:33:44 2025.
 Gaussian 16:  ES64L-G16RevC.01  3-Jul-2019

 ----------------------------------------------------------------------
 #t hf aug-cc-pvdz iop(5/13=1,5/36=2,99/5=2) pseudo=read geom=check gue
 ss=(read,tcheck) scf=(maxcycle=1)
 ----------------------------------------------------------------------
 -----
 title
 -----
 Structure from the checkpoint file:  "Grambow2020_wb97xd3_007021_reverse_mol2.chk"
 Charge =  0 Multiplicity = 1

                         Standard orientation:
 ---------------------------------------------------------------------
 Center     Atomic      Atomic             Coordinates (Angstroms)
 Number     Number       Type             X           Y           Z
 ---------------------------------------------------------------------
      1          6           0       -1.576738   -1.642148    0.519224
      2          6           0       -1.426639   -0.553676   -0.504908
      3          6           0       -1.430589    0.719656   -0.237268
      4          6           0       -1.422783    1.990617    0.039376
      5          7           0        2.032216    1.063447    0.261813
      6          6           0        2.008484   -0.113790   -0.009525
      7          8           0        1.872323   -1.231510   -0.287552
      8          1           0       -2.447255   -2.264212    0.298320
      9          1           0       -1.695337   -1.225908    1.519113
     10          1           0       -0.698779   -2.292039    0.516092
     11          1           0       -1.299057   -0.854743   -1.541712
     12          1           0       -2.338467    2.570901    0.042294
     13          1           0       -0.492768    2.496453    0.272872
     14          1           0        2.857159    1.573552    0.519349
 ---------------------------------------------------------------------

 SCF Done:  E(RHF) =  -323.039319125     A.U. after    2 cycles

 The electronic state is 1-A.
 Alpha  occ. eigenvalues --  -20.61010 -15.53206 -11.42303 -11.24926 -11.24054
 Alpha  occ. eigenvalues --  -11.23318 -11.23070  -1.56129  -1.27542  -1.08334
 Alpha  occ. eigenvalues --   -0.99608  -0.89121  -0.84974  -0.74236  -0.70243
 Alpha  occ. eigenvalues --   -0.66857  -0.66311  -0.64379  -0.60609  -0.57834
 Alpha  occ. eigenvalues --   -0.56932  -0.52824  -0.50993  -0.47736  -0.37402
 Alpha  occ. eigenvalues --   -0.36318
 Alpha virt. eigenvalues --    0.02782   0.04335   0.04433   0.05025   0.06490
 Alpha virt. eigenvalues --    0.06793   0.07214   0.09607   0.10683   0.10811
 Alpha virt. eigenvalues --    0.11821   0.12462   0.13005   0.14014   0.14354

 Mulliken charges:
               1
     1  C   -0.668529
     2  C    0.358324
     3  C   -0.073173
     4  C    0.070515
     5  N    0.688809
     6  C   -0.083409
     7  O   -0.686880
     8  H    0.181087
     9  H    0.102665
    10  H    0.201367
    11  H   -0.127158
    12  H   -0.070953
    13  H    0.003404
    14  H    0.103930
 Sum of Mulliken charges =   0.00000

 Dipole moment (field-independent basis, Debye):
    X=              1.7155    Y=              0.4258    Z=              0.5539  Tot=              1.8523

 Test job not archived.
 1\1\GINC-SE021\SP\RHF\Aug-CC-pVDZ\C5H7N1O1\OHZDE\09-Apr-2025\0\\#t hf
 aug-cc-pvdz iop(5/13=1,5/36=2,99/5=2) pseudo=read geom=check guess=(re
 ad,tcheck) scf=(maxcycle=1)\\title\\0,1\C,0,-2.00412492,0.32723078,0.2
 7310114\C,0,-0.82433994,0.85429988,-0.49270124\C,0,0.30112705,1.224747
 33,0.0449901\C,0,1.42790321,1.58133915,0.58826964\N,0,1.90743995,-1.89
 739011,-0.12910588\C,0,0.85919463,-2.20870934,-0.64324045\O,0,-0.17797
 647,-2.39681081,-1.12700937\H,0,-2.88418238,0.95300302,0.10736031\H,0,
 -1.79693231,0.30007451,1.34241559\H,0,-2.25239855,-0.68374889,-0.05774

 Normal termination of Gaussian 16 at Wed Apr  9 03:33:48 2025.
