 Gaussian 16, Revision C.01,

 ----------------------------------------------------------------------
 #t hf aug-cc-pvdz symm=none int=(grid=ultrafine) guess=(read,tcheck) s
 table=(opt,rrhf)
 ----------------------------------------------------------------------
 -----
 title
 -----
 Symbolic Z-matrix:
 Charge =  0 Multiplicity = 1

 SCF Done:  E(RHF) =  -338.643536389     A.U. after   15 cycles
 Normal termination of Gaussian 16 at Wed Apr  9 19:09:52 2025.
 Gaussian 16:  ES64L-G16RevC.01  3-Jul-2019

 ----------------------------------------------------------------------
 #t hf aug-cc-pvdz iop(5/13=1,5/36=2,99/5=2) pseudo=read geom=check gue
 ss=(read,tcheck) scf=(maxcycle=1)
 ----------------------------------------------------------------------
 -----
 title
 -----
 Structure from the checkpoint file:  "Grambow2020_wb97xd3_008812_reverse_mol1.chk"
 Charge =  0 Multiplicity = 1

                         Standard orientation:
 ---------------------------------------------------------------------
 Center     Atomic      Atomic             Coordinates (Angstroms)
 Number     Number       Type             X           Y           Z
 ---------------------------------------------------------------------
      1          7           0        1.858301   -0.951802    0.011916
      2          6           0        0.468617   -0.625396   -0.020472
      3          6           0        0.101333    0.694191   -0.019261
      4          8           0        0.869976    1.779897    0.012778
      5          7           0       -1.247656    0.800317   -0.016341
      6          6           0       -1.745537   -0.500572   -0.017140
      7          6           0       -0.689846   -1.460489   -0.106298
      8          1           0        2.121146   -1.495811   -0.799011
      9          1           0        2.081983   -1.509836    0.825164
     10          1           0        1.778246    1.440988    0.029976
     11          1           0       -1.759330    1.660414    0.066457
     12          1           0       -2.799025   -0.669368   -0.190126
     13          1           0       -1.464745   -1.251568    0.975314
 ---------------------------------------------------------------------

 SCF Done:  E(RHF) =  -338.990393967     A.U. after    2 cycles

 The electronic state is 1-A.
 Alpha  occ. eigenvalues --  -20.60094 -15.55632 -15.49363 -11.34681 -11.29976
 Alpha  occ. eigenvalues --  -11.23225 -11.21657  -1.52947  -1.31322  -1.18651
 Alpha  occ. eigenvalues --   -1.06807  -0.99684  -0.83866  -0.81300  -0.78786
 Alpha  occ. eigenvalues --   -0.70219  -0.69121  -0.66028  -0.65530  -0.61245
 Alpha  occ. eigenvalues --   -0.58378  -0.55873  -0.46052  -0.43336  -0.35229
 Alpha  occ. eigenvalues --   -0.33397
 Alpha virt. eigenvalues --    0.02894   0.03803   0.05064   0.05568   0.05865
 Alpha virt. eigenvalues --    0.06878   0.09083   0.10358   0.11070   0.12039
 Alpha virt. eigenvalues --    0.13037   0.13125   0.13973   0.14740   0.16719

 Mulliken charges:
               1
     1  N    0.552369
     2  C   -0.918373
     3  C    0.688887
     4  O   -1.524867
     5  N    0.826599
     6  C   -0.277159
     7  C   -0.674001
     8  H    0.292722
     9  H    0.303827
    10  H    0.269203
    11  H    0.009611
    12  H   -0.044132
    13  H    0.495313
 Sum of Mulliken charges =  -0.00000

 Dipole moment (field-independent basis, Debye):
    X=             -0.7075    Y=              2.2728    Z=              0.8203  Tot=              2.5178

 Test job not archived.
 1\1\GINC-SE084\SP\RHF\Aug-CC-pVDZ\C4H6N2O1\OHZDE\09-Apr-2025\0\\#t hf
 aug-cc-pvdz iop(5/13=1,5/36=2,99/5=2) pseudo=read geom=check guess=(re
 ad,tcheck) scf=(maxcycle=1)\\title\\0,1\N,0,-1.96617255,0.53226358,-0.
 02915833\C,0,-0.54646838,0.38908089,-0.08159467\C,0,-0.00938774,-0.870
 53379,-0.04805901\O,0,-0.62838172,-2.04559056,0.03369342\N,0,1.3417148
 8,-0.7995824,-0.07105356\C,0,1.66465916,0.55440372,-0.12230214\C,0,0.4
 9083951,1.36489069,-0.21787302\H,0,-2.31216513,1.01020338,-0.85043704\
 H,0,-2.24687318,1.08293222,0.77132838\H,0,-1.5728052,-1.82770782,0.060

 Normal termination of Gaussian 16 at Wed Apr  9 19:09:56 2025.
