 Gaussian 16, Revision C.01,

 ----------------------------------------------------------------------
 #t hf aug-cc-pvdz symm=none int=(grid=ultrafine) guess=(read,tcheck) s
 table=(opt,rrhf)
 ----------------------------------------------------------------------
 -----
 title
 -----
 Symbolic Z-matrix:
 Charge =  0 Multiplicity = 1

 SCF Done:  E(RHF) =  -301.485860512     A.U. after   19 cycles
 Normal termination of Gaussian 16 at Wed Apr  9 19:10:52 2025.
 Gaussian 16:  ES64L-G16RevC.01  3-Jul-2019

 ----------------------------------------------------------------------
 #t hf aug-cc-pvdz iop(5/13=1,5/36=2,99/5=2) pseudo=read geom=check gue
 ss=(read,tcheck) scf=(maxcycle=1)
 ----------------------------------------------------------------------
 -----
 title
 -----
 Structure from the checkpoint file:  "Grambow2020_wb97xd3_008857_forward_mol1.chk"
 Charge =  0 Multiplicity = 1

                         Standard orientation:
 ---------------------------------------------------------------------
 Center     Atomic      Atomic             Coordinates (Angstroms)
 Number     Number       Type             X           Y           Z
 ---------------------------------------------------------------------
      1          7           0       -2.443922   -0.341531   -0.056362
      2          6           0       -1.364294   -0.257214    0.489667
      3          6           0       -0.536431    0.788174   -0.156140
      4          6           0        1.016322    0.842197    0.457030
      5          6           0        1.380745   -0.443908    0.781586
      6          6           0        1.048014   -0.915875   -0.602304
      7          7           0        0.584012    0.472115   -0.960871
      8          1           0       -0.983609    1.751119   -0.377636
      9          1           0        1.293442    1.824269    0.813768
     10          1           0        1.996554   -0.850158    1.569047
     11          1           0       -0.804461   -0.896714    1.249563
     12          1           0        1.940601   -1.119431   -1.196138
     13          1           0        0.310716   -1.703415   -0.757000
 ---------------------------------------------------------------------

 SCF Done:  E(RHF) =  -301.790785405     A.U. after    2 cycles

 The electronic state is 1-A.
 Alpha  occ. eigenvalues --  -15.56658 -15.46982 -11.33764 -11.32644 -11.31912
 Alpha  occ. eigenvalues --  -11.31208 -11.25419  -1.36250  -1.18999  -1.07576
 Alpha  occ. eigenvalues --   -0.99440  -0.90009  -0.79563  -0.79180  -0.72162
 Alpha  occ. eigenvalues --   -0.70650  -0.66565  -0.60949  -0.58469  -0.56569
 Alpha  occ. eigenvalues --   -0.54636  -0.52093  -0.46465  -0.42491  -0.30236
 Alpha virt. eigenvalues --   -0.00344   0.02200   0.03055   0.03466   0.04834
 Alpha virt. eigenvalues --    0.05939   0.06655   0.08441   0.09059   0.10704
 Alpha virt. eigenvalues --    0.11499   0.12386   0.13063   0.13787   0.14248

 Mulliken charges:
               1
     1  N    0.686194
     2  C   -1.336711
     3  C   -0.133133
     4  C    0.157312
     5  C    0.365553
     6  C   -0.099298
     7  N    0.493861
     8  H   -0.078774
     9  H   -0.148070
    10  H   -0.157210
    11  H    0.069331
    12  H    0.044626
    13  H    0.136318
 Sum of Mulliken charges =  -0.00000

 Dipole moment (field-independent basis, Debye):
    X=              7.5740    Y=              0.5716    Z=              2.2417  Tot=              7.9194

 Test job not archived.
 1\1\GINC-SE340\SP\RHF\Aug-CC-pVDZ\C5H6N2\OHZDE\09-Apr-2025\0\\#t hf au
 g-cc-pvdz iop(5/13=1,5/36=2,99/5=2) pseudo=read geom=check guess=(read
 ,tcheck) scf=(maxcycle=1)\\title\\0,1\N,0,2.34589463,0.45870507,1.3400
 5843\C,0,1.43761759,-0.1999512,0.87956021\C,0,1.07515971,0.28891367,-0
 .47132657\C,0,-0.27061958,-0.4832114,-1.08990526\C,0,-1.11186583,-0.76
 068032,-0.0375151\C,0,-1.09870603,0.67746749,0.38695203\N,0,-0.1271873
 7,0.99244197,-0.72089565\H,0,1.86472969,0.49327762,-1.18624354\H,0,-0.
 09156712,-0.92868117,-2.05841891\H,0,-1.78583352,-1.5798129,0.16033362

 Normal termination of Gaussian 16 at Wed Apr  9 19:10:56 2025.
