 Gaussian 16, Revision C.01,

 ----------------------------------------------------------------------
 #t hf aug-cc-pvdz symm=none int=(grid=ultrafine) guess=(read,tcheck) s
 table=(opt,rrhf)
 ----------------------------------------------------------------------
 -----
 title
 -----
 Symbolic Z-matrix:
 Charge =  0 Multiplicity = 1

 SCF Done:  E(RHF) =  -318.689538340     A.U. after   17 cycles
 Normal termination of Gaussian 16 at Wed Apr  9 18:40:36 2025.
 Gaussian 16:  ES64L-G16RevC.01  3-Jul-2019

 ----------------------------------------------------------------------
 #t hf aug-cc-pvdz iop(5/13=1,5/36=2,99/5=2) pseudo=read geom=check gue
 ss=(read,tcheck) scf=(maxcycle=1)
 ----------------------------------------------------------------------
 -----
 title
 -----
 Structure from the checkpoint file:  "Grambow2020_wb97xd3_007960_reverse_mol1.chk"
 Charge =  0 Multiplicity = 1

                         Standard orientation:
 ---------------------------------------------------------------------
 Center     Atomic      Atomic             Coordinates (Angstroms)
 Number     Number       Type             X           Y           Z
 ---------------------------------------------------------------------
      1          6           0        2.634298   -0.358194    0.044326
      2          6           0        1.548678    0.663469   -0.057928
      3          6           0        0.200330    0.292813   -0.105685
      4          6           0       -0.992266    1.110096   -0.008856
      5          7           0       -2.010500    0.181163    0.024306
      6          7           0       -1.555564   -1.045870    0.005294
      7          7           0       -0.277560   -1.047047   -0.059383
      8          1           0        3.525317    0.062642    0.513479
      9          1           0        2.312883   -1.216900    0.638327
     10          1           0        2.934803   -0.753625   -0.934125
     11          1           0        0.139926    0.826596    0.990560
     12          1           0        1.783877    1.712342   -0.181083
     13          1           0       -1.140510    2.162464   -0.168936
     14          1           0       -2.997160    0.339658    0.119121
 ---------------------------------------------------------------------

 SCF Done:  E(RHF) =  -319.021316404     A.U. after    2 cycles

 The electronic state is 1-A.
 Alpha  occ. eigenvalues --  -15.62203 -15.60234 -15.53972 -11.31737 -11.29850
 Alpha  occ. eigenvalues --  -11.21336 -11.20921  -1.46130  -1.23476  -1.15791
 Alpha  occ. eigenvalues --   -1.01674  -0.93365  -0.90489  -0.85174  -0.76687
 Alpha  occ. eigenvalues --   -0.72246  -0.68081  -0.64067  -0.58607  -0.57134
 Alpha  occ. eigenvalues --   -0.54387  -0.52063  -0.51632  -0.48511  -0.47562
 Alpha  occ. eigenvalues --   -0.24063
 Alpha virt. eigenvalues --    0.02360   0.03782   0.04247   0.05005   0.05935
 Alpha virt. eigenvalues --    0.06120   0.07259   0.07699   0.09033   0.10933
 Alpha virt. eigenvalues --    0.11911   0.12664   0.13519   0.14417   0.14842

 Mulliken charges:
               1
     1  C   -0.457277
     2  C    0.560146
     3  C   -1.021034
     4  C   -0.541695
     5  N    0.453907
     6  N   -0.190642
     7  N    0.230169
     8  H    0.134646
     9  H    0.169369
    10  H    0.223581
    11  H    0.850328
    12  H   -0.231223
    13  H   -0.215393
    14  H    0.035117
 Sum of Mulliken charges =  -0.00000

 Dipole moment (field-independent basis, Debye):
    X=             -2.4126    Y=              3.9020    Z=              0.7206  Tot=              4.6439

 Test job not archived.
 1\1\GINC-SE220\SP\RHF\Aug-CC-pVDZ\C4H7N3\OHZDE\09-Apr-2025\0\\#t hf au
 g-cc-pvdz iop(5/13=1,5/36=2,99/5=2) pseudo=read geom=check guess=(read
 ,tcheck) scf=(maxcycle=1)\\title\\0,1\C,0,-2.13303443,0.6915165,0.3131
 6521\C,0,-1.06161329,0.11251807,-0.55265235\C,0,0.26469454,0.0294987,-
 0.11478868\C,0,1.39619417,-0.6588306,-0.70260191\N,0,2.38734025,-0.502
 94893,0.24299132\N,0,1.95929861,0.13781233,1.30088697\N,0,0.73041883,0
 .4647003,1.15778621\H,0,-3.11153193,0.28662187,0.04911327\H,0,-1.94950
 834,0.47196292,1.36750603\H,0,-2.19729958,1.78383392,0.23101698\H,0,0.

 Normal termination of Gaussian 16 at Wed Apr  9 18:40:41 2025.
