 Gaussian 16, Revision C.01,

 ----------------------------------------------------------------------
 #t hf aug-cc-pvdz symm=none int=(grid=ultrafine) guess=(read,tcheck) s
 table=(opt,rrhf)
 ----------------------------------------------------------------------
 -----
 title
 -----
 Symbolic Z-matrix:
 Charge =  0 Multiplicity = 1

 SCF Done:  E(RHF) =  -358.374528526     A.U. after   21 cycles
 Normal termination of Gaussian 16 at Wed Apr  9 17:39:21 2025.
 Gaussian 16:  ES64L-G16RevC.01  3-Jul-2019

 ----------------------------------------------------------------------
 #t hf aug-cc-pvdz iop(5/13=1,5/36=2,99/5=2) pseudo=read geom=check gue
 ss=(read,tcheck) scf=(maxcycle=1)
 ----------------------------------------------------------------------
 -----
 title
 -----
 Structure from the checkpoint file:  "Grambow2020_wb97xd3_006753_reverse_mol1.chk"
 Charge =  0 Multiplicity = 1

                         Standard orientation:
 ---------------------------------------------------------------------
 Center     Atomic      Atomic             Coordinates (Angstroms)
 Number     Number       Type             X           Y           Z
 ---------------------------------------------------------------------
      1          8           0        1.908515   -0.952281   -0.009327
      2          6           0        1.493168    0.163635   -0.128073
      3          6           0        0.029409    0.572626    0.069621
      4          8           0       -0.270832    1.814446    0.126992
      5          7           0       -0.914327    0.099619   -0.985694
      6          6           0       -1.382207   -1.044422   -0.259628
      7          6           0       -0.800649   -0.443898    1.002172
      8          1           0        2.138037    1.030966   -0.375799
      9          1           0       -0.789376   -1.908607   -0.599240
     10          1           0       -2.445561   -1.265672   -0.343999
     11          1           0       -1.498118    0.143693    1.586284
     12          1           0       -0.144482   -1.082676    1.586740
 ---------------------------------------------------------------------

 SCF Done:  E(RHF) =  -358.726808174     A.U. after    2 cycles

 The electronic state is 1-A.
 Alpha  occ. eigenvalues --  -20.57881 -20.51524 -15.65297 -11.36230 -11.35601
 Alpha  occ. eigenvalues --  -11.31770 -11.28187  -1.51373  -1.44527  -1.29309
 Alpha  occ. eigenvalues --   -1.00766  -0.98072  -0.89546  -0.77183  -0.71165
 Alpha  occ. eigenvalues --   -0.70591  -0.69635  -0.68158  -0.62722  -0.58500
 Alpha  occ. eigenvalues --   -0.56435  -0.54625  -0.51844  -0.47787  -0.40626
 Alpha  occ. eigenvalues --   -0.38686
 Alpha virt. eigenvalues --   -0.05694   0.02978   0.04290   0.04563   0.05007
 Alpha virt. eigenvalues --    0.06228   0.08026   0.08177   0.09735   0.11229
 Alpha virt. eigenvalues --    0.11424   0.12686   0.14555   0.14789   0.15123

 Mulliken charges:
               1
     1  O   -1.145169
     2  C    0.820911
     3  C    0.896201
     4  O   -1.647052
     5  N    0.533905
     6  C   -0.262186
     7  C    0.248864
     8  H    0.214721
     9  H    0.138265
    10  H    0.027428
    11  H    0.067127
    12  H    0.106986
 Sum of Mulliken charges =  -0.00000

 Dipole moment (field-independent basis, Debye):
    X=             -1.3340    Y=             -3.1657    Z=              0.7047  Tot=              3.5068

 Test job not archived.
 1\1\GINC-SE162\SP\RHF\Aug-CC-pVDZ\C4H5N1O2\OHZDE\09-Apr-2025\0\\#t hf
 aug-cc-pvdz iop(5/13=1,5/36=2,99/5=2) pseudo=read geom=check guess=(re
 ad,tcheck) scf=(maxcycle=1)\\title\\0,1\O,0,0.95981584,1.01562812,1.76
 492052\C,0,1.49826184,0.44198806,0.8633127\C,0,0.77050476,-0.15335921,
 -0.34700864\O,0,1.45254958,-0.55659223,-1.35088677\N,0,-0.05980733,-1.
 36081732,-0.06294729\C,0,-1.30518635,-0.65883967,0.0427379\C,0,-0.6585
 5237,0.52936303,-0.6362434\H,0,2.59610451,0.29956021,0.8005262\H,0,-1.
 47624445,-0.4614397,1.11295924\H,0,-2.17445948,-1.15404187,-0.38846038

 Normal termination of Gaussian 16 at Wed Apr  9 17:39:25 2025.
