 Gaussian 16, Revision C.01,

 ----------------------------------------------------------------------
 #t hf aug-cc-pvdz symm=none int=(grid=ultrafine) guess=(read,tcheck) s
 table=(opt,rrhf)
 ----------------------------------------------------------------------
 -----
 title
 -----
 Symbolic Z-matrix:
 Charge =  0 Multiplicity = 1

 SCF Done:  E(RHF) =  -316.520500426     A.U. after   16 cycles
 Normal termination of Gaussian 16 at Wed Apr  9 18:15:54 2025.
 Gaussian 16:  ES64L-G16RevC.01  3-Jul-2019

 ----------------------------------------------------------------------
 #t hf aug-cc-pvdz iop(5/13=1,5/36=2,99/5=2) pseudo=read geom=check gue
 ss=(read,tcheck) scf=(maxcycle=1)
 ----------------------------------------------------------------------
 -----
 title
 -----
 Structure from the checkpoint file:  "Grambow2020_wb97xd3_007262_reverse_mol2.chk"
 Charge =  0 Multiplicity = 1

                         Standard orientation:
 ---------------------------------------------------------------------
 Center     Atomic      Atomic             Coordinates (Angstroms)
 Number     Number       Type             X           Y           Z
 ---------------------------------------------------------------------
      1          7           0       -2.715852   -0.969301   -0.221333
      2          6           0       -1.746429   -0.380874   -0.050236
      3          6           0       -0.539901    0.416879    0.121509
      4          7           0        0.535051   -0.311950    0.647271
      5          6           0        1.647497   -0.307132    0.145628
      6          6           0        2.851171   -0.368963   -0.335627
      7          7           0       -0.476937    1.652899   -0.109006
      8          1           0        3.129002   -1.176185   -0.998244
      9          1           0        3.570985    0.395748   -0.080741
     10          1           0       -1.369843    2.019447   -0.427175
 ---------------------------------------------------------------------

 SCF Done:  E(RHF) =  -316.834037607     A.U. after    2 cycles

 The electronic state is 1-A.
 Alpha  occ. eigenvalues --  -15.56024 -15.54939 -15.54418 -11.39710 -11.36128
 Alpha  occ. eigenvalues --  -11.30852 -11.27287  -1.34295  -1.26836  -1.24599
 Alpha  occ. eigenvalues --   -1.07164  -0.98657  -0.84942  -0.78270  -0.71545
 Alpha  occ. eigenvalues --   -0.67175  -0.65466  -0.64179  -0.57794  -0.56048
 Alpha  occ. eigenvalues --   -0.53758  -0.52250  -0.48632  -0.40286
 Alpha virt. eigenvalues --    0.02944   0.03342   0.04250   0.04520   0.07034
 Alpha virt. eigenvalues --    0.08556   0.08678   0.09763   0.10742   0.11365
 Alpha virt. eigenvalues --    0.11908   0.12689   0.13265   0.13775   0.14208

 Mulliken charges:
               1
     1  N    0.935730
     2  C   -1.540160
     3  C   -0.651661
     4  N    0.746609
     5  C   -0.893827
     6  C    0.537666
     7  N    0.680184
     8  H   -0.000400
     9  H    0.032910
    10  H    0.152950
 Sum of Mulliken charges =  -0.00000

 Dipole moment (field-independent basis, Debye):
    X=              3.4787    Y=              0.9656    Z=             -1.0610  Tot=              3.7629

 Test job not archived.
 1\1\GINC-SE362\SP\RHF\Aug-CC-pVDZ\C4H3N3\OHZDE\09-Apr-2025\0\\#t hf au
 g-cc-pvdz iop(5/13=1,5/36=2,99/5=2) pseudo=read geom=check guess=(read
 ,tcheck) scf=(maxcycle=1)\\title\\0,1\N,0,3.14263562,-1.1665385,0.4301
 2362\C,0,2.21108979,-0.57687265,0.11418475\C,0,1.05311269,0.22841479,-
 0.2494337\N,0,-0.03244945,-0.53488698,-0.69894873\C,0,-1.16378478,-0.3
 9982989,-0.26186169\C,0,-2.38851769,-0.33016037,0.16173768\N,0,1.04035
 916,1.48714925,-0.23294701\H,0,-2.73324352,-1.0011994,0.93551394\H,0,-
 3.05884515,0.40872889,-0.25369682\H,0,1.93556632,1.86586886,0.06377695

 Normal termination of Gaussian 16 at Wed Apr  9 18:15:57 2025.
