 Gaussian 16, Revision C.01,

 ----------------------------------------------------------------------
 #t hf aug-cc-pvdz symm=none int=(grid=ultrafine) guess=(read,tcheck) s
 table=(opt,rrhf)
 ----------------------------------------------------------------------
 -----
 title
 -----
 Symbolic Z-matrix:
 Charge =  0 Multiplicity = 1

 SCF Done:  E(RHF) =  -264.899871349     A.U. after   17 cycles
 Normal termination of Gaussian 16 at Wed Apr  9 15:41:54 2025.
 Gaussian 16:  ES64L-G16RevC.01  3-Jul-2019

 ----------------------------------------------------------------------
 #t hf aug-cc-pvdz iop(5/13=1,5/36=2,99/5=2) pseudo=read geom=check gue
 ss=(read,tcheck) scf=(maxcycle=1)
 ----------------------------------------------------------------------
 -----
 title
 -----
 Structure from the checkpoint file:  "Grambow2020_b97d3_006635_forward_mol1.chk"
 Charge =  0 Multiplicity = 1

                         Standard orientation:
 ---------------------------------------------------------------------
 Center     Atomic      Atomic             Coordinates (Angstroms)
 Number     Number       Type             X           Y           Z
 ---------------------------------------------------------------------
      1          6           0        2.269207    0.150182   -0.082269
      2          6           0        1.039803   -0.711952    0.295727
      3          6           0       -0.146153   -0.197760   -0.481350
      4          7           0       -1.703478   -1.555871   -0.032190
      5          6           0       -0.700235    1.029491   -0.068287
      6          7           0       -1.158563    2.094326    0.169010
      7          1           0        2.117793    1.198216    0.206476
      8          1           0        2.456344    0.110336   -1.162492
      9          1           0        3.155292   -0.230207    0.443531
     10          1           0        1.242415   -1.755737    0.014376
     11          1           0        0.904212   -0.667441    1.390785
     12          1           0       -1.073109   -1.164692   -0.897659
     13          1           0       -1.190890   -2.015266    0.720654
     14          1           0       -2.353510   -0.864163    0.343667
 ---------------------------------------------------------------------

 SCF Done:  E(RHF) =  -265.169415437     A.U. after    2 cycles

 The electronic state is 1-A.
 Alpha  occ. eigenvalues --  -15.54612 -15.53030 -11.32002 -11.29414 -11.27661
 Alpha  occ. eigenvalues --  -11.25515  -1.22918  -1.18856  -1.09316  -0.96965
 Alpha  occ. eigenvalues --   -0.86415  -0.74408  -0.71851  -0.66602  -0.64236
 Alpha  occ. eigenvalues --   -0.61373  -0.57596  -0.54512  -0.54431  -0.52183
 Alpha  occ. eigenvalues --   -0.51364  -0.47443  -0.37636
 Alpha virt. eigenvalues --    0.01972   0.02738   0.04098   0.04237   0.04602
 Alpha virt. eigenvalues --    0.06401   0.06806   0.07193   0.07974   0.10295
 Alpha virt. eigenvalues --    0.11615   0.12449   0.13320   0.13969   0.14621

 Mulliken charges:
               1
     1  C   -0.462501
     2  C   -0.075605
     3  C   -0.283576
     4  N    0.085209
     5  C   -1.387369
     6  N    0.849316
     7  H    0.225189
     8  H    0.198642
     9  H    0.147296
    10  H    0.107481
    11  H    0.175247
    12  H    0.159577
    13  H    0.110985
    14  H    0.150111
 Sum of Mulliken charges =  -0.00000

 Dipole moment (field-independent basis, Debye):
    X=              2.5763    Y=             -3.5409    Z=              1.2296  Tot=              4.5483

 Test job not archived.
 1\1\GINC-SE120\SP\RHF\Aug-CC-pVDZ\C4H8N2\OHZDE\09-Apr-2025\0\\#t hf au
 g-cc-pvdz iop(5/13=1,5/36=2,99/5=2) pseudo=read geom=check guess=(read
 ,tcheck) scf=(maxcycle=1)\\title\\0,1\C,0,-1.96470188,0.20347903,0.010
 98963\C,0,-0.61304598,-0.52202178,-0.19940446\C,0,0.45031373,0.2509155
 4,0.53989655\N,0,2.196228,-0.92518844,0.33981337\C,0,0.85800586,1.4771
 7722,-0.02032051\N,0,1.18299798,2.5541718,-0.38734952\H,0,-1.9384354,1
 .21447611,-0.41547198\H,0,-2.20304971,0.28229884,1.07891601\H,0,-2.762
 65682,-0.36300136,-0.48768435\H,0,-0.69014462,-1.53695,0.2173366\H,0,-

 Normal termination of Gaussian 16 at Wed Apr  9 15:41:58 2025.
