 Gaussian 16, Revision C.01,

 ----------------------------------------------------------------------
 #t hf aug-cc-pvdz symm=none int=(grid=ultrafine) guess=(read,tcheck) s
 table=(opt,rrhf)
 ----------------------------------------------------------------------
 -----
 title
 -----
 Symbolic Z-matrix:
 Charge =  0 Multiplicity = 1

 SCF Done:  E(RHF) =  -271.838816029     A.U. after   14 cycles
 Normal termination of Gaussian 16 at Wed Apr  9 03:39:55 2025.
 Gaussian 16:  ES64L-G16RevC.01  3-Jul-2019

 ----------------------------------------------------------------------
 #t hf aug-cc-pvdz iop(5/13=1,5/36=2,99/5=2) pseudo=read geom=check gue
 ss=(read,tcheck) scf=(maxcycle=1)
 ----------------------------------------------------------------------
 -----
 title
 -----
 Structure from the checkpoint file:  "Grambow2020_wb97xd3_007419_forward_mol1.chk"
 Charge =  0 Multiplicity = 1

                         Standard orientation:
 ---------------------------------------------------------------------
 Center     Atomic      Atomic             Coordinates (Angstroms)
 Number     Number       Type             X           Y           Z
 ---------------------------------------------------------------------
      1          6           0       -2.464917   -0.416958   -0.485153
      2          6           0       -1.275369   -0.095151    0.413306
      3          6           0       -0.154740   -1.116156    0.333840
      4          6           0        1.368382    0.074521    0.316361
      5          6           0        2.587610   -0.431203   -0.405162
      6          6           0        0.697611    1.427942   -0.081617
      7          6           0       -0.631835    1.285909    0.043647
      8          1           0       -2.142909   -0.519782   -1.524619
      9          1           0       -2.961759   -1.342793   -0.187373
     10          1           0       -3.202648    0.387147   -0.446714
     11          1           0       -1.618883   -0.021159    1.450767
     12          1           0        0.075747   -1.668690    1.235338
     13          1           0       -0.183472   -1.775205   -0.534971
     14          1           0        1.438762    0.077891    1.396311
     15          1           0        2.424740   -0.450736   -1.483348
     16          1           0        2.870442   -1.429673   -0.068688
     17          1           0        3.416540    0.249602   -0.209781
     18          1           0        0.449027    0.004720   -0.381820
     19          1           0       -1.326037    2.115259   -0.056432
 ---------------------------------------------------------------------

 SCF Done:  E(RHF) =  -272.135549331     A.U. after    2 cycles

 The electronic state is 1-A.
 Alpha  occ. eigenvalues --  -11.29844 -11.28762 -11.25282 -11.24492 -11.23245
 Alpha  occ. eigenvalues --  -11.21690 -11.19647  -1.17937  -1.05765  -0.98959
 Alpha  occ. eigenvalues --   -0.95212  -0.87449  -0.79037  -0.73697  -0.68594
 Alpha  occ. eigenvalues --   -0.63848  -0.62946  -0.59333  -0.57624  -0.55946
 Alpha  occ. eigenvalues --   -0.55245  -0.51866  -0.51442  -0.50036  -0.46316
 Alpha  occ. eigenvalues --   -0.33979  -0.30027
 Alpha virt. eigenvalues --    0.02499   0.03147   0.03327   0.04409   0.05490
 Alpha virt. eigenvalues --    0.05717   0.05824   0.06831   0.07041   0.08810
 Alpha virt. eigenvalues --    0.08897   0.10645   0.12042   0.12493   0.12811

 Mulliken charges:
               1
     1  C   -0.222024
     2  C   -0.878615
     3  C   -0.327231
     4  C   -1.081813
     5  C   -0.262034
     6  C   -0.796580
     7  C    0.582620
     8  H    0.240270
     9  H    0.162386
    10  H    0.130326
    11  H    0.100754
    12  H    0.009426
    13  H    0.032631
    14  H   -0.030436
    15  H    0.226563
    16  H    0.188152
    17  H    0.219143
    18  H    1.870719
    19  H   -0.164256
 Sum of Mulliken charges =  -0.00000

 Dipole moment (field-independent basis, Debye):
    X=             -0.6216    Y=             -4.5934    Z=              1.1846  Tot=              4.7842

 Test job not archived.
 1\1\GINC-SE345\SP\RHF\Aug-CC-pVDZ\C7H12\OHZDE\09-Apr-2025\0\\#t hf aug
 -cc-pvdz iop(5/13=1,5/36=2,99/5=2) pseudo=read geom=check guess=(read,
 tcheck) scf=(maxcycle=1)\\title\\0,1\C,0,-2.43259317,-0.4180963,-0.280
 36638\C,0,-1.23670244,0.46988456,0.04696953\C,0,-0.2210773,-0.18565442
 ,0.9653108\C,0,1.41234153,0.38640826,0.10356642\C,0,2.59085679,-0.5362
 622,0.25406638\C,0,0.88743002,0.80274735,-1.30753263\C,0,-0.45193499,0
 .87866972,-1.24730415\H,0,-2.09999499,-1.36028239,-0.72355349\H,0,-3.0
 2485639,-0.64774614,0.60799205\H,0,-3.08785004,0.07274415,-1.00287845\

 Normal termination of Gaussian 16 at Wed Apr  9 03:40:02 2025.
