 Gaussian 16, Revision C.01,

 ----------------------------------------------------------------------
 #t hf aug-cc-pvdz symm=none int=(grid=ultrafine) guess=(read,tcheck) s
 table=(opt,rrhf)
 ----------------------------------------------------------------------
 -----
 title
 -----
 Symbolic Z-matrix:
 Charge =  0 Multiplicity = 1

 SCF Done:  E(RHF) =  -373.261012494     A.U. after   19 cycles
 Normal termination of Gaussian 16 at Wed Apr  9 04:05:26 2025.
 Gaussian 16:  ES64L-G16RevC.01  3-Jul-2019

 ----------------------------------------------------------------------
 #t hf aug-cc-pvdz iop(5/13=1,5/36=2,99/5=2) pseudo=read geom=check gue
 ss=(read,tcheck) scf=(maxcycle=1)
 ----------------------------------------------------------------------
 -----
 title
 -----
 Structure from the checkpoint file:  "Grambow2020_wb97xd3_009228_forward_mol1.chk"
 Charge =  0 Multiplicity = 1

                         Standard orientation:
 ---------------------------------------------------------------------
 Center     Atomic      Atomic             Coordinates (Angstroms)
 Number     Number       Type             X           Y           Z
 ---------------------------------------------------------------------
      1          7           0        1.412050    1.170354    0.028415
      2          6           0        0.404484    0.412553    0.433207
      3          8           0       -0.777602    0.540723   -0.164978
      4          6           0       -1.754376   -0.373725    0.231876
      5          8           0       -2.829554   -0.333614   -0.241415
      6          6           0        1.722133   -0.341695    0.078404
      7          7           0        2.403159   -1.240005   -0.223407
      8          1           0        1.291895    1.721130   -0.833005
      9          1           0       -1.374553   -1.073247    0.988166
 ---------------------------------------------------------------------

 SCF Done:  E(RHF) =  -373.622785706     A.U. after    2 cycles

 The electronic state is 1-A.
 Alpha  occ. eigenvalues --  -20.67504 -20.60102 -15.62439 -15.51765 -11.44570
 Alpha  occ. eigenvalues --  -11.42103 -11.35575  -1.62993  -1.53856  -1.37251
 Alpha  occ. eigenvalues --   -1.22968  -0.97169  -0.94690  -0.86146  -0.76350
 Alpha  occ. eigenvalues --   -0.73340  -0.69520  -0.68251  -0.64400  -0.61344
 Alpha  occ. eigenvalues --   -0.59086  -0.54335  -0.50726  -0.49406  -0.40806
 Alpha virt. eigenvalues --    0.00479   0.02877   0.04181   0.06371   0.07716
 Alpha virt. eigenvalues --    0.08313   0.09431   0.10892   0.11218   0.11845
 Alpha virt. eigenvalues --    0.12361   0.12991   0.13401   0.15634   0.16006

 Mulliken charges:
               1
     1  N    0.558343
     2  C    0.453895
     3  O   -1.283342
     4  C    1.462258
     5  O   -0.982258
     6  C   -1.539512
     7  N    0.928402
     8  H    0.169856
     9  H    0.232358
 Sum of Mulliken charges =  -0.00000

 Dipole moment (field-independent basis, Debye):
    X=             -2.0083    Y=              3.0629    Z=              0.9316  Tot=              3.7792

 Test job not archived.
 1\1\GINC-SE403\SP\RHF\Aug-CC-pVDZ\C3H2N2O2\OHZDE\09-Apr-2025\0\\#t hf
 aug-cc-pvdz iop(5/13=1,5/36=2,99/5=2) pseudo=read geom=check guess=(re
 ad,tcheck) scf=(maxcycle=1)\\title\\0,1\N,0,-1.53075125,-0.81577023,0.
 27449183\C,0,-0.34413658,-0.26009135,0.4654738\O,0,0.67218,-0.63108183
 ,-0.30979775\C,0,1.85720485,0.08400604,-0.13046059\O,0,2.8081652,-0.17
 677301,-0.77021823\C,0,-1.53683302,0.72847675,0.28889287\N,0,-2.077677
 88,1.7351131,0.05221106\H,0,-1.66612886,-1.39980315,-0.56241493\H,0,1.
 75152253,0.8621207,0.63696393\\Version=ES64L-G16RevC.01\State=1-A\HF=-

 Normal termination of Gaussian 16 at Wed Apr  9 04:05:29 2025.
