 Gaussian 16, Revision C.01,

 ----------------------------------------------------------------------
 #t hf aug-cc-pvdz symm=none int=(grid=ultrafine) guess=(read,tcheck) s
 table=(opt,rrhf)
 ----------------------------------------------------------------------
 -----
 title
 -----
 Symbolic Z-matrix:
 Charge =  0 Multiplicity = 1

 SCF Done:  E(RHF) =  -302.161569303     A.U. after   15 cycles
 Normal termination of Gaussian 16 at Wed Apr  9 15:43:33 2025.
 Gaussian 16:  ES64L-G16RevC.01  3-Jul-2019

 ----------------------------------------------------------------------
 #t hf aug-cc-pvdz iop(5/13=1,5/36=2,99/5=2) pseudo=read geom=check gue
 ss=(read,tcheck) scf=(maxcycle=1)
 ----------------------------------------------------------------------
 -----
 title
 -----
 Structure from the checkpoint file:  "Grambow2020_b97d3_006718_reverse_mol1.chk"
 Charge =  0 Multiplicity = 1

                         Standard orientation:
 ---------------------------------------------------------------------
 Center     Atomic      Atomic             Coordinates (Angstroms)
 Number     Number       Type             X           Y           Z
 ---------------------------------------------------------------------
      1          8           0       -2.338444   -0.727677   -0.006091
      2          6           0       -1.295513   -0.102316    0.004789
      3          6           0       -0.841472    1.291113   -0.003698
      4          6           0        0.261728    0.553332    0.011362
      5          6           0        1.709590    0.276238   -0.003232
      6          8           0        2.216424   -0.828112   -0.001577
      7          1           0       -0.310968   -0.896821    0.025402
      8          1           0        2.281135    1.232932   -0.019384
 ---------------------------------------------------------------------

 SCF Done:  E(RHF) =  -302.452450816     A.U. after    2 cycles

 The electronic state is 1-A.
 Alpha  occ. eigenvalues --  -20.61840 -20.59498 -11.43965 -11.42979 -11.39304
 Alpha  occ. eigenvalues --  -11.30498  -1.53857  -1.51529  -1.24011  -1.01333
 Alpha  occ. eigenvalues --   -0.83670  -0.79646  -0.72336  -0.71399  -0.64821
 Alpha  occ. eigenvalues --   -0.63111  -0.58648  -0.52524  -0.48567  -0.46075
 Alpha  occ. eigenvalues --   -0.42034
 Alpha virt. eigenvalues --    0.00313   0.02540   0.04660   0.06694   0.07554
 Alpha virt. eigenvalues --    0.08195   0.09160   0.10104   0.10191   0.12071
 Alpha virt. eigenvalues --    0.12146   0.13417   0.14963   0.15733   0.15897

 Mulliken charges:
               1
     1  O   -1.133618
     2  C    0.778920
     3  C   -0.483312
     4  C    0.337861
     5  C    0.990997
     6  O   -1.097716
     7  H    0.361863
     8  H    0.245006
 Sum of Mulliken charges =  -0.00000

 Dipole moment (field-independent basis, Debye):
    X=              3.1656    Y=              0.8602    Z=              0.0355  Tot=              3.2806

 Test job not archived.
 1\1\GINC-SE229\SP\RHF\Aug-CC-pVDZ\C4H2O2\OHZDE\09-Apr-2025\0\\#t hf au
 g-cc-pvdz iop(5/13=1,5/36=2,99/5=2) pseudo=read geom=check guess=(read
 ,tcheck) scf=(maxcycle=1)\\title\\0,1\O,0,-2.55971842,-0.61649953,0.39
 948934\C,0,-1.50547141,-0.11925133,0.05277976\C,0,-1.0258326,1.0374913
 ,-0.70864253\C,0,0.0630664,0.38306884,-0.32442103\C,0,1.50394851,0.089
 86059,-0.21865298\O,0,1.98958098,-0.86031584,0.36255135\H,0,-0.5359937
 3,-0.81443462,0.4744743\H,0,2.09247226,0.86933658,-0.7555372\\Version=
 ES64L-G16RevC.01\State=1-A\HF=-302.4524508\RMSD=1.449e-02\Dipole=1.251

 Normal termination of Gaussian 16 at Wed Apr  9 15:43:36 2025.
