 Gaussian 16, Revision C.01,

 ----------------------------------------------------------------------
 #t hf aug-cc-pvdz symm=none int=(grid=ultrafine) guess=(read,tcheck) s
 table=(opt,rrhf)
 ----------------------------------------------------------------------
 -----
 title
 -----
 Symbolic Z-matrix:
 Charge =  0 Multiplicity = 1

 SCF Done:  E(RHF) =  -301.913447618     A.U. after   15 cycles
 Normal termination of Gaussian 16 at Wed Apr  9 03:15:01 2025.
 Gaussian 16:  ES64L-G16RevC.01  3-Jul-2019

 ----------------------------------------------------------------------
 #t hf aug-cc-pvdz iop(5/13=1,5/36=2,99/5=2) pseudo=read geom=check gue
 ss=(read,tcheck) scf=(maxcycle=1)
 ----------------------------------------------------------------------
 -----
 title
 -----
 Structure from the checkpoint file:  "Grambow2020_b97d3_006947_forward_mol1.chk"
 Charge =  0 Multiplicity = 1

                         Standard orientation:
 ---------------------------------------------------------------------
 Center     Atomic      Atomic             Coordinates (Angstroms)
 Number     Number       Type             X           Y           Z
 ---------------------------------------------------------------------
      1          6           0       -1.948281   -0.338531   -0.030868
      2          7           0       -0.184399   -1.512402   -0.141318
      3          6           0        0.695424   -0.550611    0.066030
      4          8           0        1.924072   -0.443620    0.003012
      5          7           0       -0.169463    0.629285    0.447336
      6          6           0        0.115708    1.859794   -0.282207
      7          1           0       -2.383365    0.320381    0.722214
      8          1           0       -2.381419   -1.335218    0.032037
      9          1           0       -1.963802    0.063217   -1.040382
     10          1           0        0.199192   -2.422898   -0.418460
     11          1           0       -0.117986    0.780121    1.459657
     12          1           0       -0.575858    2.650733    0.037351
     13          1           0        1.156530    2.182495   -0.122866
     14          1           0       -0.025944    1.668039   -1.353502
 ---------------------------------------------------------------------

 SCF Done:  E(RHF) =  -302.220881996     A.U. after    2 cycles

 The electronic state is 1-A.
 Alpha  occ. eigenvalues --  -20.47756 -15.53781 -15.45548 -11.36687 -11.34741
 Alpha  occ. eigenvalues --  -11.27841  -1.41756  -1.23554  -1.14097  -0.97734
 Alpha  occ. eigenvalues --   -0.94060  -0.80309  -0.70322  -0.68721  -0.64600
 Alpha  occ. eigenvalues --   -0.63408  -0.62696  -0.59545  -0.56520  -0.53247
 Alpha  occ. eigenvalues --   -0.49272  -0.45326  -0.37864  -0.37523
 Alpha virt. eigenvalues --    0.01968   0.03343   0.04030   0.04528   0.05514
 Alpha virt. eigenvalues --    0.06097   0.06368   0.07653   0.08763   0.11264
 Alpha virt. eigenvalues --    0.12208   0.13018   0.14132   0.14944   0.15904

 Mulliken charges:
               1
     1  C   -0.101983
     2  N    0.490317
     3  C   -0.183787
     4  O   -1.201635
     5  N    0.112800
     6  C   -0.423107
     7  H    0.150582
     8  H    0.102465
     9  H    0.269769
    10  H    0.031581
    11  H    0.287253
    12  H    0.122442
    13  H    0.129432
    14  H    0.213871
 Sum of Mulliken charges =  -0.00000

 Dipole moment (field-independent basis, Debye):
    X=             -5.7950    Y=              2.5583    Z=              0.4612  Tot=              6.3514

 Test job not archived.
 1\1\GINC-SE455\SP\RHF\Aug-CC-pVDZ\C3H8N2O1\OHZDE\09-Apr-2025\0\\#t hf
 aug-cc-pvdz iop(5/13=1,5/36=2,99/5=2) pseudo=read geom=check guess=(re
 ad,tcheck) scf=(maxcycle=1)\\title\\0,1\C,0,-1.16639664,0.98849946,0.6
 9389353\N,0,-1.4760853,-0.92691625,-0.16443576\C,0,-0.21187669,-1.2541
 7558,-0.35627159\O,0,0.39122462,-2.15874771,-0.94194279\N,0,0.53958623
 ,-0.15494154,0.35966587\C,0,1.59862744,0.47358019,-0.42206203\H,0,-0.6
 1691117,1.35915243,1.56065603\H,0,-2.21703367,0.84089756,0.93746056\H,
 0,-1.0230961,1.57304718,-0.21083295\H,0,-2.17296146,-1.5555506,-0.5793

 Normal termination of Gaussian 16 at Wed Apr  9 03:15:05 2025.
