 Gaussian 16, Revision C.01,

 ----------------------------------------------------------------------
 #t hf aug-cc-pvdz symm=none int=(grid=ultrafine) guess=(read,tcheck) s
 table=(opt,rrhf)
 ----------------------------------------------------------------------
 -----
 title
 -----
 Symbolic Z-matrix:
 Charge =  0 Multiplicity = 1

 SCF Done:  E(RHF) =  -304.532002990     A.U. after   14 cycles
 Normal termination of Gaussian 16 at Wed Apr  9 03:14:26 2025.
 Gaussian 16:  ES64L-G16RevC.01  3-Jul-2019

 ----------------------------------------------------------------------
 #t hf aug-cc-pvdz iop(5/13=1,5/36=2,99/5=2) pseudo=read geom=check gue
 ss=(read,tcheck) scf=(maxcycle=1)
 ----------------------------------------------------------------------
 -----
 title
 -----
 Structure from the checkpoint file:  "Grambow2020_b97d3_006920_forward_mol1.chk"
 Charge =  0 Multiplicity = 1

                         Standard orientation:
 ---------------------------------------------------------------------
 Center     Atomic      Atomic             Coordinates (Angstroms)
 Number     Number       Type             X           Y           Z
 ---------------------------------------------------------------------
      1          8           0       -1.934178   -0.355384   -0.218553
      2          6           0       -0.608932   -0.033102   -0.053455
      3          6           0       -0.035359    1.228365    0.468219
      4          6           0        1.075282    0.822309   -0.586183
      5          8           0        1.579140   -0.395707   -0.078689
      6          6           0        0.392821   -1.119463    0.311540
      7          1           0       -2.473765    0.402056    0.078825
      8          1           0       -0.573300    2.132661    0.159689
      9          1           0        0.283535    1.255444    1.515003
     10          1           0       -0.022730    0.255459   -1.273712
     11          1           0        0.359870   -1.408726    1.375566
     12          1           0        0.323816   -2.016819   -0.318160
 ---------------------------------------------------------------------

 SCF Done:  E(RHF) =  -304.839535373     A.U. after    2 cycles

 The electronic state is 1-A.
 Alpha  occ. eigenvalues --  -20.61011 -20.56680 -11.36433 -11.31956 -11.31463
 Alpha  occ. eigenvalues --  -11.25808  -1.51699  -1.48881  -1.11361  -0.98739
 Alpha  occ. eigenvalues --   -0.84986  -0.78754  -0.72251  -0.71576  -0.66197
 Alpha  occ. eigenvalues --   -0.63818  -0.57967  -0.56360  -0.55401  -0.51103
 Alpha  occ. eigenvalues --   -0.50534  -0.42113  -0.34546
 Alpha virt. eigenvalues --    0.02543   0.03892   0.04243   0.05326   0.06504
 Alpha virt. eigenvalues --    0.07153   0.08610   0.10486   0.11807   0.11914
 Alpha virt. eigenvalues --    0.13718   0.13852   0.14638   0.15121   0.15226

 Mulliken charges:
               1
     1  O   -1.403194
     2  C    0.436938
     3  C    0.026751
     4  C    0.315124
     5  O   -1.194298
     6  C    0.660975
     7  H    0.281592
     8  H    0.073228
     9  H    0.021339
    10  H    0.503219
    11  H    0.169611
    12  H    0.108715
 Sum of Mulliken charges =  -0.00000

 Dipole moment (field-independent basis, Debye):
    X=             -3.4890    Y=              0.0147    Z=              2.3255  Tot=              4.1929

 Test job not archived.
 1\1\GINC-SE208\SP\RHF\Aug-CC-pVDZ\C4H6O2\OHZDE\09-Apr-2025\0\\#t hf au
 g-cc-pvdz iop(5/13=1,5/36=2,99/5=2) pseudo=read geom=check guess=(read
 ,tcheck) scf=(maxcycle=1)\\title\\0,1\O,0,0.25330988,-1.50542757,-1.10
 27622\C,0,0.04863612,-0.36694145,-0.36157521\C,0,-1.10869718,-0.035929
 42,0.50065374\C,0,-0.72740043,1.40583069,-0.0342374\O,0,0.56903302,1.6
 1583317,0.48551911\C,0,1.23742907,0.35766617,0.25375206\H,0,-0.5090610
 5,-2.10046153,-0.96849026\H,0,-2.07666637,-0.36912706,0.10779826\H,0,-
 1.00814355,-0.18969718,1.57974044\H,0,-0.31484012,0.68803232,-1.180624

 Normal termination of Gaussian 16 at Wed Apr  9 03:14:29 2025.
