 Gaussian 16, Revision C.01,

 ----------------------------------------------------------------------
 #t hf aug-cc-pvdz symm=none int=(grid=ultrafine) guess=(read,tcheck) s
 table=(opt,rrhf)
 ----------------------------------------------------------------------
 -----
 title
 -----
 Symbolic Z-matrix:
 Charge =  0 Multiplicity = 1

 SCF Done:  E(RHF) =  -268.727330336     A.U. after   14 cycles
 Normal termination of Gaussian 16 at Wed Apr  9 16:56:12 2025.
 Gaussian 16:  ES64L-G16RevC.01  3-Jul-2019

 ----------------------------------------------------------------------
 #t hf aug-cc-pvdz iop(5/13=1,5/36=2,99/5=2) pseudo=read geom=check gue
 ss=(read,tcheck) scf=(maxcycle=1)
 ----------------------------------------------------------------------
 -----
 title
 -----
 Structure from the checkpoint file:  "Grambow2020_wb97xd3_006189_reverse_mol2.chk"
 Charge =  0 Multiplicity = 1

                         Standard orientation:
 ---------------------------------------------------------------------
 Center     Atomic      Atomic             Coordinates (Angstroms)
 Number     Number       Type             X           Y           Z
 ---------------------------------------------------------------------
      1          8           0        1.510089   -1.057062    0.075284
      2          6           0        0.433598   -0.158942   -0.004277
      3          6           0        0.756632    1.190780   -0.514449
      4          6           0        0.755974    0.953213    0.958918
      5          6           0       -2.098756    0.152509    0.032733
      6          6           0       -0.923022   -0.804675   -0.110374
      7          1           0        1.939399   -1.092557   -0.783021
      8          1           0        1.694416    1.469358   -0.985169
      9          1           0       -0.087811    1.796385   -0.837392
     10          1           0       -2.037028    0.724331    0.962135
     11          1           0       -3.038325   -0.400008    0.047567
     12          1           0       -2.152224    0.861078   -0.796900
     13          1           0       -0.962597   -1.559973    0.679141
     14          1           0       -0.983106   -1.339437   -1.063933
 ---------------------------------------------------------------------

 SCF Done:  E(RHF) =  -269.007630063     A.U. after    2 cycles

 The electronic state is 1-A.
 Alpha  occ. eigenvalues --  -20.57078 -11.30306 -11.29226 -11.25049 -11.24458
 Alpha  occ. eigenvalues --  -11.23806  -1.47804  -1.16534  -1.04555  -0.90025
 Alpha  occ. eigenvalues --   -0.82273  -0.73280  -0.69822  -0.66801  -0.62413
 Alpha  occ. eigenvalues --   -0.58109  -0.57566  -0.53727  -0.52246  -0.51511
 Alpha  occ. eigenvalues --   -0.49411  -0.41984  -0.36512
 Alpha virt. eigenvalues --    0.03052   0.03525   0.03849   0.04918   0.05834
 Alpha virt. eigenvalues --    0.06331   0.06379   0.07846   0.08714   0.09081
 Alpha virt. eigenvalues --    0.11827   0.14139   0.14284   0.14804   0.15086

 Mulliken charges:
               1
     1  O   -1.434960
     2  C    1.580962
     3  C   -0.073139
     4  C   -0.244465
     5  C   -0.332007
     6  C   -0.428269
     7  H    0.239836
     8  H   -0.110180
     9  H   -0.046516
    10  H    0.200731
    11  H    0.073558
    12  H    0.217346
    13  H    0.188764
    14  H    0.168339
 Sum of Mulliken charges =  -0.00000

 Dipole moment (field-independent basis, Debye):
    X=             -1.0561    Y=             -0.0240    Z=             -3.4824  Tot=              3.6391

 Test job not archived.
 1\1\GINC-SE173\SP\RHF\Aug-CC-pVDZ\C5H8O1\OHZDE\09-Apr-2025\0\\#t hf au
 g-cc-pvdz iop(5/13=1,5/36=2,99/5=2) pseudo=read geom=check guess=(read
 ,tcheck) scf=(maxcycle=1)\\title\\0,1\O,0,1.54868319,0.4829091,1.46764
 689\C,0,0.57823012,0.39057032,0.45696533\C,0,0.89945076,1.08173785,-0.
 81011055\C,0,0.09518396,1.79788596,0.22310564\C,0,-1.52609394,-0.78052
 042,-0.38657274\C,0,-0.33842843,-0.7995598,0.56638089\H,0,2.39068881,0
 .19479216,1.10671899\H,0,1.8734498,1.4859921,-1.06803535\H,0,0.3043327
 5,0.79774679,-1.67574184\H,0,-2.10662065,0.1396561,-0.28244877\H,0,-2.

 Normal termination of Gaussian 16 at Wed Apr  9 16:56:16 2025.
