 Gaussian 16, Revision C.01,

 ----------------------------------------------------------------------
 #t hf aug-cc-pvdz symm=none int=(grid=ultrafine) guess=(read,tcheck) s
 table=(opt,rrhf)
 ----------------------------------------------------------------------
 -----
 title
 -----
 Symbolic Z-matrix:
 Charge =  0 Multiplicity = 1

 SCF Done:  E(RHF) =  -374.477837206     A.U. after   19 cycles
 Normal termination of Gaussian 16 at Wed Apr  9 18:20:28 2025.
 Gaussian 16:  ES64L-G16RevC.01  3-Jul-2019

 ----------------------------------------------------------------------
 #t hf aug-cc-pvdz iop(5/13=1,5/36=2,99/5=2) pseudo=read geom=check gue
 ss=(read,tcheck) scf=(maxcycle=1)
 ----------------------------------------------------------------------
 -----
 title
 -----
 Structure from the checkpoint file:  "Grambow2020_wb97xd3_007342_reverse_mol1.chk"
 Charge =  0 Multiplicity = 1

                         Standard orientation:
 ---------------------------------------------------------------------
 Center     Atomic      Atomic             Coordinates (Angstroms)
 Number     Number       Type             X           Y           Z
 ---------------------------------------------------------------------
      1          7           0       -2.254321   -0.671372    0.209873
      2          6           0       -1.017001   -0.161726   -0.164915
      3          6           0       -0.688051    1.216606   -0.046291
      4          8           0        0.508512    1.526011   -0.092293
      5          6           0        1.439759   -0.296089    0.392399
      6          8           0        2.493266   -0.539253   -0.013993
      7          7           0        0.061898   -0.911644   -0.278847
      8          1           0       -2.592724   -1.432751   -0.356087
      9          1           0       -2.966229    0.030804    0.335047
     10          1           0       -1.453525    1.926617    0.296673
     11          1           0       -0.063021   -1.890360   -0.029693
 ---------------------------------------------------------------------

 SCF Done:  E(RHF) =  -374.846515597     A.U. after    2 cycles

 The electronic state is 1-A.
 Alpha  occ. eigenvalues --  -20.58134 -20.55516 -15.57471 -15.55444 -11.34601
 Alpha  occ. eigenvalues --  -11.34552 -11.34394  -1.51454  -1.49169  -1.30791
 Alpha  occ. eigenvalues --   -1.21307  -0.99442  -0.85270  -0.82168  -0.78326
 Alpha  occ. eigenvalues --   -0.74312  -0.68524  -0.66146  -0.65885  -0.63382
 Alpha  occ. eigenvalues --   -0.56356  -0.55714  -0.52577  -0.49011  -0.45476
 Alpha  occ. eigenvalues --   -0.30841
 Alpha virt. eigenvalues --    0.01242   0.01953   0.03951   0.04570   0.06110
 Alpha virt. eigenvalues --    0.09116   0.09360   0.10395   0.11185   0.11525
 Alpha virt. eigenvalues --    0.12469   0.13691   0.14285   0.14807   0.15897

 Mulliken charges:
               1
     1  N    0.577240
     2  C   -1.851148
     3  C    1.353901
     4  O   -1.144404
     5  C    0.847759
     6  O   -0.892187
     7  N    0.674656
     8  H    0.130523
     9  H    0.128523
    10  H    0.046576
    11  H    0.128562
 Sum of Mulliken charges =  -0.00000

 Dipole moment (field-independent basis, Debye):
    X=             -6.5801    Y=             -1.1471    Z=             -0.2971  Tot=              6.6860

 Test job not archived.
 1\1\GINC-SE226\SP\RHF\Aug-CC-pVDZ\C3H4N2O2\OHZDE\09-Apr-2025\0\\#t hf
 aug-cc-pvdz iop(5/13=1,5/36=2,99/5=2) pseudo=read geom=check guess=(re
 ad,tcheck) scf=(maxcycle=1)\\title\\0,1\N,0,-1.69973867,-0.45357643,0.
 12888699\C,0,-0.42148065,-0.01876162,-0.19999004\C,0,-0.00455794,1.330
 55998,-0.03390847\O,0,1.21079832,1.55962102,-0.04096679\C,0,2.00487548
 ,-0.333482,0.41488288\O,0,3.05038569,-0.63624073,0.02835254\N,0,0.6076
 2097,-0.83647127,-0.30807096\H,0,-2.07281435,-1.1749748,-0.46686889\H,
 0,-2.36629354,0.29144724,0.25607142\H,0,-0.72989911,2.08119064,0.30978

 Normal termination of Gaussian 16 at Wed Apr  9 18:20:31 2025.
