 Gaussian 16, Revision C.01,

 ----------------------------------------------------------------------
 #t hf aug-cc-pvdz symm=none int=(grid=ultrafine) guess=(read,tcheck) s
 table=(opt,rrhf)
 ----------------------------------------------------------------------
 -----
 title
 -----
 Symbolic Z-matrix:
 Charge =  0 Multiplicity = 1

 SCF Done:  E(RHF) =  -306.664435685     A.U. after   14 cycles
 Normal termination of Gaussian 16 at Wed Apr  9 19:19:02 2025.
 Gaussian 16:  ES64L-G16RevC.01  3-Jul-2019

 ----------------------------------------------------------------------
 #t hf aug-cc-pvdz iop(5/13=1,5/36=2,99/5=2) pseudo=read geom=check gue
 ss=(read,tcheck) scf=(maxcycle=1)
 ----------------------------------------------------------------------
 -----
 title
 -----
 Structure from the checkpoint file:  "Grambow2020_wb97xd3_009288_reverse_mol2.chk"
 Charge =  0 Multiplicity = 1

                         Standard orientation:
 ---------------------------------------------------------------------
 Center     Atomic      Atomic             Coordinates (Angstroms)
 Number     Number       Type             X           Y           Z
 ---------------------------------------------------------------------
      1          6           0       -2.117070    0.557656    1.096028
      2          6           0        1.440337   -0.518565   -0.006910
      3          6           0        2.834311   -0.756452    0.511190
      4          6           0        1.016063    0.647002   -0.420803
      5          8           0        0.644495    1.686029   -0.778914
      6          6           0       -2.155371   -0.418356    0.014873
      7          6           0       -2.176284   -1.216658   -0.877747
      8          1           0       -1.940995    1.558418    0.699914
      9          1           0       -1.311241    0.321708    1.792928
     10          1           0       -3.058961    0.562074    1.645739
     11          1           0        0.712751   -1.318195   -0.070077
     12          1           0        3.419798    0.162871    0.508848
     13          1           0        2.813532   -1.134888    1.535032
     14          1           0        3.361344   -1.486891   -0.105910
     15          1           0       -2.204105   -1.921092   -1.674951
 ---------------------------------------------------------------------

 SCF Done:  E(RHF) =  -306.981080382     A.U. after    2 cycles

 The electronic state is 1-A.
 Alpha  occ. eigenvalues --  -20.60222 -11.37442 -11.25874 -11.25149 -11.24695
 Alpha  occ. eigenvalues --  -11.24094 -11.23210  -1.54460  -1.08397  -1.06360
 Alpha  occ. eigenvalues --   -0.96650  -0.93535  -0.74482  -0.72727  -0.68447
 Alpha  occ. eigenvalues --   -0.63824  -0.63569  -0.62383  -0.59859  -0.59696
 Alpha  occ. eigenvalues --   -0.57963  -0.55787  -0.53347  -0.39980  -0.39835
 Alpha  occ. eigenvalues --   -0.34499
 Alpha virt. eigenvalues --    0.03348   0.03542   0.03969   0.05051   0.05584
 Alpha virt. eigenvalues --    0.06433   0.06957   0.08014   0.09375   0.10030
 Alpha virt. eigenvalues --    0.11822   0.12222   0.12798   0.13107   0.13612

 Mulliken charges:
               1
     1  C   -0.624036
     2  C    0.902302
     3  C   -0.710602
     4  C    0.241649
     5  O   -0.874455
     6  C   -0.107609
     7  C    0.492232
     8  H    0.258539
     9  H    0.233546
    10  H    0.145253
    11  H   -0.066344
    12  H    0.119587
    13  H    0.192617
    14  H    0.210391
    15  H   -0.413070
 Sum of Mulliken charges =  -0.00000

 Dipole moment (field-independent basis, Debye):
    X=              0.6820    Y=             -1.1296    Z=              1.1799  Tot=              1.7701

 Test job not archived.
 1\1\GINC-SE104\SP\RHF\Aug-CC-pVDZ\C6H8O1\OHZDE\09-Apr-2025\0\\#t hf au
 g-cc-pvdz iop(5/13=1,5/36=2,99/5=2) pseudo=read geom=check guess=(read
 ,tcheck) scf=(maxcycle=1)\\title\\0,1\C,0,0.42358817,1.46716856,-2.079
 42721\C,0,-0.39755855,-0.73547639,1.00341935\C,0,-1.2584692,-1.8838002
 2,1.45989308\C,0,-0.78330142,0.51327441,1.04447789\O,0,-1.13568556,1.6
 1811524,1.07663949\C,0,1.59125951,1.26038992,-1.23281625\C,0,2.5439372
 1,1.08931702,-0.52738671\H,0,-0.20071535,2.26671561,-1.67892259\H,0,-0
 .1778744,0.55791504,-2.12636262\H,0,0.72411085,1.73526409,-3.09292153\

 Normal termination of Gaussian 16 at Wed Apr  9 19:19:07 2025.
