 Gaussian 16, Revision C.01,

 ----------------------------------------------------------------------
 #t hf aug-cc-pvdz symm=none int=(grid=ultrafine) guess=(read,tcheck) s
 table=(opt,rrhf)
 ----------------------------------------------------------------------
 -----
 title
 -----
 Symbolic Z-matrix:
 Charge =  0 Multiplicity = 1

 SCF Done:  E(RHF) =  -358.513329105     A.U. after   15 cycles
 Normal termination of Gaussian 16 at Wed Apr  9 17:44:19 2025.
 Gaussian 16:  ES64L-G16RevC.01  3-Jul-2019

 ----------------------------------------------------------------------
 #t hf aug-cc-pvdz iop(5/13=1,5/36=2,99/5=2) pseudo=read geom=check gue
 ss=(read,tcheck) scf=(maxcycle=1)
 ----------------------------------------------------------------------
 -----
 title
 -----
 Structure from the checkpoint file:  "Grambow2020_wb97xd3_006798_reverse_mol2.chk"
 Charge =  0 Multiplicity = 1

                         Standard orientation:
 ---------------------------------------------------------------------
 Center     Atomic      Atomic             Coordinates (Angstroms)
 Number     Number       Type             X           Y           Z
 ---------------------------------------------------------------------
      1          8           0       -2.878933   -0.168616    0.354090
      2          6           0       -1.684480   -0.602562   -0.129601
      3          6           0       -0.589748    0.118709   -0.221435
      4          6           0        0.219739    1.320360   -0.037877
      5          7           0        0.745591    0.087408   -0.629780
      6          6           0        1.757356   -0.655555   -0.036867
      7          8           0        2.726491   -0.180115    0.483385
      8          1           0       -1.716681   -1.636185   -0.446957
      9          1           0       -2.802145    0.750136    0.623564
     10          1           0        0.578016    1.562800    0.958220
     11          1           0        0.123675    2.156669   -0.720975
     12          1           0        1.600331   -1.741137   -0.150509
 ---------------------------------------------------------------------

 SCF Done:  E(RHF) =  -358.874896484     A.U. after    2 cycles

 The electronic state is 1-A.
 Alpha  occ. eigenvalues --  -20.59195 -20.54634 -15.54800 -11.37554 -11.32101
 Alpha  occ. eigenvalues --  -11.30658 -11.29661  -1.50527  -1.49268  -1.33046
 Alpha  occ. eigenvalues --   -1.04555  -1.00056  -0.84903  -0.81556  -0.76813
 Alpha  occ. eigenvalues --   -0.71067  -0.68307  -0.66777  -0.60059  -0.58735
 Alpha  occ. eigenvalues --   -0.56889  -0.55635  -0.54549  -0.46584  -0.45222
 Alpha  occ. eigenvalues --   -0.35613
 Alpha virt. eigenvalues --    0.02963   0.03649   0.04690   0.05334   0.05963
 Alpha virt. eigenvalues --    0.08210   0.08737   0.09691   0.11000   0.12354
 Alpha virt. eigenvalues --    0.12850   0.13509   0.14622   0.14715   0.15055

 Mulliken charges:
               1
     1  O   -1.418828
     2  C    1.509363
     3  C   -0.633826
     4  C   -0.195200
     5  N    0.629577
     6  C    0.790567
     7  O   -1.051621
     8  H   -0.056802
     9  H    0.375264
    10  H   -0.035951
    11  H   -0.013422
    12  H    0.100879
 Sum of Mulliken charges =  -0.00000

 Dipole moment (field-independent basis, Debye):
    X=             -2.3537    Y=              0.6949    Z=              0.1181  Tot=              2.4570

 Test job not archived.
 1\1\GINC-SE135\SP\RHF\Aug-CC-pVDZ\C4H5N1O2\OHZDE\09-Apr-2025\0\\#t hf
 aug-cc-pvdz iop(5/13=1,5/36=2,99/5=2) pseudo=read geom=check guess=(re
 ad,tcheck) scf=(maxcycle=1)\\title\\0,1\O,0,2.73527659,0.31073613,-0.1
 9927577\C,0,1.62932494,-0.41125302,0.12412127\C,0,0.4127639,0.0695927,
 0.25009697\C,0,-0.60636202,1.11451131,0.20054093\N,0,-0.90634613,-0.27
 587061,0.55251897\C,0,-1.73047306,-1.08274193,-0.22012804\O,0,-2.75190
 554,-0.71406595,-0.72676584\H,0,1.84863896,-1.45947532,0.27663397\H,0,
 2.49262012,1.2314524,-0.32583801\H,0,-0.96491156,1.45021651,-0.7680112

 Normal termination of Gaussian 16 at Wed Apr  9 17:44:24 2025.
