 Gaussian 16, Revision C.01,

 ----------------------------------------------------------------------
 #t hf aug-cc-pvdz symm=none int=(grid=ultrafine) guess=(read,tcheck) s
 table=(opt,rrhf)
 ----------------------------------------------------------------------
 -----
 title
 -----
 Symbolic Z-matrix:
 Charge =  0 Multiplicity = 1

 SCF Done:  E(RHF) =  -305.731177581     A.U. after   14 cycles
 Normal termination of Gaussian 16 at Wed Apr  9 17:00:10 2025.
 Gaussian 16:  ES64L-G16RevC.01  3-Jul-2019

 ----------------------------------------------------------------------
 #t hf aug-cc-pvdz iop(5/13=1,5/36=2,99/5=2) pseudo=read geom=check gue
 ss=(read,tcheck) scf=(maxcycle=1)
 ----------------------------------------------------------------------
 -----
 title
 -----
 Structure from the checkpoint file:  "Grambow2020_wb97xd3_006219_reverse_mol1.chk"
 Charge =  0 Multiplicity = 1

                         Standard orientation:
 ---------------------------------------------------------------------
 Center     Atomic      Atomic             Coordinates (Angstroms)
 Number     Number       Type             X           Y           Z
 ---------------------------------------------------------------------
      1          6           0       -2.211438    0.282999    0.160877
      2          8           0       -1.009276   -0.153926   -0.456993
      3          6           0       -0.226066   -0.923043    0.364023
      4          6           0        1.123903   -1.088573   -0.321740
      5          6           0        1.353036    0.160893    0.445970
      6          8           0        1.214255    1.370435   -0.182903
      7          1           0       -2.001903    1.074336    0.886910
      8          1           0       -2.695134   -0.551850    0.669460
      9          1           0       -2.852648    0.672600   -0.628166
     10          1           0        0.311976   -0.078284    1.245840
     11          1           0        1.119364   -0.966303   -1.400937
     12          1           0        1.684975   -1.960568   -0.003497
     13          1           0        2.109373    0.186290    1.224019
     14          1           0        0.447563    1.298056   -0.769243
 ---------------------------------------------------------------------

 SCF Done:  E(RHF) =  -306.048084985     A.U. after    2 cycles

 The electronic state is 1-A.
 Alpha  occ. eigenvalues --  -20.57486 -20.57056 -11.33383 -11.29757 -11.28902
 Alpha  occ. eigenvalues --  -11.24212  -1.50847  -1.47974  -1.11521  -0.95417
 Alpha  occ. eigenvalues --   -0.86425  -0.81309  -0.72837  -0.68980  -0.64938
 Alpha  occ. eigenvalues --   -0.63851  -0.62922  -0.58780  -0.55321  -0.53414
 Alpha  occ. eigenvalues --   -0.50425  -0.48384  -0.44419  -0.32426
 Alpha virt. eigenvalues --    0.03742   0.03958   0.04402   0.04813   0.06324
 Alpha virt. eigenvalues --    0.06532   0.07583   0.08235   0.10461   0.11947
 Alpha virt. eigenvalues --    0.13068   0.14061   0.14266   0.15132   0.15483

 Mulliken charges:
               1
     1  C    0.229995
     2  O   -1.208089
     3  C    0.222758
     4  C   -0.094781
     5  C    0.988695
     6  O   -1.297212
     7  H    0.132650
     8  H    0.205025
     9  H    0.018084
    10  H    0.467306
    11  H   -0.004582
    12  H    0.009975
    13  H   -0.005463
    14  H    0.335637
 Sum of Mulliken charges =  -0.00000

 Dipole moment (field-independent basis, Debye):
    X=             -0.1984    Y=              0.3488    Z=             -0.1880  Tot=              0.4431

 Test job not archived.
 1\1\GINC-SE219\SP\RHF\Aug-CC-pVDZ\C4H8O2\OHZDE\09-Apr-2025\0\\#t hf au
 g-cc-pvdz iop(5/13=1,5/36=2,99/5=2) pseudo=read geom=check guess=(read
 ,tcheck) scf=(maxcycle=1)\\title\\0,1\C,0,1.6563751,-0.44369325,-1.239
 1326\O,0,1.02155031,0.14628058,-0.11361513\C,0,0.17854073,-0.71103361,
 0.54469537\C,0,-0.62144199,0.11657259,1.54228438\C,0,-1.48529002,0.218
 9232,0.33964771\O,0,-1.39261837,1.32684795,-0.46138189\H,0,0.9457193,-
 0.55482692,-2.06366911\H,0,2.05354979,-1.42400624,-0.97299473\H,0,2.46
 106368,0.22565849,-1.53908537\H,0,-0.89687182,-0.8313239,-0.23615465\H

 Normal termination of Gaussian 16 at Wed Apr  9 17:00:14 2025.
