 Gaussian 16, Revision C.01,

 ----------------------------------------------------------------------
 #t hf aug-cc-pvdz symm=none int=(grid=ultrafine) guess=(read,tcheck) s
 table=(opt,rrhf)
 ----------------------------------------------------------------------
 -----
 title
 -----
 Symbolic Z-matrix:
 Charge =  0 Multiplicity = 1

 SCF Done:  E(RHF) =  -302.794680321     A.U. after   15 cycles
 Normal termination of Gaussian 16 at Wed Apr  9 19:13:05 2025.
 Gaussian 16:  ES64L-G16RevC.01  3-Jul-2019

 ----------------------------------------------------------------------
 #t hf aug-cc-pvdz iop(5/13=1,5/36=2,99/5=2) pseudo=read geom=check gue
 ss=(read,tcheck) scf=(maxcycle=1)
 ----------------------------------------------------------------------
 -----
 title
 -----
 Structure from the checkpoint file:  "Grambow2020_wb97xd3_008902_reverse_mol2.chk"
 Charge =  0 Multiplicity = 1

                         Standard orientation:
 ---------------------------------------------------------------------
 Center     Atomic      Atomic             Coordinates (Angstroms)
 Number     Number       Type             X           Y           Z
 ---------------------------------------------------------------------
      1          6           0        0.619391    1.812335    0.369020
      2          7           0        0.009893    0.703660   -0.388592
      3          6           0       -1.536961    0.734671   -0.275219
      4          6           0       -1.781687   -0.545764    0.090162
      5          6           0       -0.582211   -1.361541    0.263873
      6          6           0        0.496527   -0.630534   -0.015531
      7          7           0        1.864818   -0.892139   -0.171312
      8          1           0        1.699568    1.820102    0.221254
      9          1           0        0.174545    2.741927    0.023714
     10          1           0        0.376123    1.671454    1.420478
     11          1           0        0.194245    0.848332   -1.380830
     12          1           0       -2.779708   -0.926621    0.259981
     13          1           0       -0.551644   -2.399900    0.568020
     14          1           0        2.427208   -0.638214    0.629627
     15          1           0        2.046331   -1.852734   -0.416750
 ---------------------------------------------------------------------

 SCF Done:  E(RHF) =  -303.114197336     A.U. after    2 cycles

 The electronic state is 1-A.
 Alpha  occ. eigenvalues --  -15.59369 -15.52570 -11.29623 -11.28852 -11.24589
 Alpha  occ. eigenvalues --  -11.20469 -11.19493  -1.31817  -1.20981  -1.08516
 Alpha  occ. eigenvalues --   -0.95884  -0.95458  -0.81936  -0.78426  -0.75201
 Alpha  occ. eigenvalues --   -0.71317  -0.70567  -0.62709  -0.61130  -0.58513
 Alpha  occ. eigenvalues --   -0.56053  -0.53147  -0.50242  -0.43151  -0.33583
 Alpha  occ. eigenvalues --   -0.29945
 Alpha virt. eigenvalues --    0.02216   0.03910   0.04316   0.04703   0.05562
 Alpha virt. eigenvalues --    0.05614   0.06132   0.07289   0.10074   0.10998
 Alpha virt. eigenvalues --    0.11784   0.12287   0.13696   0.13899   0.14717

 Mulliken charges:
               1
     1  C   -0.297287
     2  N    0.695527
     3  C   -0.840716
     4  C    0.284471
     5  C    0.708562
     6  C   -2.394258
     7  N    0.779835
     8  H    0.095618
     9  H    0.085796
    10  H    0.266066
    11  H    0.476792
    12  H   -0.143064
    13  H   -0.196879
    14  H    0.302757
    15  H    0.176780
 Sum of Mulliken charges =  -0.00000

 Dipole moment (field-independent basis, Debye):
    X=              5.0485    Y=             -1.7410    Z=              0.9446  Tot=              5.4232

 Test job not archived.
 1\1\GINC-SE054\SP\RHF\Aug-CC-pVDZ\C5H8N2\OHZDE\09-Apr-2025\0\\#t hf au
 g-cc-pvdz iop(5/13=1,5/36=2,99/5=2) pseudo=read geom=check guess=(read
 ,tcheck) scf=(maxcycle=1)\\title\\0,1\C,0,-1.07049377,-1.28576411,0.71
 252264\N,0,-0.06374436,-0.7534403,-0.22433966\C,0,1.36036012,-1.240823
 16,0.1511053\C,0,2.0283174,-0.0632497,0.15898939\C,0,1.19411693,1.1034
 5435,-0.11908144\C,0,-0.05838035,0.70970106,-0.34782081\N,0,-1.2310397
 6,1.32966543,-0.80107685\H,0,-2.07181579,-0.99443193,0.39447097\H,0,-0
 .97105567,-2.36781156,0.73598839\H,0,-0.84994501,-0.88749229,1.7011210

 Normal termination of Gaussian 16 at Wed Apr  9 19:13:11 2025.
