 Gaussian 16, Revision C.01,

 ----------------------------------------------------------------------
 #t hf aug-cc-pvdz symm=none int=(grid=ultrafine) guess=(read,tcheck) s
 table=(opt,rrhf)
 ----------------------------------------------------------------------
 -----
 title
 -----
 Symbolic Z-matrix:
 Charge =  0 Multiplicity = 1

 SCF Done:  E(RHF) =  -191.964875266     A.U. after   13 cycles
 Normal termination of Gaussian 16 at Wed Apr  9 15:49:33 2025.
 Gaussian 16:  ES64L-G16RevC.01  3-Jul-2019

 ----------------------------------------------------------------------
 #t hf aug-cc-pvdz iop(5/13=1,5/36=2,99/5=2) pseudo=read geom=check gue
 ss=(read,tcheck) scf=(maxcycle=1)
 ----------------------------------------------------------------------
 -----
 title
 -----
 Structure from the checkpoint file:  "Grambow2020_b97d3_006805_reverse_mol2.chk"
 Charge =  0 Multiplicity = 1

                         Standard orientation:
 ---------------------------------------------------------------------
 Center     Atomic      Atomic             Coordinates (Angstroms)
 Number     Number       Type             X           Y           Z
 ---------------------------------------------------------------------
      1          6           0       -1.403877   -0.242860    0.000386
      2          6           0        0.084769   -0.044992   -0.001217
      3          8           0        0.398502    1.294130   -0.000768
      4          6           0        0.995242   -1.038396   -0.000678
      5          1           0       -1.855785    0.241183   -0.877640
      6          1           0       -1.656221   -1.308682   -0.012766
      7          1           0       -1.850650    0.217453    0.893872
      8          1           0        2.069097   -0.844069    0.000864
      9          1           0        1.371786    1.375984    0.008070
     10          1           0        0.676951   -2.077420    0.002802
 ---------------------------------------------------------------------

 SCF Done:  E(RHF) =  -192.166938388     A.U. after    2 cycles

 The electronic state is 1-A.
 Alpha  occ. eigenvalues --  -20.57928 -11.31361 -11.24032 -11.22133  -1.48516
 Alpha  occ. eigenvalues --   -1.05437  -0.94871  -0.78922  -0.68543  -0.64650
 Alpha  occ. eigenvalues --   -0.60623  -0.55618  -0.54182  -0.53284  -0.52960
 Alpha  occ. eigenvalues --   -0.34445
 Alpha virt. eigenvalues --    0.03570   0.04214   0.04711   0.05817   0.06568
 Alpha virt. eigenvalues --    0.07320   0.11456   0.11664   0.14066   0.14368
 Alpha virt. eigenvalues --    0.15322   0.15804   0.17108   0.17598   0.18430

 Mulliken charges:
               1
     1  C   -0.449308
     2  C    1.473543
     3  O   -1.531065
     4  C   -0.218939
     5  H    0.224298
     6  H    0.143462
     7  H    0.227789
     8  H   -0.176393
     9  H    0.391166
    10  H   -0.084553
 Sum of Mulliken charges =  -0.00000

 Dipole moment (field-independent basis, Debye):
    X=              0.4522    Y=             -0.3432    Z=              0.0197  Tot=              0.5680

 Test job not archived.
 1\1\GINC-SE220\SP\RHF\Aug-CC-pVDZ\C3H6O1\OHZDE\09-Apr-2025\0\\#t hf au
 g-cc-pvdz iop(5/13=1,5/36=2,99/5=2) pseudo=read geom=check guess=(read
 ,tcheck) scf=(maxcycle=1)\\title\\0,1\C,0,-1.19828757,-0.10394788,0.47
 838419\C,0,0.16477292,0.22721685,-0.05791751\O,0,0.37622319,1.58619689
 ,-0.0462466\C,0,1.06438785,-0.67773559,-0.49100857\H,0,-1.97628976,0.3
 9457931,-0.11796354\H,0,-1.37386158,-1.18496357,0.45826389\H,0,-1.3000
 761,0.2537405,1.51352153\H,0,2.04564338,-0.38775837,-0.87045582\H,0,1.
 27392439,1.75484388,-0.39229537\H,0,0.83260727,-1.73918401,-0.4686822\

 Normal termination of Gaussian 16 at Wed Apr  9 15:49:36 2025.
