 Gaussian 16, Revision C.01,

 ----------------------------------------------------------------------
 #t hf aug-cc-pvdz symm=none int=(grid=ultrafine) guess=(read,tcheck) s
 table=(opt,rrhf)
 ----------------------------------------------------------------------
 -----
 title
 -----
 Symbolic Z-matrix:
 Charge =  0 Multiplicity = 1

 SCF Done:  E(RHF) =  -359.691905080     A.U. after   14 cycles
 Normal termination of Gaussian 16 at Wed Apr  9 18:18:13 2025.
 Gaussian 16:  ES64L-G16RevC.01  3-Jul-2019

 ----------------------------------------------------------------------
 #t hf aug-cc-pvdz iop(5/13=1,5/36=2,99/5=2) pseudo=read geom=check gue
 ss=(read,tcheck) scf=(maxcycle=1)
 ----------------------------------------------------------------------
 -----
 title
 -----
 Structure from the checkpoint file:  "Grambow2020_wb97xd3_007286_reverse_mol2.chk"
 Charge =  0 Multiplicity = 1

                         Standard orientation:
 ---------------------------------------------------------------------
 Center     Atomic      Atomic             Coordinates (Angstroms)
 Number     Number       Type             X           Y           Z
 ---------------------------------------------------------------------
      1          8           0        3.144779   -0.291532   -0.405949
      2          6           0       -0.166911   -0.754409    0.234340
      3          6           0        0.422091    0.120528    1.278134
      4          7           0        0.458905    0.581112   -0.094647
      5          6           0       -0.888680    1.165615   -0.365443
      6          6           0       -1.513334   -0.215751   -0.134082
      7          8           0       -2.579536   -0.698435   -0.351623
      8          1           0        3.535745   -0.451309   -1.264697
      9          1           0        0.271624   -1.702564   -0.046294
     10          1           0       -0.223412    0.633682    1.983465
     11          1           0        1.387628   -0.187631    1.659641
     12          1           0        2.328892    0.206325   -0.571329
     13          1           0       -0.986530    1.468163   -1.408003
     14          1           0       -1.167215    1.989379    0.292640
 ---------------------------------------------------------------------

 SCF Done:  E(RHF) =  -360.061183412     A.U. after    2 cycles

 The electronic state is 1-A.
 Alpha  occ. eigenvalues --  -20.55902 -20.53614 -15.54436 -11.36122 -11.29965
 Alpha  occ. eigenvalues --  -11.29747 -11.29597  -1.49907  -1.41990  -1.34387
 Alpha  occ. eigenvalues --   -1.03729  -0.95578  -0.87813  -0.77499  -0.72409
 Alpha  occ. eigenvalues --   -0.70402  -0.68721  -0.67640  -0.61226  -0.59839
 Alpha  occ. eigenvalues --   -0.56586  -0.56126  -0.52900  -0.51006  -0.48003
 Alpha  occ. eigenvalues --   -0.45468  -0.41603
 Alpha virt. eigenvalues --    0.03347   0.03916   0.04434   0.05249   0.05441
 Alpha virt. eigenvalues --    0.06277   0.07582   0.09266   0.09481   0.11624
 Alpha virt. eigenvalues --    0.12046   0.13128   0.13823   0.14471   0.14934

 Mulliken charges:
               1
     1  O   -0.877044
     2  C    0.027893
     3  C    0.047689
     4  N    0.463536
     5  C   -0.385714
     6  C    1.190553
     7  O   -1.206565
     8  H    0.332712
     9  H   -0.161176
    10  H   -0.111029
    11  H   -0.060033
    12  H    0.639656
    13  H    0.062147
    14  H    0.037374
 Sum of Mulliken charges =   0.00000

 Dipole moment (field-independent basis, Debye):
    X=              0.2877    Y=              1.2527    Z=              0.1779  Tot=              1.2976

 Test job not archived.
 1\1\GINC-SE035\SP\RHF\Aug-CC-pVDZ\C4H7N1O2\OHZDE\09-Apr-2025\0\\#t hf
 aug-cc-pvdz iop(5/13=1,5/36=2,99/5=2) pseudo=read geom=check guess=(re
 ad,tcheck) scf=(maxcycle=1)\\title\\0,1\O,0,2.27096892,0.91573821,-1.8
 8538308\C,0,0.38899511,-0.25409323,0.69941629\C,0,-0.09424923,1.092051
 71,0.30405055\N,0,-0.14772813,0.03382012,-0.68352579\C,0,-1.38771939,-
 0.74276166,-0.38302187\C,0,-0.79697324,-1.12198263,0.98046756\O,0,-1.0
 7094358,-1.92362845,1.81676759\H,0,2.80597841,0.34672606,-2.43839407\H
 ,0,1.43088895,-0.46252556,0.90209553\H,0,-1.02516639,1.47491721,0.7093

 Normal termination of Gaussian 16 at Wed Apr  9 18:18:17 2025.
