 Gaussian 16, Revision C.01,

 ----------------------------------------------------------------------
 #t hf aug-cc-pvdz symm=none int=(grid=ultrafine) guess=(read,tcheck) s
 table=(opt,rrhf)
 ----------------------------------------------------------------------
 -----
 title
 -----
 Symbolic Z-matrix:
 Charge =  0 Multiplicity = 1

 SCF Done:  E(RHF) =  -339.784418850     A.U. after   15 cycles
 Normal termination of Gaussian 16 at Wed Apr  9 17:15:33 2025.
 Gaussian 16:  ES64L-G16RevC.01  3-Jul-2019

 ----------------------------------------------------------------------
 #t hf aug-cc-pvdz iop(5/13=1,5/36=2,99/5=2) pseudo=read geom=check gue
 ss=(read,tcheck) scf=(maxcycle=1)
 ----------------------------------------------------------------------
 -----
 title
 -----
 Structure from the checkpoint file:  "Grambow2020_wb97xd3_006542_reverse_mol1.chk"
 Charge =  0 Multiplicity = 1

                         Standard orientation:
 ---------------------------------------------------------------------
 Center     Atomic      Atomic             Coordinates (Angstroms)
 Number     Number       Type             X           Y           Z
 ---------------------------------------------------------------------
      1          6           0        1.451312   -1.697937   -0.374930
      2          7           0        0.609234   -1.069290    0.631400
      3          6           0       -0.053807    0.130813    0.187993
      4          6           0       -1.400811    0.342197    0.677394
      5          8           0       -2.220601   -0.184687   -0.667686
      6          6           0        0.751115    1.291148   -0.057778
      7          7           0        1.433219    2.194032   -0.281365
      8          1           0        2.219627   -1.030007   -0.786405
      9          1           0        1.947767   -2.565912    0.061880
     10          1           0        0.830465   -2.044314   -1.204377
     11          1           0        1.162755   -0.891263    1.460819
     12          1           0       -1.116513   -0.221739   -0.931105
     13          1           0       -1.759376    1.362052    0.755406
     14          1           0       -1.757143   -0.317656    1.463281
     15          1           0       -2.546800   -1.084180   -0.524341
 ---------------------------------------------------------------------

 SCF Done:  E(RHF) =  -340.134627207     A.U. after    2 cycles

 The electronic state is 1-A.
 Alpha  occ. eigenvalues --  -20.63392 -15.50102 -15.47953 -11.35118 -11.25714
 Alpha  occ. eigenvalues --  -11.25597 -11.25557  -1.52005  -1.22730  -1.19761
 Alpha  occ. eigenvalues --   -1.06132  -0.92678  -0.87609  -0.79361  -0.75570
 Alpha  occ. eigenvalues --   -0.69278  -0.65111  -0.64131  -0.60483  -0.59331
 Alpha  occ. eigenvalues --   -0.57617  -0.56628  -0.53904  -0.51288  -0.47839
 Alpha  occ. eigenvalues --   -0.42943  -0.34154
 Alpha virt. eigenvalues --    0.02188   0.03477   0.04024   0.04746   0.05744
 Alpha virt. eigenvalues --    0.05941   0.07050   0.08354   0.09878   0.10906
 Alpha virt. eigenvalues --    0.11942   0.12340   0.13713   0.13970   0.14911

 Mulliken charges:
               1
     1  C   -0.271200
     2  N    0.423753
     3  C   -0.732803
     4  C    0.621023
     5  O   -1.036075
     6  C   -1.876440
     7  N    0.962889
     8  H    0.174822
     9  H    0.054486
    10  H    0.110226
    11  H    0.240644
    12  H    0.918955
    13  H   -0.041769
    14  H    0.058603
    15  H    0.392885
 Sum of Mulliken charges =   0.00000

 Dipole moment (field-independent basis, Debye):
    X=             -4.6583    Y=             -4.7515    Z=              1.5464  Tot=              6.8313

 Test job not archived.
 1\1\GINC-SE162\SP\RHF\Aug-CC-pVDZ\C4H8N2O1\OHZDE\09-Apr-2025\0\\#t hf
 aug-cc-pvdz iop(5/13=1,5/36=2,99/5=2) pseudo=read geom=check guess=(re
 ad,tcheck) scf=(maxcycle=1)\\title\\0,1\C,0,-1.73781422,0.6020834,0.88
 817755\N,0,-0.55138665,-0.23205079,1.00481134\C,0,0.16724743,-0.421405
 19,-0.22976989\C,0,1.61225113,-0.46249854,-0.13547644\O,0,1.91906497,1
 .1001049,-0.60774626\C,0,-0.45225707,-1.21104763,-1.25317464\N,0,-0.99
 591398,-1.8203437,-2.06782262\H,0,-2.45706889,0.24312242,0.14013276\H,
 0,-2.24137906,0.6493855,1.85504614\H,0,-1.44361233,1.61649759,0.609214

 Normal termination of Gaussian 16 at Wed Apr  9 17:15:38 2025.
