 Gaussian 16, Revision C.01,

 ----------------------------------------------------------------------
 #t hf aug-cc-pvdz symm=none int=(grid=ultrafine) guess=(read,tcheck) s
 table=(opt,rrhf)
 ----------------------------------------------------------------------
 -----
 title
 -----
 Symbolic Z-matrix:
 Charge =  0 Multiplicity = 1

 SCF Done:  E(RHF) =  -231.652549621     A.U. after   15 cycles
 Normal termination of Gaussian 16 at Wed Apr  9 15:51:54 2025.
 Gaussian 16:  ES64L-G16RevC.01  3-Jul-2019

 ----------------------------------------------------------------------
 #t hf aug-cc-pvdz iop(5/13=1,5/36=2,99/5=2) pseudo=read geom=check gue
 ss=(read,tcheck) scf=(maxcycle=1)
 ----------------------------------------------------------------------
 -----
 title
 -----
 Structure from the checkpoint file:  "Grambow2020_b97d3_006873_forward_mol1.chk"
 Charge =  0 Multiplicity = 1

                         Standard orientation:
 ---------------------------------------------------------------------
 Center     Atomic      Atomic             Coordinates (Angstroms)
 Number     Number       Type             X           Y           Z
 ---------------------------------------------------------------------
      1          6           0        1.264415   -0.242065   -0.638507
      2          6           0        0.372497    0.989042   -0.456295
      3          6           0       -1.049349    0.541504   -0.095618
      4          6           0       -1.537402   -0.872959   -0.306406
      5          6           0        0.612776   -0.857190    0.628512
      6          6           0        0.010559    0.537756    0.961601
      7          1           0        2.311100    0.009817   -0.417583
      8          1           0        1.220542   -0.810289   -1.578737
      9          1           0        0.591811    1.999667   -0.798341
     10          1           0       -1.820005    1.316237   -0.092800
     11          1           0       -0.326102   -1.548839    0.443230
     12          1           0       -1.275965   -1.184174   -1.348912
     13          1           0        1.231781   -1.432966    1.325938
     14          1           0        0.025864    1.074022    1.907483
 ---------------------------------------------------------------------

 SCF Done:  E(RHF) =  -231.897667226     A.U. after    2 cycles

 The electronic state is 1-A.
 Alpha  occ. eigenvalues --  -11.27453 -11.26684 -11.24895 -11.24774 -11.24635
 Alpha  occ. eigenvalues --  -11.24435  -1.21621  -0.99525  -0.93603  -0.88769
 Alpha  occ. eigenvalues --   -0.74783  -0.73397  -0.70716  -0.63267  -0.59689
 Alpha  occ. eigenvalues --   -0.56996  -0.53349  -0.48959  -0.47990  -0.44177
 Alpha  occ. eigenvalues --   -0.39345  -0.33773
 Alpha virt. eigenvalues --    0.03210   0.03483   0.03751   0.04332   0.05811
 Alpha virt. eigenvalues --    0.06040   0.06590   0.07763   0.08379   0.11513
 Alpha virt. eigenvalues --    0.12003   0.12758   0.13152   0.13679   0.14563

 Mulliken charges:
               1
     1  C   -0.154778
     2  C    0.440608
     3  C    0.326845
     4  C   -0.759957
     5  C   -0.203177
     6  C    0.209561
     7  H    0.141911
     8  H    0.016457
     9  H   -0.207913
    10  H   -0.113243
    11  H    0.425858
    12  H    0.195113
    13  H   -0.084802
    14  H   -0.232483
 Sum of Mulliken charges =   0.00000

 Dipole moment (field-independent basis, Debye):
    X=              1.9559    Y=              1.2281    Z=             -0.4047  Tot=              2.3447

 Test job not archived.
 1\1\GINC-SE219\SP\RHF\Aug-CC-pVDZ\C6H8\OHZDE\09-Apr-2025\0\\#t hf aug-
 cc-pvdz iop(5/13=1,5/36=2,99/5=2) pseudo=read geom=check guess=(read,t
 check) scf=(maxcycle=1)\\title\\0,1\C,0,-1.1055734,-0.33137222,0.65667
 887\C,0,-0.41404833,1.00269621,0.36274316\C,0,1.05212973,0.74788337,-0
 .0079546\C,0,1.75271634,-0.55823637,0.28625861\C,0,-0.39227605,-0.9332
 3073,-0.58320918\C,0,-0.01472043,0.5079372,-1.03039644\H,0,-2.18231361
 ,-0.25595311,0.44993179\H,0,-0.95840501,-0.81611546,1.63248723\H,0,-0.
 77744372,1.99141826,0.63992453\H,0,1.69633353,1.62696479,-0.08761954\H

 Normal termination of Gaussian 16 at Wed Apr  9 15:51:59 2025.
