 Gaussian 16, Revision C.01,

 ----------------------------------------------------------------------
 #t hf aug-cc-pvdz symm=none int=(grid=ultrafine) guess=(read,tcheck) s
 table=(opt,rrhf)
 ----------------------------------------------------------------------
 -----
 title
 -----
 Symbolic Z-matrix:
 Charge =  0 Multiplicity = 1

 SCF Done:  E(RHF) =  -308.972611220     A.U. after   15 cycles

 1\1\GINC-SE114\Stability\RHF\Aug-CC-pVDZ\C6H12O1\OHZDE\09-Apr-2025\0\\
 #t hf aug-cc-pvdz symm=none int=(grid=ultrafine) guess=(read,tcheck) s
 table=(opt,rrhf)\\title\\0,1\C,0,1.83029202,-1.03338473,-0.65812061\C,
 0,1.09600574,0.2255999,-0.53896953\O,0,-0.27673095,2.58040815,-0.26499
 189\C,0,-0.56972092,1.57638264,0.66380382\C,0,-0.2192274,0.1692274,0.1
 2997237\C,0,-0.44299511,-0.87398504,1.2251532\C,0,-1.11997873,-0.13958
 823,-1.10185924\H,0,2.53097255,-1.04816763,-1.49266807\H,0,2.46007636,
 -0.96104247,0.24905676\H,0,1.27629508,-1.97672587,-0.58659908\H,0,0.55

 Normal termination of Gaussian 16 at Wed Apr  9 17:20:53 2025.
 Gaussian 16:  ES64L-G16RevC.01  3-Jul-2019

 ----------------------------------------------------------------------
 #t hf aug-cc-pvdz iop(5/13=1,5/36=2,99/5=2) pseudo=read geom=check gue
 ss=(read,tcheck) scf=(maxcycle=1)
 ----------------------------------------------------------------------
 -----
 title
 -----
 Structure from the checkpoint file:  "Grambow2020_wb97xd3_006572_reverse_mol2.chk"
 Charge =  0 Multiplicity = 1

                         Standard orientation:
 ---------------------------------------------------------------------
 Center     Atomic      Atomic             Coordinates (Angstroms)
 Number     Number       Type             X           Y           Z
 ---------------------------------------------------------------------
      1          6           0        2.116532   -0.982620   -0.191212
      2          6           0        0.654643   -0.977073   -0.155608
      3          8           0       -2.084436   -0.938852   -0.131621
      4          6           0       -1.448219    0.236551   -0.544210
      5          6           0       -0.003314    0.336344   -0.005509
      6          6           0        0.684048    1.573455   -0.584192
      7          6           0       -0.051224    0.422632    1.548321
      8          1           0        2.553539   -1.926821    0.133056
      9          1           0        2.270055   -0.952228   -1.286813
     10          1           0        2.658349   -0.127648    0.229949
     11          1           0       -1.389455   -1.617350   -0.169986
     12          1           0       -2.039167    1.084105   -0.183036
     13          1           0       -1.411122    0.305663   -1.641934
     14          1           0        0.837201    1.469525   -1.660841
     15          1           0        1.651212    1.769297   -0.120266
     16          1           0        0.060550    2.456510   -0.424011
     17          1           0        0.946463    0.522118    1.978209
     18          1           0       -0.547942   -0.440729    1.988586
     19          1           0       -0.628991    1.312647    1.804523
 ---------------------------------------------------------------------

 SCF Done:  E(RHF) =  -309.302799963     A.U. after    2 cycles

 The electronic state is 1-A.
 Alpha  occ. eigenvalues --  -20.52295 -11.27301 -11.26972 -11.24946 -11.24651
 Alpha  occ. eigenvalues --  -11.24223 -11.23789  -1.43432  -1.12986  -1.01944
 Alpha  occ. eigenvalues --   -0.95324  -0.91686  -0.85361  -0.71107  -0.67454
 Alpha  occ. eigenvalues --   -0.64795  -0.63549  -0.60175  -0.58661  -0.58337
 Alpha  occ. eigenvalues --   -0.55547  -0.55266  -0.54532  -0.51589  -0.49692
 Alpha  occ. eigenvalues --   -0.45938  -0.41856  -0.35130
 Alpha virt. eigenvalues --    0.03145   0.03372   0.03551   0.04578   0.05822
 Alpha virt. eigenvalues --    0.05984   0.06406   0.06820   0.06921   0.08365
 Alpha virt. eigenvalues --    0.09146   0.09505   0.09793   0.12012   0.13141

 Mulliken charges:
               1
     1  C   -0.319030
     2  C   -0.273508
     3  O   -1.284881
     4  C    1.256235
     5  C   -1.876226
     6  C    0.054292
     7  C    0.032327
     8  H    0.097481
     9  H    0.325920
    10  H    0.126563
    11  H    0.428823
    12  H    0.130055
    13  H    0.146487
    14  H    0.177434
    15  H    0.217091
    16  H    0.199500
    17  H    0.159051
    18  H    0.201150
    19  H    0.201236
 Sum of Mulliken charges =   0.00000

 Dipole moment (field-independent basis, Debye):
    X=              3.1931    Y=              1.9308    Z=             -0.0425  Tot=              3.7317

 Test job not archived.
 1\1\GINC-SE114\SP\RHF\Aug-CC-pVDZ\C6H12O1\OHZDE\09-Apr-2025\0\\#t hf a
 ug-cc-pvdz iop(5/13=1,5/36=2,99/5=2) pseudo=read geom=check guess=(rea
 d,tcheck) scf=(maxcycle=1)\\title\\0,1\C,0,1.83029202,-1.03338473,-0.6
 5812061\C,0,1.09600574,0.2255999,-0.53896953\O,0,-0.27673095,2.5804081
 5,-0.26499189\C,0,-0.56972092,1.57638264,0.66380382\C,0,-0.2192274,0.1
 692274,0.12997237\C,0,-0.44299511,-0.87398504,1.2251532\C,0,-1.1199787
 3,-0.13958823,-1.10185924\H,0,2.53097255,-1.04816763,-1.49266807\H,0,2
 .46007636,-0.96104247,0.24905676\H,0,1.27629508,-1.97672587,-0.5865990

 Normal termination of Gaussian 16 at Wed Apr  9 17:21:01 2025.
