 Gaussian 16, Revision C.01,

 ----------------------------------------------------------------------
 #t hf aug-cc-pvdz symm=none int=(grid=ultrafine) guess=(read,tcheck) s
 table=(opt,rrhf)
 ----------------------------------------------------------------------
 -----
 title
 -----
 Symbolic Z-matrix:
 Charge =  0 Multiplicity = 1

 SCF Done:  E(RHF) =  -342.461403149     A.U. after   15 cycles
 Normal termination of Gaussian 16 at Wed Apr  9 19:04:56 2025.
 Gaussian 16:  ES64L-G16RevC.01  3-Jul-2019

 ----------------------------------------------------------------------
 #t hf aug-cc-pvdz iop(5/13=1,5/36=2,99/5=2) pseudo=read geom=check gue
 ss=(read,tcheck) scf=(maxcycle=1)
 ----------------------------------------------------------------------
 -----
 title
 -----
 Structure from the checkpoint file:  "Grambow2020_wb97xd3_008514_reverse_mol2.chk"
 Charge =  0 Multiplicity = 1

                         Standard orientation:
 ---------------------------------------------------------------------
 Center     Atomic      Atomic             Coordinates (Angstroms)
 Number     Number       Type             X           Y           Z
 ---------------------------------------------------------------------
      1          8           0       -2.096483   -0.636822    0.123074
      2          6           0       -0.882874   -0.176586   -0.189498
      3          6           0       -0.595108    1.298242   -0.003346
      4          8           0        0.793117    1.292121    0.326496
      5          6           0        1.326459    0.150648   -0.311483
      6          6           0        1.414996   -1.194884    0.360375
      7          6           0        0.244577   -0.825016   -0.503164
      8          1           0       -1.171373    1.705350    0.829876
      9          1           0       -0.787618    1.905285   -0.897270
     10          1           0        2.038721    0.377359   -1.100641
     11          1           0        1.228277   -1.260290    1.426425
     12          1           0        2.161774   -1.888696   -0.011776
     13          1           0       -2.091154   -1.595813    0.039529
 ---------------------------------------------------------------------

 SCF Done:  E(RHF) =  -342.809221197     A.U. after    2 cycles

 The electronic state is 1-A.
 Alpha  occ. eigenvalues --  -20.60735 -20.55271 -11.33681 -11.30303 -11.28475
 Alpha  occ. eigenvalues --  -11.26873 -11.21222  -1.52866  -1.47648  -1.15653
 Alpha  occ. eigenvalues --   -1.03343  -0.89969  -0.81968  -0.81346  -0.71064
 Alpha  occ. eigenvalues --   -0.69826  -0.65265  -0.63210  -0.60014  -0.59434
 Alpha  occ. eigenvalues --   -0.56674  -0.52683  -0.49418  -0.43039  -0.41963
 Alpha  occ. eigenvalues --   -0.32422
 Alpha virt. eigenvalues --    0.03298   0.04193   0.04230   0.04860   0.06184
 Alpha virt. eigenvalues --    0.06382   0.08763   0.09611   0.10042   0.11755
 Alpha virt. eigenvalues --    0.12615   0.13824   0.14309   0.14976   0.15089

 Mulliken charges:
               1
     1  O   -1.577618
     2  C    1.634275
     3  C    0.410496
     4  O   -1.513055
     5  C    1.369339
     6  C    0.089129
     7  C   -0.760880
     8  H    0.081318
     9  H    0.189696
    10  H   -0.105607
    11  H   -0.115149
    12  H   -0.086764
    13  H    0.384820
 Sum of Mulliken charges =   0.00000

 Dipole moment (field-independent basis, Debye):
    X=             -0.7656    Y=             -1.2129    Z=              0.2007  Tot=              1.4483

 Test job not archived.
 1\1\GINC-SE054\SP\RHF\Aug-CC-pVDZ\C5H6O2\OHZDE\09-Apr-2025\0\\#t hf au
 g-cc-pvdz iop(5/13=1,5/36=2,99/5=2) pseudo=read geom=check guess=(read
 ,tcheck) scf=(maxcycle=1)\\title\\0,1\O,0,0.79958732,2.03710745,0.7137
 2674\C,0,0.44448515,0.93647667,0.04673536\C,0,1.515817,-0.06957803,-0.
 31752123\O,0,0.79720806,-1.30136203,-0.26943466\C,0,-0.53863337,-0.970
 33074,-0.58625792\C,0,-1.56367365,-0.61786317,0.46004286\C,0,-0.763970
 89,0.44032617,-0.24216278\H,0,2.31287917,-0.07708819,0.42860958\H,0,1.
 95954322,0.09222673,-1.30827228\H,0,-0.88842843,-1.39317066,-1.5245196

 Normal termination of Gaussian 16 at Wed Apr  9 19:05:00 2025.
