 Gaussian 16, Revision C.01,

 ----------------------------------------------------------------------
 #t hf aug-cc-pvdz symm=none int=(grid=ultrafine) guess=(read,tcheck) s
 table=(opt,rrhf)
 ----------------------------------------------------------------------
 -----
 title
 -----
 Symbolic Z-matrix:
 Charge =  0 Multiplicity = 1

 SCF Done:  E(RHF) =  -338.577614802     A.U. after   15 cycles
 Normal termination of Gaussian 16 at Wed Apr  9 03:52:33 2025.
 Gaussian 16:  ES64L-G16RevC.01  3-Jul-2019

 ----------------------------------------------------------------------
 #t hf aug-cc-pvdz iop(5/13=1,5/36=2,99/5=2) pseudo=read geom=check gue
 ss=(read,tcheck) scf=(maxcycle=1)
 ----------------------------------------------------------------------
 -----
 title
 -----
 Structure from the checkpoint file:  "Grambow2020_wb97xd3_008304_forward_mol1.chk"
 Charge =  0 Multiplicity = 1

                         Standard orientation:
 ---------------------------------------------------------------------
 Center     Atomic      Atomic             Coordinates (Angstroms)
 Number     Number       Type             X           Y           Z
 ---------------------------------------------------------------------
      1          6           0       -2.407431   -0.596653    0.407668
      2          8           0       -1.594051    0.161778   -0.501440
      3          6           0       -0.086225    0.200566   -0.175926
      4          6           0       -0.726506    1.319524    0.192671
      5          7           0        2.545421    0.514063    0.221199
      6          6           0        2.016441   -0.616270    0.006684
      7          7           0        0.666411   -0.785696   -0.293867
      8          1           0       -2.435781   -1.622368    0.044050
      9          1           0       -3.401822   -0.153435    0.396559
     10          1           0       -1.982128   -0.551108    1.409562
     11          1           0       -0.782829    2.243549   -0.364010
     12          1           0        3.535490    0.410892    0.421701
     13          1           0        2.558979   -1.563323    0.025754
 ---------------------------------------------------------------------

 SCF Done:  E(RHF) =  -338.921939126     A.U. after    2 cycles

 The electronic state is 1-A.
 Alpha  occ. eigenvalues --  -20.63560 -15.50280 -15.48784 -11.38441 -11.32448
 Alpha  occ. eigenvalues --  -11.31014 -11.28465  -1.54318  -1.28929  -1.18739
 Alpha  occ. eigenvalues --   -1.06478  -0.92382  -0.91156  -0.75717  -0.74246
 Alpha  occ. eigenvalues --   -0.69846  -0.68074  -0.65432  -0.64605  -0.57721
 Alpha  occ. eigenvalues --   -0.55916  -0.52606  -0.47980  -0.47435  -0.45191
 Alpha  occ. eigenvalues --   -0.35730
 Alpha virt. eigenvalues --    0.03455   0.04162   0.04574   0.05583   0.05898
 Alpha virt. eigenvalues --    0.06151   0.08039   0.09009   0.10358   0.10475
 Alpha virt. eigenvalues --    0.11634   0.12351   0.13678   0.15004   0.15033

 Mulliken charges:
               1
     1  C    0.200617
     2  O   -1.281149
     3  C   -0.311058
     4  C    0.193417
     5  N    0.496365
     6  C   -0.634013
     7  N    0.862781
     8  H    0.123555
     9  H    0.053830
    10  H    0.257686
    11  H   -0.019039
    12  H    0.099813
    13  H   -0.042805
 Sum of Mulliken charges =  -0.00000

 Dipole moment (field-independent basis, Debye):
    X=             -1.5911    Y=             -1.2889    Z=              0.1931  Tot=              2.0568

 Test job not archived.
 1\1\GINC-SE458\SP\RHF\Aug-CC-pVDZ\C4H6N2O1\OHZDE\09-Apr-2025\0\\#t hf
 aug-cc-pvdz iop(5/13=1,5/36=2,99/5=2) pseudo=read geom=check guess=(re
 ad,tcheck) scf=(maxcycle=1)\\title\\0,1\C,0,2.30089355,0.1698305,-0.30
 222187\O,0,1.22010088,-0.57061023,-0.89121746\C,0,-0.17605384,-0.30838
 44,-0.28872707\C,0,0.37346182,-1.44995293,0.15030177\N,0,-2.68164217,-
 0.11597415,0.64216062\C,0,-2.06486962,0.8651819,0.13185407\N,0,-0.7988
 7467,0.76029077,-0.44074755\H,0,2.38746027,1.10995789,-0.84423691\H,0,
 3.20253563,-0.42931802,-0.41815632\H,0,2.09527193,0.34699865,0.7528043

 Normal termination of Gaussian 16 at Wed Apr  9 03:52:37 2025.
