 Gaussian 16, Revision C.01,

 ----------------------------------------------------------------------
 #t hf aug-cc-pvdz symm=none int=(grid=ultrafine) guess=(read,tcheck) s
 table=(opt,rrhf)
 ----------------------------------------------------------------------
 -----
 title
 -----
 Symbolic Z-matrix:
 Charge =  0 Multiplicity = 1

 SCF Done:  E(RHF) =  -307.719278684     A.U. after   15 cycles

 1\1\GINC-SE131\Stability\RHF\Aug-CC-pVDZ\C6H10O1\OHZDE\09-Apr-2025\0\\
 #t hf aug-cc-pvdz symm=none int=(grid=ultrafine) guess=(read,tcheck) s
 table=(opt,rrhf)\\title\\0,1\C,0,1.81904832,-0.68663919,-0.14941599\C,
 0,0.93810226,0.09132012,0.76593526\C,0,-0.02508327,1.62577623,-0.41185
 305\C,0,-1.20176077,0.82268525,0.12628798\O,0,-1.75892245,-0.0613354,-
 0.8483859\C,0,-1.20465567,-1.20977067,-0.18040081\C,0,-0.51627764,-0.3
 2949489,0.87501634\H,0,2.05223291,-1.5942937,0.42352336\H,0,2.76648018
 ,-0.18192719,-0.34003469\H,0,1.38849414,-1.02260887,-1.10173683\H,0,0.

 Normal termination of Gaussian 16 at Wed Apr  9 19:04:07 2025.
 Gaussian 16:  ES64L-G16RevC.01  3-Jul-2019

 ----------------------------------------------------------------------
 #t hf aug-cc-pvdz iop(5/13=1,5/36=2,99/5=2) pseudo=read geom=check gue
 ss=(read,tcheck) scf=(maxcycle=1)
 ----------------------------------------------------------------------
 -----
 title
 -----
 Structure from the checkpoint file:  "Grambow2020_wb97xd3_008494_forward_mol1.chk"
 Charge =  0 Multiplicity = 1

                         Standard orientation:
 ---------------------------------------------------------------------
 Center     Atomic      Atomic             Coordinates (Angstroms)
 Number     Number       Type             X           Y           Z
 ---------------------------------------------------------------------
      1          6           0        2.101713   -0.440007   -0.417814
      2          6           0        1.255067    0.163532    0.648997
      3          6           0       -0.014454    1.639013   -0.289479
      4          6           0       -1.016584    0.664258    0.314433
      5          8           0       -1.582739   -0.218090   -0.656567
      6          6           0       -0.822830   -1.329397   -0.146807
      7          6           0       -0.117055   -0.439686    0.889026
      8          1           0        2.505796   -1.346469    0.052841
      9          1           0        2.954471    0.188888   -0.674704
     10          1           0        1.600017   -0.765401   -1.338459
     11          1           0        1.020354    1.438165    0.368107
     12          1           0       -0.126356    2.688911   -0.015061
     13          1           0        0.100749    1.518182   -1.363124
     14          1           0       -1.782305    1.125762    0.941482
     15          1           0       -0.207024   -1.795864   -0.920489
     16          1           0       -1.478782   -2.088401    0.289416
     17          1           0       -0.240153   -0.765329    1.922399
 ---------------------------------------------------------------------

 SCF Done:  E(RHF) =  -308.043255685     A.U. after    2 cycles

 The electronic state is 1-A.
 Alpha  occ. eigenvalues --  -20.53950 -11.29935 -11.28482 -11.26001 -11.25906
 Alpha  occ. eigenvalues --  -11.23986 -11.23493  -1.47203  -1.11351  -1.00650
 Alpha  occ. eigenvalues --   -0.98357  -0.88521  -0.82682  -0.71298  -0.71029
 Alpha  occ. eigenvalues --   -0.67276  -0.63713  -0.60594  -0.58356  -0.57636
 Alpha  occ. eigenvalues --   -0.55978  -0.52918  -0.50437  -0.48335  -0.44793
 Alpha  occ. eigenvalues --   -0.41613  -0.31004
 Alpha virt. eigenvalues --    0.03439   0.03560   0.03820   0.04514   0.05722
 Alpha virt. eigenvalues --    0.05845   0.06351   0.06835   0.08456   0.09712
 Alpha virt. eigenvalues --    0.10254   0.10771   0.12993   0.13249   0.14075

 Mulliken charges:
               1
     1  C   -0.288250
     2  C   -0.775219
     3  C   -0.293627
     4  C    1.101072
     5  O   -1.474613
     6  C    0.822033
     7  C   -0.267544
     8  H    0.229464
     9  H    0.112544
    10  H    0.134708
    11  H    0.498190
    12  H    0.039133
    13  H    0.148099
    14  H   -0.024806
    15  H    0.072065
    16  H    0.044793
    17  H   -0.078044
 Sum of Mulliken charges =  -0.00000

 Dipole moment (field-independent basis, Debye):
    X=              0.3614    Y=             -0.1036    Z=             -0.0073  Tot=              0.3760

 Test job not archived.
 1\1\GINC-SE131\SP\RHF\Aug-CC-pVDZ\C6H10O1\OHZDE\09-Apr-2025\0\\#t hf a
 ug-cc-pvdz iop(5/13=1,5/36=2,99/5=2) pseudo=read geom=check guess=(rea
 d,tcheck) scf=(maxcycle=1)\\title\\0,1\C,0,1.81904832,-0.68663919,-0.1
 4941599\C,0,0.93810226,0.09132012,0.76593526\C,0,-0.02508327,1.6257762
 3,-0.41185305\C,0,-1.20176077,0.82268525,0.12628798\O,0,-1.75892245,-0
 .0613354,-0.8483859\C,0,-1.20465567,-1.20977067,-0.18040081\C,0,-0.516
 27764,-0.32949489,0.87501634\H,0,2.05223291,-1.5942937,0.42352336\H,0,
 2.76648018,-0.18192719,-0.34003469\H,0,1.38849414,-1.02260887,-1.10173

 Normal termination of Gaussian 16 at Wed Apr  9 19:04:13 2025.
