 Gaussian 16, Revision C.01,

 ----------------------------------------------------------------------
 #t hf aug-cc-pvdz symm=none int=(grid=ultrafine) guess=(read,tcheck) s
 table=(opt,rrhf)
 ----------------------------------------------------------------------
 -----
 title
 -----
 Symbolic Z-matrix:
 Charge =  0 Multiplicity = 1

 SCF Done:  E(RHF) =  -380.705129701     A.U. after   13 cycles
 Normal termination of Gaussian 16 at Wed Apr  9 19:02:56 2025.
 Gaussian 16:  ES64L-G16RevC.01  3-Jul-2019

 ----------------------------------------------------------------------
 #t hf aug-cc-pvdz iop(5/13=1,5/36=2,99/5=2) pseudo=read geom=check gue
 ss=(read,tcheck) scf=(maxcycle=1)
 ----------------------------------------------------------------------
 -----
 title
 -----
 Structure from the checkpoint file:  "Grambow2020_wb97xd3_008483_reverse_mol2.chk"
 Charge =  0 Multiplicity = 1

                         Standard orientation:
 ---------------------------------------------------------------------
 Center     Atomic      Atomic             Coordinates (Angstroms)
 Number     Number       Type             X           Y           Z
 ---------------------------------------------------------------------
      1          6           0       -2.662099   -0.479761    0.313220
      2          8           0       -1.392199   -0.623090   -0.293757
      3          6           0       -0.745862    0.572101   -0.465525
      4          8           0       -0.085030    1.122713    0.647690
      5          6           0        0.704813    0.595283   -0.424334
      6          6           0        1.498377   -0.647153   -0.158224
      7          8           0        2.784845   -0.251232    0.278066
      8          1           0       -3.301421    0.192175   -0.271157
      9          1           0       -3.115858   -1.468332    0.340658
     10          1           0       -2.568416   -0.091792    1.331352
     11          1           0        1.236566    1.351368   -0.997957
     12          1           0       -1.307593    1.296764   -1.057645
     13          1           0        0.979214   -1.250715    0.590751
     14          1           0        1.558501   -1.225534   -1.090318
     15          1           0        3.286710   -1.033883    0.507501
 ---------------------------------------------------------------------

 SCF Done:  E(RHF) =  -381.092916892     A.U. after    2 cycles

 The electronic state is 1-A.
 Alpha  occ. eigenvalues --  -20.56557 -20.55825 -20.55164 -11.34593 -11.29368
 Alpha  occ. eigenvalues --  -11.29166 -11.28976  -1.53465  -1.46654  -1.45349
 Alpha  occ. eigenvalues --   -1.01647  -0.96547  -0.88494  -0.81693  -0.74640
 Alpha  occ. eigenvalues --   -0.71064  -0.67498  -0.65745  -0.63735  -0.61274
 Alpha  occ. eigenvalues --   -0.59889  -0.54734  -0.53852  -0.50567  -0.46406
 Alpha  occ. eigenvalues --   -0.45339  -0.43975  -0.42899
 Alpha virt. eigenvalues --    0.03608   0.03700   0.04097   0.05084   0.05721
 Alpha virt. eigenvalues --    0.06581   0.06660   0.08813   0.10837   0.11498
 Alpha virt. eigenvalues --    0.13608   0.14002   0.14231   0.15142   0.15354

 Mulliken charges:
               1
     1  C    0.102056
     2  O   -1.429940
     3  C    1.606147
     4  O   -1.305805
     5  C    0.628639
     6  C    0.684039
     7  O   -1.200347
     8  H    0.200138
     9  H   -0.015181
    10  H    0.161632
    11  H   -0.030967
    12  H   -0.047821
    13  H    0.117125
    14  H    0.215123
    15  H    0.315164
 Sum of Mulliken charges =   0.00000

 Dipole moment (field-independent basis, Debye):
    X=             -1.1937    Y=             -1.5957    Z=             -1.2113  Tot=              2.3321

 Test job not archived.
 1\1\GINC-SE125\SP\RHF\Aug-CC-pVDZ\C4H8O3\OHZDE\09-Apr-2025\0\\#t hf au
 g-cc-pvdz iop(5/13=1,5/36=2,99/5=2) pseudo=read geom=check guess=(read
 ,tcheck) scf=(maxcycle=1)\\title\\0,1\C,0,-2.44925948,0.26880206,-0.50
 184789\O,0,-1.21064686,0.48231947,0.14765725\C,0,-0.54638908,-0.682959
 97,0.42446305\O,0,0.17454312,-1.28762045,-0.62136856\C,0,0.90485658,-0
 .67283816,0.44631867\C,0,1.68186684,0.56913111,0.13331584\O,0,2.994606
 46,0.17788557,-0.22128799\H,0,-3.09868941,-0.37970763,0.09765468\H,0,-
 2.92296496,1.24201862,-0.61309244\H,0,-2.30253339,-0.18151409,-1.48753

 Normal termination of Gaussian 16 at Wed Apr  9 19:03:02 2025.
