 Gaussian 16, Revision C.01,

 ----------------------------------------------------------------------
 #t hf aug-cc-pvdz symm=none int=(grid=ultrafine) guess=(read,tcheck) s
 table=(opt,rrhf)
 ----------------------------------------------------------------------
 -----
 title
 -----
 Symbolic Z-matrix:
 Charge =  0 Multiplicity = 1

 SCF Done:  E(RHF) =  -267.657762233     A.U. after   14 cycles
 Normal termination of Gaussian 16 at Wed Apr  9 03:20:54 2025.
 Gaussian 16:  ES64L-G16RevC.01  3-Jul-2019

 ----------------------------------------------------------------------
 #t hf aug-cc-pvdz iop(5/13=1,5/36=2,99/5=2) pseudo=read geom=check gue
 ss=(read,tcheck) scf=(maxcycle=1)
 ----------------------------------------------------------------------
 -----
 title
 -----
 Structure from the checkpoint file:  "Grambow2020_wb97xd3_006075_forward_mol2.chk"
 Charge =  0 Multiplicity = 1

                         Standard orientation:
 ---------------------------------------------------------------------
 Center     Atomic      Atomic             Coordinates (Angstroms)
 Number     Number       Type             X           Y           Z
 ---------------------------------------------------------------------
      1          8           0       -2.388166   -0.656658    0.000812
      2          6           0       -1.910941    0.444609   -0.001713
      3          6           0       -0.437097    0.734910    0.001722
      4          6           0        0.426997   -0.521894   -0.000680
      5          6           0        1.852360   -0.207488    0.000547
      6          6           0        3.016390    0.073059   -0.000125
      7          1           0       -2.565058    1.341230   -0.006590
      8          1           0       -0.223241    1.360941    0.875007
      9          1           0       -0.218460    1.368136   -0.864905
     10          1           0        0.185276   -1.137168    0.868470
     11          1           0        0.187085   -1.131294   -0.874654
     12          1           0        4.053474    0.312247   -0.002336
 ---------------------------------------------------------------------

 SCF Done:  E(RHF) =  -267.933192173     A.U. after    2 cycles

 The electronic state is 1-A.
 Alpha  occ. eigenvalues --  -20.55573 -11.35042 -11.26976 -11.26479 -11.24790
 Alpha  occ. eigenvalues --  -11.23673  -1.49076  -1.10820  -1.02732  -0.94098
 Alpha  occ. eigenvalues --   -0.79815  -0.73642  -0.70280  -0.66512  -0.65379
 Alpha  occ. eigenvalues --   -0.61252  -0.56303  -0.56059  -0.50971  -0.43494
 Alpha  occ. eigenvalues --   -0.40168  -0.39884
 Alpha virt. eigenvalues --    0.03213   0.03510   0.04467   0.04806   0.05665
 Alpha virt. eigenvalues --    0.06883   0.09738   0.10155   0.10705   0.11401
 Alpha virt. eigenvalues --    0.11811   0.12456   0.14343   0.14598   0.15368

 Mulliken charges:
               1
     1  O   -1.111616
     2  C    1.015901
     3  C   -0.433785
     4  C   -0.632713
     5  C    0.487645
     6  C    0.196774
     7  H    0.105160
     8  H    0.200730
     9  H    0.197823
    10  H    0.205105
    11  H    0.205817
    12  H   -0.436841
 Sum of Mulliken charges =  -0.00000

 Dipole moment (field-independent basis, Debye):
    X=              0.8657    Y=              2.3135    Z=             -0.0072  Tot=              2.4702

 Test job not archived.
 1\1\GINC-SE435\SP\RHF\Aug-CC-pVDZ\C5H6O1\OHZDE\09-Apr-2025\0\\#t hf au
 g-cc-pvdz iop(5/13=1,5/36=2,99/5=2) pseudo=read geom=check guess=(read
 ,tcheck) scf=(maxcycle=1)\\title\\0,1\O,0,-2.54781181,-0.17419473,-0.6
 5776708\C,0,-2.06585703,-0.20353555,0.44105038\C,0,-0.59581857,-0.0945
 9899,0.73022523\C,0,0.25674366,0.07031617,-0.52363394\C,0,1.67844901,0
 .17547147,-0.21025233\C,0,2.83949102,0.26139898,0.06951694\H,0,-2.7121
 8428,-0.31801258,1.33602395\H,0,-0.300884,-0.98560956,1.29537119\H,0,-
 0.4515447,0.7432376,1.42090213\H,0,0.08981505,-0.77331106,-1.1965689\H

 Normal termination of Gaussian 16 at Wed Apr  9 03:20:58 2025.
