 Gaussian 16, Revision C.01,

 ----------------------------------------------------------------------
 #t hf aug-cc-pvdz symm=none int=(grid=ultrafine) guess=(read,tcheck) s
 table=(opt,rrhf)
 ----------------------------------------------------------------------
 -----
 title
 -----
 Symbolic Z-matrix:
 Charge =  0 Multiplicity = 1

 SCF Done:  E(RHF) =  -308.947816648     A.U. after   15 cycles

 1\1\GINC-SE041\Stability\RHF\Aug-CC-pVDZ\C6H12O1\OHZDE\09-Apr-2025\0\\
 #t hf aug-cc-pvdz symm=none int=(grid=ultrafine) guess=(read,tcheck) s
 table=(opt,rrhf)\\title\\0,1\C,0,1.77991437,-0.22015382,-1.21281974\C,
 0,1.04959028,0.09500406,0.02509087\O,0,0.47261792,2.00834988,-0.748110
 16\C,0,-0.37783211,1.58911849,0.1523604\C,0,-0.2975917,-0.2084383,0.29
 966816\C,0,-0.71268128,-0.54869052,1.71137213\C,0,-1.14904032,-0.82993
 214,-0.78253792\H,0,2.63230188,0.43867869,-1.35097951\H,0,2.13470461,-
 1.25551512,-1.1010583\H,0,1.13384998,-0.17589335,-2.08488635\H,0,1.651

 Normal termination of Gaussian 16 at Wed Apr  9 17:21:55 2025.
 Gaussian 16:  ES64L-G16RevC.01  3-Jul-2019

 ----------------------------------------------------------------------
 #t hf aug-cc-pvdz iop(5/13=1,5/36=2,99/5=2) pseudo=read geom=check gue
 ss=(read,tcheck) scf=(maxcycle=1)
 ----------------------------------------------------------------------
 -----
 title
 -----
 Structure from the checkpoint file:  "Grambow2020_wb97xd3_006576_forward_mol1.chk"
 Charge =  0 Multiplicity = 1

                         Standard orientation:
 ---------------------------------------------------------------------
 Center     Atomic      Atomic             Coordinates (Angstroms)
 Number     Number       Type             X           Y           Z
 ---------------------------------------------------------------------
      1          6           0       -1.677438   -1.196359   -0.358864
      2          6           0       -0.547595   -0.334497   -0.740663
      3          8           0       -1.371986    1.310629    0.357322
      4          6           0       -0.073571    1.421153    0.248835
      5          6           0        0.669551   -0.197495   -0.046289
      6          6           0        1.945375    0.043159   -0.817869
      7          6           0        0.848179   -0.906064    1.275986
      8          1           0       -2.610253   -0.844116   -0.789555
      9          1           0       -1.446403   -2.194984   -0.758500
     10          1           0       -1.776293   -1.277863    0.719766
     11          1           0       -0.585036    0.091802   -1.739368
     12          1           0        0.504575    1.752627    1.141854
     13          1           0        0.331562    1.936116   -0.643382
     14          1           0        1.755334    0.440109   -1.816035
     15          1           0        2.517997   -0.882021   -0.926575
     16          1           0        2.579919    0.758116   -0.285016
     17          1           0        1.002790   -1.981818    1.150810
     18          1           0       -0.010824   -0.754972    1.930828
     19          1           0        1.725521   -0.507402    1.789777
 ---------------------------------------------------------------------

 SCF Done:  E(RHF) =  -309.278884619     A.U. after    2 cycles

 The electronic state is 1-A.
 Alpha  occ. eigenvalues --  -20.43058 -11.35174 -11.30327 -11.25329 -11.25075
 Alpha  occ. eigenvalues --  -11.24662 -11.23684  -1.35606  -1.14276  -1.03810
 Alpha  occ. eigenvalues --   -0.95988  -0.92206  -0.83977  -0.75957  -0.66826
 Alpha  occ. eigenvalues --   -0.65045  -0.63519  -0.60184  -0.58868  -0.56819
 Alpha  occ. eigenvalues --   -0.56352  -0.55341  -0.54737  -0.52051  -0.50602
 Alpha  occ. eigenvalues --   -0.48457  -0.34152  -0.30910
 Alpha virt. eigenvalues --    0.02490   0.03313   0.03423   0.04550   0.05288
 Alpha virt. eigenvalues --    0.05843   0.06078   0.06741   0.07299   0.08097
 Alpha virt. eigenvalues --    0.09464   0.09590   0.09938   0.12833   0.13093

 Mulliken charges:
               1
     1  C   -0.648047
     2  C    0.615208
     3  O   -1.375946
     4  C    0.935522
     5  C   -1.281424
     6  C   -0.196256
     7  C   -0.076652
     8  H    0.217470
     9  H    0.328154
    10  H    0.287748
    11  H   -0.202647
    12  H    0.141693
    13  H    0.115815
    14  H    0.138569
    15  H    0.142295
    16  H    0.260310
    17  H    0.180902
    18  H    0.244646
    19  H    0.172639
 Sum of Mulliken charges =  -0.00000

 Dipole moment (field-independent basis, Debye):
    X=              2.5984    Y=             -3.6165    Z=             -2.0796  Tot=              4.9148

 Test job not archived.
 1\1\GINC-SE041\SP\RHF\Aug-CC-pVDZ\C6H12O1\OHZDE\09-Apr-2025\0\\#t hf a
 ug-cc-pvdz iop(5/13=1,5/36=2,99/5=2) pseudo=read geom=check guess=(rea
 d,tcheck) scf=(maxcycle=1)\\title\\0,1\C,0,1.77991437,-0.22015382,-1.2
 1281974\C,0,1.04959028,0.09500406,0.02509087\O,0,0.47261792,2.00834988
 ,-0.74811016\C,0,-0.37783211,1.58911849,0.1523604\C,0,-0.2975917,-0.20
 84383,0.29966816\C,0,-0.71268128,-0.54869052,1.71137213\C,0,-1.1490403
 2,-0.82993214,-0.78253792\H,0,2.63230188,0.43867869,-1.35097951\H,0,2.
 13470461,-1.25551512,-1.1010583\H,0,1.13384998,-0.17589335,-2.08488635

 Normal termination of Gaussian 16 at Wed Apr  9 17:22:03 2025.
