 Gaussian 16, Revision C.01,

 ----------------------------------------------------------------------
 #t hf aug-cc-pvdz symm=none int=(grid=ultrafine) guess=(read,tcheck) s
 table=(opt,rrhf)
 ----------------------------------------------------------------------
 -----
 title
 -----
 Symbolic Z-matrix:
 Charge =  0 Multiplicity = 1

 SCF Done:  E(RHF) =  -343.676652000     A.U. after   15 cycles
 Normal termination of Gaussian 16 at Wed Apr  9 18:32:30 2025.
 Gaussian 16:  ES64L-G16RevC.01  3-Jul-2019

 ----------------------------------------------------------------------
 #t hf aug-cc-pvdz iop(5/13=1,5/36=2,99/5=2) pseudo=read geom=check gue
 ss=(read,tcheck) scf=(maxcycle=1)
 ----------------------------------------------------------------------
 -----
 title
 -----
 Structure from the checkpoint file:  "Grambow2020_wb97xd3_007682_reverse_mol2.chk"
 Charge =  0 Multiplicity = 1

                         Standard orientation:
 ---------------------------------------------------------------------
 Center     Atomic      Atomic             Coordinates (Angstroms)
 Number     Number       Type             X           Y           Z
 ---------------------------------------------------------------------
      1          6           0       -2.127451   -0.352572   -0.005714
      2          6           0       -0.676111   -0.486684    0.420455
      3          6           0        0.145916   -1.450584   -0.409648
      4          8           0        1.361640   -1.002548   -0.407198
      5          6           0        1.555661    0.239227    0.359868
      6          6           0        0.158354    0.806077    0.491758
      7          8           0       -0.154662    1.742564   -0.515492
      8          1           0       -2.600071   -1.334266   -0.019075
      9          1           0       -2.211784    0.069999   -1.007235
     10          1           0       -2.680227    0.295693    0.675286
     11          1           0       -0.639069   -0.962764    1.413904
     12          1           0        1.996349   -0.042734    1.316990
     13          1           0        2.242428    0.871559   -0.198788
     14          1           0        0.027040    1.336278    1.434537
     15          1           0       -0.128703    1.313313   -1.374419
 ---------------------------------------------------------------------

 SCF Done:  E(RHF) =  -344.028199780     A.U. after    2 cycles

 The electronic state is 1-A.
 Alpha  occ. eigenvalues --  -20.61125 -20.56589 -11.30819 -11.30787 -11.29774
 Alpha  occ. eigenvalues --  -11.24818 -11.23542  -1.54200  -1.47143  -1.09625
 Alpha  occ. eigenvalues --   -1.03015  -0.93436  -0.84488  -0.77317  -0.72499
 Alpha  occ. eigenvalues --   -0.70018  -0.66499  -0.64109  -0.59957  -0.59319
 Alpha  occ. eigenvalues --   -0.54535  -0.54109  -0.52102  -0.51410  -0.49062
 Alpha  occ. eigenvalues --   -0.45844  -0.35591
 Alpha virt. eigenvalues --    0.03056   0.03849   0.03948   0.04577   0.05923
 Alpha virt. eigenvalues --    0.06071   0.06912   0.09113   0.09333   0.09890
 Alpha virt. eigenvalues --    0.12249   0.12654   0.13056   0.13966   0.14479

 Mulliken charges:
               1
     1  C   -0.102397
     2  C   -0.877564
     3  C    0.435466
     4  O   -1.158360
     5  C    0.560153
     6  C    1.109943
     7  O   -1.453932
     8  H    0.168151
     9  H    0.205412
    10  H    0.200234
    11  H    0.262935
    12  H    0.125248
    13  H    0.093978
    14  H    0.148404
    15  H    0.282329
 Sum of Mulliken charges =  -0.00000

 Dipole moment (field-independent basis, Debye):
    X=              0.3392    Y=              1.6788    Z=              1.8710  Tot=              2.5366

 Test job not archived.
 1\1\GINC-SE131\SP\RHF\Aug-CC-pVDZ\C5H8O2\OHZDE\09-Apr-2025\0\\#t hf au
 g-cc-pvdz iop(5/13=1,5/36=2,99/5=2) pseudo=read geom=check guess=(read
 ,tcheck) scf=(maxcycle=1)\\title\\0,1\C,0,1.67421488,-0.88291085,0.322
 82597\C,0,0.63179943,0.22099046,0.29514327\C,0,0.73090616,1.16231348,-
 0.88722378\O,0,-0.4733775,1.56346298,-1.14704399\C,0,-1.50917196,1.007
 95774,-0.26014793\C,0,-0.84689319,-0.2062697,0.35484634\O,0,-1.1238644
 7,-1.39951265,-0.34443684\H,0,2.67233754,-0.44894835,0.27087778\H,0,1.
 56182974,-1.5591541,-0.52498727\H,0,1.59511799,-1.47736446,1.23383482\

 Normal termination of Gaussian 16 at Wed Apr  9 18:32:35 2025.
