 Gaussian 16, Revision C.01,

 ----------------------------------------------------------------------
 #t hf aug-cc-pvdz symm=none int=(grid=ultrafine) guess=(read,tcheck) s
 table=(opt,rrhf)
 ----------------------------------------------------------------------
 -----
 title
 -----
 Symbolic Z-matrix:
 Charge =  0 Multiplicity = 1

 SCF Done:  E(RHF) =  -338.601607781     A.U. after   16 cycles
 Normal termination of Gaussian 16 at Wed Apr  9 19:09:54 2025.
 Gaussian 16:  ES64L-G16RevC.01  3-Jul-2019

 ----------------------------------------------------------------------
 #t hf aug-cc-pvdz iop(5/13=1,5/36=2,99/5=2) pseudo=read geom=check gue
 ss=(read,tcheck) scf=(maxcycle=1)
 ----------------------------------------------------------------------
 -----
 title
 -----
 Structure from the checkpoint file:  "Grambow2020_wb97xd3_008823_reverse_mol1.chk"
 Charge =  0 Multiplicity = 1

                         Standard orientation:
 ---------------------------------------------------------------------
 Center     Atomic      Atomic             Coordinates (Angstroms)
 Number     Number       Type             X           Y           Z
 ---------------------------------------------------------------------
      1          6           0        2.457721   -0.455166    0.075255
      2          6           0        1.008936   -0.133043    0.022637
      3          6           0       -0.125757   -0.972258   -0.123313
      4          6           0       -1.237112   -0.000544   -0.133917
      5          8           0       -2.376061   -0.528178    0.149760
      6          7           0       -0.814295    1.248799   -0.064232
      7          7           0        0.548798    1.100769    0.002510
      8          1           0        3.070622    0.446566    0.073052
      9          1           0        2.739733   -1.064997   -0.784485
     10          1           0        2.684476   -1.029238    0.974534
     11          1           0       -0.102374   -1.857675   -0.747292
     12          1           0       -1.252617   -1.285992    0.583421
     13          1           0        1.104401    1.935852    0.090778
 ---------------------------------------------------------------------

 SCF Done:  E(RHF) =  -338.949128503     A.U. after    2 cycles

 The electronic state is 1-A.
 Alpha  occ. eigenvalues --  -20.49804 -15.61752 -15.50814 -11.34810 -11.34266
 Alpha  occ. eigenvalues --  -11.28872 -11.24112  -1.44366  -1.38385  -1.15743
 Alpha  occ. eigenvalues --   -1.09061  -1.01866  -0.89371  -0.81485  -0.76849
 Alpha  occ. eigenvalues --   -0.69544  -0.65591  -0.64293  -0.61815  -0.60691
 Alpha  occ. eigenvalues --   -0.58934  -0.54771  -0.52354  -0.42506  -0.39959
 Alpha  occ. eigenvalues --   -0.35457
 Alpha virt. eigenvalues --    0.01852   0.03269   0.03647   0.03951   0.06410
 Alpha virt. eigenvalues --    0.06825   0.07616   0.08461   0.09911   0.11719
 Alpha virt. eigenvalues --    0.12488   0.12780   0.13414   0.14253   0.15038

 Mulliken charges:
               1
     1  C   -0.217461
     2  C   -0.343439
     3  C   -0.497048
     4  C    0.561631
     5  O   -1.418856
     6  N    0.094777
     7  N    0.486215
     8  H    0.091866
     9  H    0.245939
    10  H    0.280596
    11  H   -0.029196
    12  H    0.664184
    13  H    0.080792
 Sum of Mulliken charges =  -0.00000

 Dipole moment (field-independent basis, Debye):
    X=              7.8734    Y=             -1.5259    Z=             -0.1328  Tot=              8.0210

 Test job not archived.
 1\1\GINC-SE232\SP\RHF\Aug-CC-pVDZ\C4H6N2O1\OHZDE\09-Apr-2025\0\\#t hf
 aug-cc-pvdz iop(5/13=1,5/36=2,99/5=2) pseudo=read geom=check guess=(re
 ad,tcheck) scf=(maxcycle=1)\\title\\0,1\C,0,-1.88192603,0.08852791,-0.
 11259926\C,0,-0.41137201,0.05441883,0.09189076\C,0,0.63697755,-0.37244
 446,-0.76359925\C,0,1.83267316,-0.17115707,0.07856894\O,0,2.92481446,-
 0.10014017,-0.59837879\N,0,1.52887958,0.25965665,1.28960001\N,0,0.1600
 505,0.35085167,1.24081613\H,0,-2.40882694,0.36434846,0.80122306\H,0,-2
 .24053774,-0.89045183,-0.434428\H,0,-2.13804657,0.80583042,-0.89334063

 Normal termination of Gaussian 16 at Wed Apr  9 19:09:58 2025.
