 Gaussian 16, Revision C.01,

 ----------------------------------------------------------------------
 #t hf aug-cc-pvdz symm=none int=(grid=ultrafine) guess=(read,tcheck) s
 table=(opt,rrhf)
 ----------------------------------------------------------------------
 -----
 title
 -----
 Symbolic Z-matrix:
 Charge =  0 Multiplicity = 1

 SCF Done:  E(RHF) =  -331.614134305     A.U. after   16 cycles
 Normal termination of Gaussian 16 at Wed Apr  9 03:15:46 2025.
 Gaussian 16:  ES64L-G16RevC.01  3-Jul-2019

 ----------------------------------------------------------------------
 #t hf aug-cc-pvdz iop(5/13=1,5/36=2,99/5=2) pseudo=read geom=check gue
 ss=(read,tcheck) scf=(maxcycle=1)
 ----------------------------------------------------------------------
 -----
 title
 -----
 Structure from the checkpoint file:  "Grambow2020_b97d3_006979_forward_mol2.chk"
 Charge =  0 Multiplicity = 1

                         Standard orientation:
 ---------------------------------------------------------------------
 Center     Atomic      Atomic             Coordinates (Angstroms)
 Number     Number       Type             X           Y           Z
 ---------------------------------------------------------------------
      1          7           0       -1.993054    0.024435   -0.080243
      2          6           0       -0.627689   -0.030983   -0.003251
      3          7           0        0.106307   -1.130861    0.007019
      4          8           0        1.396541   -0.659613    0.003200
      5          7           0        1.367580    0.760649    0.003665
      6          7           0        0.156494    1.118288   -0.002242
      7          1           0       -2.396885    0.878965    0.289306
      8          1           0       -2.470600   -0.823746    0.207206
 ---------------------------------------------------------------------

 SCF Done:  E(RHF) =  -331.937337346     A.U. after    2 cycles

 The electronic state is 1-A.
 Alpha  occ. eigenvalues --  -20.67667 -15.67886 -15.60050 -15.59035 -15.55996
 Alpha  occ. eigenvalues --  -11.38003  -1.62231  -1.37419  -1.29082  -1.18158
 Alpha  occ. eigenvalues --   -0.99017  -0.90986  -0.80450  -0.75755  -0.73623
 Alpha  occ. eigenvalues --   -0.70004  -0.63060  -0.58585  -0.56723  -0.54749
 Alpha  occ. eigenvalues --   -0.54471  -0.42704
 Alpha virt. eigenvalues --    0.02478   0.02631   0.05115   0.08338   0.10860
 Alpha virt. eigenvalues --    0.11343   0.11960   0.13321   0.14468   0.15037
 Alpha virt. eigenvalues --    0.16271   0.17069   0.17333   0.17826   0.19579

 Mulliken charges:
               1
     1  N    0.408236
     2  C   -1.167132
     3  N    0.966828
     4  O   -1.274448
     5  N    1.003204
     6  N   -0.270738
     7  H    0.153337
     8  H    0.180713
 Sum of Mulliken charges =   0.00000

 Dipole moment (field-independent basis, Debye):
    X=             -3.5073    Y=              0.2353    Z=              1.0249  Tot=              3.6616

 Test job not archived.
 1\1\GINC-SE250\SP\RHF\Aug-CC-pVDZ\C1H2N4O1\OHZDE\09-Apr-2025\0\\#t hf
 aug-cc-pvdz iop(5/13=1,5/36=2,99/5=2) pseudo=read geom=check guess=(re
 ad,tcheck) scf=(maxcycle=1)\\title\\0,1\N,0,1.43176872,0.0283438,-0.16
 556323\C,0,0.06639305,-0.00564126,-0.07715677\N,0,-0.77979124,0.636591
 2,-0.86461913\O,0,-2.01205707,0.21122422,-0.43175018\N,0,-1.83301048,-
 0.69386614,0.64840573\N,0,-0.59136978,-0.81336933,0.84517232\H,0,1.911
 1086,-0.19816166,0.69976673\H,0,1.80695821,0.83487917,-0.65425547\\Ver
 sion=ES64L-G16RevC.01\State=1-A\HF=-331.9373373\RMSD=3.206e-02\Dipole=

 Normal termination of Gaussian 16 at Wed Apr  9 03:15:49 2025.
