 Gaussian 16, Revision C.01,

 ----------------------------------------------------------------------
 #t hf aug-cc-pvdz symm=none int=(grid=ultrafine) guess=(read,tcheck) s
 table=(opt,rrhf)
 ----------------------------------------------------------------------
 -----
 title
 -----
 Symbolic Z-matrix:
 Charge =  0 Multiplicity = 1

 SCF Done:  E(RHF) =  -343.546651822     A.U. after   16 cycles
 Normal termination of Gaussian 16 at Wed Apr  9 04:04:52 2025.
 Gaussian 16:  ES64L-G16RevC.01  3-Jul-2019

 ----------------------------------------------------------------------
 #t hf aug-cc-pvdz iop(5/13=1,5/36=2,99/5=2) pseudo=read geom=check gue
 ss=(read,tcheck) scf=(maxcycle=1)
 ----------------------------------------------------------------------
 -----
 title
 -----
 Structure from the checkpoint file:  "Grambow2020_wb97xd3_009102_forward_mol1.chk"
 Charge =  0 Multiplicity = 1

                         Standard orientation:
 ---------------------------------------------------------------------
 Center     Atomic      Atomic             Coordinates (Angstroms)
 Number     Number       Type             X           Y           Z
 ---------------------------------------------------------------------
      1          6           0        2.087973    0.067418   -0.588957
      2          6           0        1.198062    0.381501    0.375157
      3          8           0       -0.416693    1.587417   -0.165065
      4          6           0       -1.328718    0.749138    0.257867
      5          6           0       -1.395452   -0.542062   -0.599413
      6          8           0       -0.374484   -1.429467   -0.038303
      7          6           0        0.432730   -0.795890    0.762169
      8          1           0        1.903809   -0.743243   -1.282237
      9          1           0        3.008835    0.624452   -0.701080
     10          1           0        1.451837    1.089501    1.153436
     11          1           0       -2.316101    1.181172    0.492532
     12          1           0       -1.000314    0.255350    1.286167
     13          1           0       -2.318234   -1.119304   -0.526348
     14          1           0       -1.157039   -0.320731   -1.637459
     15          1           0        0.789055   -1.391423    1.601008
 ---------------------------------------------------------------------

 SCF Done:  E(RHF) =  -343.897604855     A.U. after    2 cycles

 The electronic state is 1-A.
 Alpha  occ. eigenvalues --  -20.63008 -20.43832 -11.42001 -11.30401 -11.29406
 Alpha  occ. eigenvalues --  -11.28068 -11.25184  -1.57091  -1.35497  -1.11620
 Alpha  occ. eigenvalues --   -1.01301  -0.93960  -0.84195  -0.78235  -0.75743
 Alpha  occ. eigenvalues --   -0.70064  -0.69478  -0.64381  -0.61289  -0.58080
 Alpha  occ. eigenvalues --   -0.55153  -0.54712  -0.52792  -0.49782  -0.41701
 Alpha  occ. eigenvalues --   -0.34225  -0.30508
 Alpha virt. eigenvalues --    0.02549   0.03180   0.03846   0.04467   0.04657
 Alpha virt. eigenvalues --    0.06030   0.06073   0.06926   0.07636   0.10207
 Alpha virt. eigenvalues --    0.12056   0.12592   0.13055   0.13765   0.13841

 Mulliken charges:
               1
     1  C   -0.219757
     2  C    0.853988
     3  O   -1.312334
     4  C    0.536023
     5  C    0.367472
     6  O   -1.313418
     7  C    0.809738
     8  H   -0.080192
     9  H   -0.078898
    10  H   -0.159575
    11  H   -0.020195
    12  H    0.478465
    13  H    0.012081
    14  H    0.132587
    15  H   -0.005985
 Sum of Mulliken charges =  -0.00000

 Dipole moment (field-independent basis, Debye):
    X=              0.7357    Y=             -3.8851    Z=              1.4508  Tot=              4.2119

 Test job not archived.
 1\1\GINC-SE029\SP\RHF\Aug-CC-pVDZ\C5H8O2\OHZDE\09-Apr-2025\0\\#t hf au
 g-cc-pvdz iop(5/13=1,5/36=2,99/5=2) pseudo=read geom=check guess=(read
 ,tcheck) scf=(maxcycle=1)\\title\\0,1\C,0,-1.82463515,0.00017101,1.098
 68793\C,0,-1.27155115,0.04663484,-0.13096453\O,0,0.08766522,1.58248342
 ,-0.51464064\C,0,1.05613642,0.78436259,-0.88671659\C,0,1.61681969,-0.0
 6069731,0.28720407\O,0,0.73856095,-1.2294149,0.37361985\C,0,-0.3530287
 ,-1.06855101,-0.31654311\H,0,-1.30374634,-0.45135513,1.9332668\H,0,-2.
 80329506,0.42183344,1.28649685\H,0,-1.85262977,0.36217713,-0.98779839\

 Normal termination of Gaussian 16 at Wed Apr  9 04:04:58 2025.
