 Gaussian 16, Revision C.01,

 ----------------------------------------------------------------------
 #t hf aug-cc-pvdz symm=none int=(grid=ultrafine) guess=(read,tcheck) s
 table=(opt,rrhf)
 ----------------------------------------------------------------------
 -----
 title
 -----
 Symbolic Z-matrix:
 Charge =  0 Multiplicity = 1

 SCF Done:  E(RHF) =  -345.915451104     A.U. after   15 cycles

 1\1\GINC-SE054\Stability\RHF\Aug-CC-pVDZ\C5H12O2\OHZDE\09-Apr-2025\0\\
 #t hf aug-cc-pvdz symm=none int=(grid=ultrafine) guess=(read,tcheck) s
 table=(opt,rrhf)\\title\\0,1\C,0,2.52785118,0.29611785,-0.759893\O,0,1
 .1510364,0.56414183,-0.67226062\C,0,0.40184,-0.56750653,-0.28245688\C,
 0,-1.07296057,-0.26557905,-0.23283796\C,0,-1.88292846,-1.47889164,0.18
 258699\C,0,-1.02445098,1.57810026,0.98361637\O,0,-0.78676559,2.4899812
 9,0.02984482\H,0,2.73305109,-0.48732365,-1.49959734\H,0,3.02335635,1.2
 1436463,-1.0713111\H,0,2.93467209,-0.02144817,0.2083872\H,0,0.58177757

 Normal termination of Gaussian 16 at Wed Apr  9 19:19:28 2025.
 Gaussian 16:  ES64L-G16RevC.01  3-Jul-2019

 ----------------------------------------------------------------------
 #t hf aug-cc-pvdz iop(5/13=1,5/36=2,99/5=2) pseudo=read geom=check gue
 ss=(read,tcheck) scf=(maxcycle=1)
 ----------------------------------------------------------------------
 -----
 title
 -----
 Structure from the checkpoint file:  "Grambow2020_wb97xd3_009273_forward_mol1.chk"
 Charge =  0 Multiplicity = 1

                         Standard orientation:
 ---------------------------------------------------------------------
 Center     Atomic      Atomic             Coordinates (Angstroms)
 Number     Number       Type             X           Y           Z
 ---------------------------------------------------------------------
      1          6           0        2.583595   -0.592084    0.104637
      2          8           0        1.317436   -0.078800   -0.224779
      3          6           0        0.271561   -0.976421    0.082290
      4          6           0       -1.070689   -0.420095   -0.314604
      5          6           0       -2.197765   -1.381778    0.010386
      6          6           0       -0.929124    1.573614    0.626858
      7          8           0       -0.275613    2.246664   -0.331071
      8          1           0        2.791606   -1.517869   -0.445549
      9          1           0        3.324749    0.156570   -0.170847
     10          1           0        2.662990   -0.798222    1.179403
     11          1           0        0.445407   -1.924217   -0.456141
     12          1           0        0.284760   -1.213519    1.156917
     13          1           0       -1.067215   -0.111610   -1.361945
     14          1           0       -3.162935   -0.980988   -0.301562
     15          1           0       -2.249781   -1.577990    1.084245
     16          1           0       -2.057213   -2.342308   -0.495470
     17          1           0       -1.642917    0.666297    0.218306
     18          1           0       -0.248906    1.142798    1.371498
     19          1           0        0.639404    1.938736   -0.389454
 ---------------------------------------------------------------------

 SCF Done:  E(RHF) =  -346.281706513     A.U. after    2 cycles

 The electronic state is 1-A.
 Alpha  occ. eigenvalues --  -20.56408 -20.55810 -11.30177 -11.29651 -11.28309
 Alpha  occ. eigenvalues --  -11.26006 -11.24111  -1.48894  -1.47281  -1.08509
 Alpha  occ. eigenvalues --   -0.97496  -0.90605  -0.88918  -0.80736  -0.72141
 Alpha  occ. eigenvalues --   -0.68210  -0.67877  -0.66308  -0.63143  -0.59702
 Alpha  occ. eigenvalues --   -0.57274  -0.56306  -0.55789  -0.53188  -0.51560
 Alpha  occ. eigenvalues --   -0.49447  -0.45771  -0.43740  -0.30153
 Alpha virt. eigenvalues --    0.02994   0.03410   0.03620   0.04571   0.05872
 Alpha virt. eigenvalues --    0.06037   0.06609   0.07189   0.08068   0.09041
 Alpha virt. eigenvalues --    0.09263   0.09824   0.12493   0.12772   0.13636

 Mulliken charges:
               1
     1  C    0.088915
     2  O   -1.307825
     3  C    0.800453
     4  C   -0.894150
     5  C   -0.360383
     6  C    0.282433
     7  O   -1.069314
     8  H    0.180861
     9  H   -0.045820
    10  H    0.189458
    11  H    0.092262
    12  H    0.192427
    13  H    0.089185
    14  H    0.079662
    15  H    0.183380
    16  H    0.145521
    17  H    0.781182
    18  H    0.121210
    19  H    0.450544
 Sum of Mulliken charges =   0.00000

 Dipole moment (field-independent basis, Debye):
    X=              2.4501    Y=             -3.7580    Z=              0.1448  Tot=              4.4885

 Test job not archived.
 1\1\GINC-SE054\SP\RHF\Aug-CC-pVDZ\C5H12O2\OHZDE\09-Apr-2025\0\\#t hf a
 ug-cc-pvdz iop(5/13=1,5/36=2,99/5=2) pseudo=read geom=check guess=(rea
 d,tcheck) scf=(maxcycle=1)\\title\\0,1\C,0,2.52785118,0.29611785,-0.75
 9893\O,0,1.1510364,0.56414183,-0.67226062\C,0,0.40184,-0.56750653,-0.2
 8245688\C,0,-1.07296057,-0.26557905,-0.23283796\C,0,-1.88292846,-1.478
 89164,0.18258699\C,0,-1.02445098,1.57810026,0.98361637\O,0,-0.78676559
 ,2.48998129,0.02984482\H,0,2.73305109,-0.48732365,-1.49959734\H,0,3.02
 335635,1.21436463,-1.0713111\H,0,2.93467209,-0.02144817,0.2083872\H,0,

 Normal termination of Gaussian 16 at Wed Apr  9 19:19:35 2025.
