 Gaussian 16, Revision C.01,

 ----------------------------------------------------------------------
 #t hf aug-cc-pvdz symm=none int=(grid=ultrafine) guess=(read,tcheck) s
 table=(opt,rrhf)
 ----------------------------------------------------------------------
 -----
 title
 -----
 Symbolic Z-matrix:
 Charge =  0 Multiplicity = 1

 SCF Done:  E(RHF) =  -322.442286561     A.U. after   14 cycles
 Normal termination of Gaussian 16 at Wed Apr  9 17:18:28 2025.
 Gaussian 16:  ES64L-G16RevC.01  3-Jul-2019

 ----------------------------------------------------------------------
 #t hf aug-cc-pvdz iop(5/13=1,5/36=2,99/5=2) pseudo=read geom=check gue
 ss=(read,tcheck) scf=(maxcycle=1)
 ----------------------------------------------------------------------
 -----
 title
 -----
 Structure from the checkpoint file:  "Grambow2020_wb97xd3_006560_reverse_mol1.chk"
 Charge =  0 Multiplicity = 1

                         Standard orientation:
 ---------------------------------------------------------------------
 Center     Atomic      Atomic             Coordinates (Angstroms)
 Number     Number       Type             X           Y           Z
 ---------------------------------------------------------------------
      1          8           0        2.296380    0.391318   -0.002279
      2          6           0        1.141050   -0.216388    0.001208
      3          6           0       -0.050062   -0.098341    0.936828
      4          6           0       -0.682108    0.967415   -0.005435
      5          6           0       -1.959024    0.146756   -0.001263
      6          7           0       -0.917660   -0.953769    0.005683
      7          6           0       -0.049768   -0.109623   -0.935134
      8          1           0        2.173139   -0.997606    0.007239
      9          1           0        1.401376   -1.594962    0.006264
     10          1           0       -0.128481   -0.167321    2.019368
     11          1           0       -0.508233    2.042299   -0.012125
     12          1           0       -2.579444    0.163750    0.896708
     13          1           0       -2.579042    0.153022   -0.899683
     14          1           0       -0.127266   -0.192258   -2.016536
 ---------------------------------------------------------------------

 SCF Done:  E(RHF) =  -322.776469969     A.U. after    2 cycles

 The electronic state is 1-A.
 Alpha  occ. eigenvalues --  -20.49716 -15.53144 -11.37493 -11.29851 -11.29787
 Alpha  occ. eigenvalues --  -11.28320 -11.28032  -1.44055  -1.35462  -1.05250
 Alpha  occ. eigenvalues --   -0.96862  -0.92454  -0.86109  -0.76045  -0.73581
 Alpha  occ. eigenvalues --   -0.68756  -0.66573  -0.64126  -0.57782  -0.55060
 Alpha  occ. eigenvalues --   -0.52539  -0.51086  -0.48141  -0.43399  -0.39382
 Alpha  occ. eigenvalues --   -0.39123
 Alpha virt. eigenvalues --    0.03168   0.03875   0.04078   0.04381   0.04837
 Alpha virt. eigenvalues --    0.05714   0.07108   0.09207   0.10007   0.11255
 Alpha virt. eigenvalues --    0.12742   0.12840   0.13672   0.14307   0.14435

 Mulliken charges:
               1
     1  O   -1.604606
     2  C    1.485807
     3  C   -0.395179
     4  C    0.641376
     5  C    0.053676
     6  N    0.444366
     7  C   -0.395472
     8  H    0.177991
     9  H    0.284330
    10  H   -0.171711
    11  H   -0.215460
    12  H   -0.066470
    13  H   -0.066600
    14  H   -0.172048
 Sum of Mulliken charges =  -0.00000

 Dipole moment (field-independent basis, Debye):
    X=             -2.6297    Y=              0.0846    Z=             -0.0006  Tot=              2.6310

 Test job not archived.
 1\1\GINC-SE220\SP\RHF\Aug-CC-pVDZ\C5H7N1O1\OHZDE\09-Apr-2025\0\\#t hf
 aug-cc-pvdz iop(5/13=1,5/36=2,99/5=2) pseudo=read geom=check guess=(re
 ad,tcheck) scf=(maxcycle=1)\\title\\0,1\O,0,2.45811601,-0.20095291,0.4
 9424332\C,0,1.33045827,0.09679855,-0.09213438\C,0,0.1621486,-0.7757535
 8,-0.51848529\C,0,-0.54124405,-0.49509428,0.84153179\C,0,-1.78117853,-
 0.09172291,0.06444174\N,0,-0.69380408,0.45597935,-0.83737982\C,0,0.110
 31004,0.85060833,0.40705798\H,0,2.39485347,0.48548226,-0.71785994\H,0,
 1.64968989,0.78302267,-1.27342598\H,0,0.11721827,-1.67870743,-1.123015

 Normal termination of Gaussian 16 at Wed Apr  9 17:18:33 2025.
