 Gaussian 16, Revision C.01,

 ----------------------------------------------------------------------
 #t hf aug-cc-pvdz symm=none int=(grid=ultrafine) guess=(read,tcheck) s
 table=(opt,rrhf)
 ----------------------------------------------------------------------
 -----
 title
 -----
 Symbolic Z-matrix:
 Charge =  0 Multiplicity = 1

 SCF Done:  E(RHF) =  -262.626838833     A.U. after   15 cycles
 Normal termination of Gaussian 16 at Wed Apr  9 15:55:39 2025.
 Gaussian 16:  ES64L-G16RevC.01  3-Jul-2019

 ----------------------------------------------------------------------
 #t hf aug-cc-pvdz iop(5/13=1,5/36=2,99/5=2) pseudo=read geom=check gue
 ss=(read,tcheck) scf=(maxcycle=1)
 ----------------------------------------------------------------------
 -----
 title
 -----
 Structure from the checkpoint file:  "Grambow2020_b97d3_006901_reverse_mol2.chk"
 Charge =  0 Multiplicity = 1

                         Standard orientation:
 ---------------------------------------------------------------------
 Center     Atomic      Atomic             Coordinates (Angstroms)
 Number     Number       Type             X           Y           Z
 ---------------------------------------------------------------------
      1          6           0       -1.072710   -0.899354    0.001374
      2          6           0        0.248033   -1.482177    0.000100
      3          7           0        1.180780   -0.492928   -0.001505
      4          7           0        1.089166    0.866469    0.001567
      5          6           0       -0.153613    1.318750    0.000230
      6          6           0       -1.286223    0.466876   -0.002230
      7          1           0       -1.927243   -1.579512    0.005757
      8          1           0        2.162566   -0.770107   -0.002531
      9          1           0       -0.251593    2.405019    0.003748
     10          1           0       -2.286271    0.905244   -0.004245
 ---------------------------------------------------------------------

 SCF Done:  E(RHF) =  -262.888548547     A.U. after    2 cycles

 The electronic state is 1-A.
 Alpha  occ. eigenvalues --  -15.60519 -15.57718 -11.30468 -11.28622 -11.26892
 Alpha  occ. eigenvalues --  -11.25689  -1.36482  -1.16066  -1.10634  -0.92801
 Alpha  occ. eigenvalues --   -0.91777  -0.79476  -0.72103  -0.68351  -0.63892
 Alpha  occ. eigenvalues --   -0.61560  -0.60665  -0.51355  -0.44607  -0.40551
 Alpha  occ. eigenvalues --   -0.36638
 Alpha virt. eigenvalues --    0.02900   0.03332   0.03978   0.04648   0.05631
 Alpha virt. eigenvalues --    0.09157   0.09422   0.11061   0.11417   0.12116
 Alpha virt. eigenvalues --    0.12283   0.13917   0.14059   0.14636   0.15594

 Mulliken charges:
               1
     1  C    0.399144
     2  C   -0.811401
     3  N    0.364066
     4  N    0.156235
     5  C   -0.625530
     6  C    0.675072
     7  H   -0.091443
     8  H    0.176017
     9  H   -0.083690
    10  H   -0.158471
 Sum of Mulliken charges =  -0.00000

 Dipole moment (field-independent basis, Debye):
    X=             -2.3393    Y=              2.3134    Z=              0.0005  Tot=              3.2900

 Test job not archived.
 1\1\GINC-SE163\SP\RHF\Aug-CC-pVDZ\C4H4N2\OHZDE\09-Apr-2025\0\\#t hf au
 g-cc-pvdz iop(5/13=1,5/36=2,99/5=2) pseudo=read geom=check guess=(read
 ,tcheck) scf=(maxcycle=1)\\title\\0,1\C,0,0.66665149,1.05202146,-0.266
 98466\C,0,1.6104402,-0.03293825,-0.13982072\N,0,0.94464766,-1.18194907
 ,0.15194752\N,0,-0.37559825,-1.46779982,0.3297195\C,0,-1.1720034,-0.42
 011672,0.19872599\C,0,-0.69541335,0.88045657,-0.10106021\H,0,1.0612606
 ,2.0423056,-0.5046404\H,0,1.49778855,-2.03110826,0.26897568\H,0,-2.234
 38792,-0.62539784,0.33580911\H,0,-1.40696959,1.70335134,-0.19485781\\V

 Normal termination of Gaussian 16 at Wed Apr  9 15:55:42 2025.
