 Gaussian 16, Revision C.01,

 ----------------------------------------------------------------------
 #t hf aug-cc-pvdz symm=none int=(grid=ultrafine) guess=(read,tcheck) s
 table=(opt,rrhf)
 ----------------------------------------------------------------------
 -----
 title
 -----
 Symbolic Z-matrix:
 Charge =  0 Multiplicity = 1

 SCF Done:  E(RHF) =  -341.281453086     A.U. after   17 cycles
 Normal termination of Gaussian 16 at Wed Apr  9 04:04:00 2025.
 Gaussian 16:  ES64L-G16RevC.01  3-Jul-2019

 ----------------------------------------------------------------------
 #t hf aug-cc-pvdz iop(5/13=1,5/36=2,99/5=2) pseudo=read geom=check gue
 ss=(read,tcheck) scf=(maxcycle=1)
 ----------------------------------------------------------------------
 -----
 title
 -----
 Structure from the checkpoint file:  "Grambow2020_wb97xd3_009089_forward_mol1.chk"
 Charge =  0 Multiplicity = 1

                         Standard orientation:
 ---------------------------------------------------------------------
 Center     Atomic      Atomic             Coordinates (Angstroms)
 Number     Number       Type             X           Y           Z
 ---------------------------------------------------------------------
      1          8           0       -1.407267    1.482338    0.096283
      2          6           0       -0.444862    0.781186    0.001132
      3          6           0        1.017832    1.159354   -0.090496
      4          6           0        1.865427   -0.098176   -0.051889
      5          6           0        0.965524   -1.176337    0.023802
      6          6           0       -0.485379   -0.770657   -0.018555
      7          8           0       -1.454872   -1.464369   -0.070910
      8          1           0        1.215183    1.630233   -1.059858
      9          1           0        1.303106    1.905068    0.652943
     10          1           0        1.599662   -0.832247    1.046006
     11          1           0        1.267906   -2.219018   -0.026043
 ---------------------------------------------------------------------

 SCF Done:  E(RHF) =  -341.616676294     A.U. after    2 cycles

 The electronic state is 1-A.
 Alpha  occ. eigenvalues --  -20.59499 -20.58200 -11.37884 -11.36920 -11.32218
 Alpha  occ. eigenvalues --  -11.29056 -11.27770  -1.53049  -1.50915  -1.20256
 Alpha  occ. eigenvalues --   -1.02675  -0.95400  -0.81657  -0.76743  -0.72010
 Alpha  occ. eigenvalues --   -0.67948  -0.67005  -0.65741  -0.59385  -0.58439
 Alpha  occ. eigenvalues --   -0.54655  -0.52191  -0.50210  -0.45797  -0.36576
 Alpha virt. eigenvalues --    0.01959   0.02943   0.03733   0.04058   0.06004
 Alpha virt. eigenvalues --    0.07410   0.08878   0.08993   0.09171   0.10864
 Alpha virt. eigenvalues --    0.12104   0.14184   0.14507   0.14694   0.14862

 Mulliken charges:
               1
     1  O   -1.321976
     2  C    1.285827
     3  C   -0.517995
     4  C   -0.744985
     5  C    0.405730
     6  C    1.038566
     7  O   -1.217523
     8  H    0.332240
     9  H    0.235850
    10  H    0.504047
    11  H    0.000220
 Sum of Mulliken charges =  -0.00000

 Dipole moment (field-independent basis, Debye):
    X=              2.4587    Y=             -0.5638    Z=              0.4884  Tot=              2.5694

 Test job not archived.
 1\1\GINC-SE029\SP\RHF\Aug-CC-pVDZ\C5H4O2\OHZDE\09-Apr-2025\0\\#t hf au
 g-cc-pvdz iop(5/13=1,5/36=2,99/5=2) pseudo=read geom=check guess=(read
 ,tcheck) scf=(maxcycle=1)\\title\\0,1\O,0,-0.49043887,2.29163213,-0.46
 855881\C,0,-0.28647945,1.15200203,-0.17438974\C,0,-1.2239893,-0.035664
 53,-0.21184021\C,0,-0.45069374,-1.29711706,0.12288381\C,0,0.87067047,-
 0.89089126,0.38165654\C,0,1.08085758,0.59986144,0.31117736\O,0,2.05807
 976,1.23093246,0.57703656\H,0,-1.98429608,0.07208702,0.56960808\H,0,-1
 .78210043,-0.09703577,-1.14721048\H,0,0.60272977,-1.45691661,-0.701511

 Normal termination of Gaussian 16 at Wed Apr  9 04:04:05 2025.
