 Gaussian 16, Revision C.01,

 ----------------------------------------------------------------------
 #t hf aug-cc-pvdz symm=none int=(grid=ultrafine) guess=(read,tcheck) s
 table=(opt,rrhf)
 ----------------------------------------------------------------------
 -----
 title
 -----
 Symbolic Z-matrix:
 Charge =  0 Multiplicity = 1

 SCF Done:  E(RHF) =  -322.603920095     A.U. after   16 cycles
 Normal termination of Gaussian 16 at Wed Apr  9 03:39:31 2025.
 Gaussian 16:  ES64L-G16RevC.01  3-Jul-2019

 ----------------------------------------------------------------------
 #t hf aug-cc-pvdz iop(5/13=1,5/36=2,99/5=2) pseudo=read geom=check gue
 ss=(read,tcheck) scf=(maxcycle=1)
 ----------------------------------------------------------------------
 -----
 title
 -----
 Structure from the checkpoint file:  "Grambow2020_wb97xd3_007388_reverse_mol1.chk"
 Charge =  0 Multiplicity = 1

                         Standard orientation:
 ---------------------------------------------------------------------
 Center     Atomic      Atomic             Coordinates (Angstroms)
 Number     Number       Type             X           Y           Z
 ---------------------------------------------------------------------
      1          6           0       -1.415775    0.067474    0.741165
      2          6           0       -1.075152    1.030942   -0.297601
      3          6           0        0.365848    1.382277   -0.352899
      4          8           0        1.347252    0.566723    0.360123
      5          6           0        1.312201   -0.752271    0.132195
      6          7           0        0.337828   -1.474184   -0.221548
      7          6           0       -0.953168   -0.884937   -0.392185
      8          1           0       -0.772849   -0.036435    1.613703
      9          1           0       -2.469322   -0.025057    0.988331
     10          1           0       -1.012159   -0.230369   -1.334896
     11          1           0        0.432636    2.371173    0.107244
     12          1           0        0.717763    1.475519   -1.381887
     13          1           0        2.280211   -1.212789    0.315562
     14          1           0       -1.722817   -1.617447   -0.622256
 ---------------------------------------------------------------------

 SCF Done:  E(RHF) =  -322.932827348     A.U. after    2 cycles

 The electronic state is 1-A.
 Alpha  occ. eigenvalues --  -20.58812 -15.49941 -11.34984 -11.31145 -11.30234
 Alpha  occ. eigenvalues --  -11.27124 -11.25159  -1.51927  -1.24935  -1.13721
 Alpha  occ. eigenvalues --   -0.99145  -0.93517  -0.83456  -0.76543  -0.72747
 Alpha  occ. eigenvalues --   -0.70565  -0.65653  -0.62691  -0.60395  -0.57856
 Alpha  occ. eigenvalues --   -0.57071  -0.53444  -0.50149  -0.45008  -0.43013
 Alpha  occ. eigenvalues --   -0.35071
 Alpha virt. eigenvalues --    0.03627   0.04057   0.04098   0.04698   0.05953
 Alpha virt. eigenvalues --    0.06104   0.06901   0.09506   0.10080   0.11300
 Alpha virt. eigenvalues --    0.12407   0.13481   0.13916   0.14095   0.14426

 Mulliken charges:
               1
     1  C    0.465268
     2  C   -0.575652
     3  C    0.603596
     4  O   -1.193264
     5  C    0.193731
     6  N    0.929602
     7  C   -1.186407
     8  H    0.049738
     9  H    0.011387
    10  H    0.531339
    11  H    0.104883
    12  H    0.185361
    13  H   -0.056476
    14  H   -0.063109
 Sum of Mulliken charges =  -0.00000

 Dipole moment (field-independent basis, Debye):
    X=              0.5682    Y=              0.5970    Z=              0.5645  Tot=              0.9990

 Test job not archived.
 1\1\GINC-SE126\SP\RHF\Aug-CC-pVDZ\C5H7N1O1\OHZDE\09-Apr-2025\0\\#t hf
 aug-cc-pvdz iop(5/13=1,5/36=2,99/5=2) pseudo=read geom=check guess=(re
 ad,tcheck) scf=(maxcycle=1)\\title\\0,1\C,0,-1.3709533,-0.28236717,0.3
 4795038\C,0,-0.91364925,0.90326729,-0.3651219\C,0,0.40981558,1.4076727
 8,0.07871556\O,0,1.2713368,0.57121947,0.91226753\C,0,1.51340306,-0.669
 65082,0.47116499\N,0,0.8052454,-1.40223124,-0.27551783\C,0,-0.46422367
 ,-0.92930187,-0.73135115\H,0,-0.988623,-0.49428232,1.34514105\H,0,-2.4
 2255541,-0.53343148,0.24443837\H,0,-0.36248312,-0.10585273,-1.52647677

 Normal termination of Gaussian 16 at Wed Apr  9 03:39:36 2025.
