 Gaussian 16, Revision C.01,

 ----------------------------------------------------------------------
 #t hf aug-cc-pvdz symm=none int=(grid=ultrafine) guess=(read,tcheck) s
 table=(opt,rrhf)
 ----------------------------------------------------------------------
 -----
 title
 -----
 Symbolic Z-matrix:
 Charge =  0 Multiplicity = 1

 SCF Done:  E(RHF) =  -269.847029473     A.U. after   14 cycles

 1\1\GINC-SE131\Stability\RHF\Aug-CC-pVDZ\C5H10O1\OHZDE\09-Apr-2025\0\\
 #t hf aug-cc-pvdz symm=none int=(grid=ultrafine) guess=(read,tcheck) s
 table=(opt,rrhf)\\title\\0,1\C,0,-1.37055822,-1.13264728,0.09951896\C,
 0,-0.25751354,-0.10206302,0.12474603\C,0,-0.81328319,1.30444622,-0.108
 64653\C,0,0.98358592,-0.36829315,0.97117103\C,0,1.83233687,0.24724352,
 -0.10920312\O,0,0.8120191,-0.41554444,-1.10661462\H,0,-2.00929645,-1.0
 2181711,-0.7886609\H,0,-1.99889215,-0.98181079,0.99037005\H,0,-0.96243
 862,-2.14909073,0.14427822\H,0,-1.38289012,1.37828218,-1.04561419\H,0,

 Normal termination of Gaussian 16 at Wed Apr  9 15:48:57 2025.
 Gaussian 16:  ES64L-G16RevC.01  3-Jul-2019

 ----------------------------------------------------------------------
 #t hf aug-cc-pvdz iop(5/13=1,5/36=2,99/5=2) pseudo=read geom=check gue
 ss=(read,tcheck) scf=(maxcycle=1)
 ----------------------------------------------------------------------
 -----
 title
 -----
 Structure from the checkpoint file:  "Grambow2020_b97d3_006765_forward_mol1.chk"
 Charge =  0 Multiplicity = 1

                         Standard orientation:
 ---------------------------------------------------------------------
 Center     Atomic      Atomic             Coordinates (Angstroms)
 Number     Number       Type             X           Y           Z
 ---------------------------------------------------------------------
      1          6           0       -1.645103   -0.889112   -0.016732
      2          6           0       -0.424978   -0.002115    0.144949
      3          6           0       -0.800911    1.473216   -0.008979
      4          6           0        0.723922   -0.472058    1.031980
      5          6           0        1.701429    0.112295    0.047357
      6          8           0        0.674241   -0.353601   -1.049452
      7          1           0       -2.211977   -0.641628   -0.925874
      8          1           0       -2.304835   -0.727309    0.849146
      9          1           0       -1.359496   -1.947418   -0.028532
     10          1           0       -1.300516    1.679260   -0.965929
     11          1           0        0.048996    2.154417    0.100665
     12          1           0       -1.517123    1.700712    0.794384
     13          1           0        0.720558   -1.306214   -0.457939
     14          1           0        0.748470   -0.247809    2.103707
     15          1           0        2.676919   -0.364842   -0.113450
     16          1           0        1.778920    1.196288   -0.152019
 ---------------------------------------------------------------------

 SCF Done:  E(RHF) =  -270.135783041     A.U. after    2 cycles

 The electronic state is 1-A.
 Alpha  occ. eigenvalues --  -20.60757 -11.32632 -11.30462 -11.24233 -11.23913
 Alpha  occ. eigenvalues --  -11.18029  -1.48213  -1.07878  -0.98970  -0.95242
 Alpha  occ. eigenvalues --   -0.85955  -0.74128  -0.68616  -0.66101  -0.62389
 Alpha  occ. eigenvalues --   -0.61421  -0.56814  -0.55181  -0.54410  -0.52654
 Alpha  occ. eigenvalues --   -0.50767  -0.47647  -0.46548  -0.28364
 Alpha virt. eigenvalues --    0.03566   0.03781   0.04269   0.04379   0.06120
 Alpha virt. eigenvalues --    0.06404   0.06545   0.07449   0.08383   0.09597
 Alpha virt. eigenvalues --    0.11462   0.13237   0.13293   0.14516   0.15153

 Mulliken charges:
               1
     1  C   -0.353967
     2  C    0.096375
     3  C   -0.425442
     4  C   -0.307787
     5  C    0.534308
     6  O   -1.379037
     7  H    0.258086
     8  H    0.282974
     9  H    0.167119
    10  H    0.251184
    11  H    0.103280
    12  H    0.283721
    13  H    0.701386
    14  H   -0.199503
    15  H   -0.027048
    16  H    0.014354
 Sum of Mulliken charges =  -0.00000

 Dipole moment (field-independent basis, Debye):
    X=             -0.8962    Y=              1.4742    Z=             -0.6310  Tot=              1.8370

 Test job not archived.
 1\1\GINC-SE131\SP\RHF\Aug-CC-pVDZ\C5H10O1\OHZDE\09-Apr-2025\0\\#t hf a
 ug-cc-pvdz iop(5/13=1,5/36=2,99/5=2) pseudo=read geom=check guess=(rea
 d,tcheck) scf=(maxcycle=1)\\title\\0,1\C,0,-1.37055822,-1.13264728,0.0
 9951896\C,0,-0.25751354,-0.10206302,0.12474603\C,0,-0.81328319,1.30444
 622,-0.10864653\C,0,0.98358592,-0.36829315,0.97117103\C,0,1.83233687,0
 .24724352,-0.10920312\O,0,0.8120191,-0.41554444,-1.10661462\H,0,-2.009
 29645,-1.02181711,-0.7886609\H,0,-1.99889215,-0.98181079,0.99037005\H,
 0,-0.96243862,-2.14909073,0.14427822\H,0,-1.38289012,1.37828218,-1.045

 Normal termination of Gaussian 16 at Wed Apr  9 15:49:02 2025.
