 Gaussian 16, Revision C.01,

 ----------------------------------------------------------------------
 #t hf aug-cc-pvdz symm=none int=(grid=ultrafine) guess=(read,tcheck) s
 table=(opt,rrhf)
 ----------------------------------------------------------------------
 -----
 title
 -----
 Symbolic Z-matrix:
 Charge =  0 Multiplicity = 1

 SCF Done:  E(RHF) =  -308.863626830     A.U. after   16 cycles

 1\1\GINC-SE162\Stability\RHF\Aug-CC-pVDZ\C6H12O1\OHZDE\09-Apr-2025\0\\
 #t hf aug-cc-pvdz symm=none int=(grid=ultrafine) guess=(read,tcheck) s
 table=(opt,rrhf)\\title\\0,1\C,0,-1.16810611,-1.65777054,-0.94095309\C
 ,0,-0.78616162,-0.20176539,-0.71167019\C,0,-1.01325983,0.27003639,0.72
 618643\C,0,-0.15712679,1.52126751,0.82269021\O,0,0.97593261,1.29744262
 ,-0.01997252\C,0,0.68817834,0.06249456,-0.95975243\C,0,2.05331734,0.08
 321714,0.56587045\H,0,-2.22928021,-1.82828918,-0.74055784\H,0,-0.97280
 678,-1.95353952,-1.97346827\H,0,-0.58109251,-2.31355058,-0.29387185\H,

 Normal termination of Gaussian 16 at Wed Apr  9 17:37:15 2025.
 Gaussian 16:  ES64L-G16RevC.01  3-Jul-2019

 ----------------------------------------------------------------------
 #t hf aug-cc-pvdz iop(5/13=1,5/36=2,99/5=2) pseudo=read geom=check gue
 ss=(read,tcheck) scf=(maxcycle=1)
 ----------------------------------------------------------------------
 -----
 title
 -----
 Structure from the checkpoint file:  "Grambow2020_wb97xd3_006740_forward_mol1.chk"
 Charge =  0 Multiplicity = 1

                         Standard orientation:
 ---------------------------------------------------------------------
 Center     Atomic      Atomic             Coordinates (Angstroms)
 Number     Number       Type             X           Y           Z
 ---------------------------------------------------------------------
      1          6           0       -2.321554   -0.523541    0.239839
      2          6           0       -1.088446    0.118219   -0.381443
      3          6           0       -0.430403    1.169968    0.514326
      4          6           0        0.964599    1.304798   -0.071888
      5          8           0        1.316581    0.011741   -0.569999
      6          6           0        0.019595   -0.883949   -0.651555
      7          6           0        1.562004   -1.169341    0.664152
      8          1           0       -3.099099    0.218295    0.440910
      9          1           0       -2.745388   -1.277572   -0.426127
     10          1           0       -2.062636   -1.020495    1.177573
     11          1           0       -1.398626    0.627268   -1.308758
     12          1           0       -0.383823    0.815352    1.547539
     13          1           0       -0.966168    2.120811    0.513859
     14          1           0        1.726828    1.617385    0.646491
     15          1           0        0.986693    1.990443   -0.922539
     16          1           0        0.014245   -1.229617   -1.689659
     17          1           0        2.445217   -0.614479    1.026659
     18          1           0        0.863273   -1.338058    1.473152
     19          1           0        1.852072   -2.100188    0.200307
 ---------------------------------------------------------------------

 SCF Done:  E(RHF) =  -309.195888795     A.U. after    2 cycles

 The electronic state is 1-A.
 Alpha  occ. eigenvalues --  -20.57638 -11.33301 -11.28899 -11.22696 -11.21632
 Alpha  occ. eigenvalues --  -11.21091 -11.20333  -1.47172  -1.07899  -1.00184
 Alpha  occ. eigenvalues --   -0.94920  -0.90073  -0.81216  -0.74855  -0.69071
 Alpha  occ. eigenvalues --   -0.66892  -0.61821  -0.60131  -0.59167  -0.58034
 Alpha  occ. eigenvalues --   -0.55763  -0.52889  -0.50756  -0.47916  -0.47510
 Alpha  occ. eigenvalues --   -0.46337  -0.44594  -0.25781
 Alpha virt. eigenvalues --    0.03325   0.03555   0.03982   0.04263   0.05906
 Alpha virt. eigenvalues --    0.05961   0.06195   0.06531   0.07034   0.09015
 Alpha virt. eigenvalues --    0.09565   0.09721   0.12244   0.13233   0.13663

 Mulliken charges:
               1
     1  C   -0.218674
     2  C   -0.864899
     3  C   -0.220844
     4  C    0.670126
     5  O   -1.309570
     6  C    0.609382
     7  C   -0.012474
     8  H    0.183979
     9  H    0.178118
    10  H    0.194358
    11  H    0.109746
    12  H    0.126986
    13  H    0.129229
    14  H    0.127318
    15  H    0.026879
    16  H   -0.226552
    17  H    0.063833
    18  H    0.270941
    19  H    0.162121
 Sum of Mulliken charges =  -0.00000

 Dipole moment (field-independent basis, Debye):
    X=              1.0471    Y=              1.2714    Z=              1.3941  Tot=              2.1579

 Test job not archived.
 1\1\GINC-SE162\SP\RHF\Aug-CC-pVDZ\C6H12O1\OHZDE\09-Apr-2025\0\\#t hf a
 ug-cc-pvdz iop(5/13=1,5/36=2,99/5=2) pseudo=read geom=check guess=(rea
 d,tcheck) scf=(maxcycle=1)\\title\\0,1\C,0,-1.16810611,-1.65777054,-0.
 94095309\C,0,-0.78616162,-0.20176539,-0.71167019\C,0,-1.01325983,0.270
 03639,0.72618643\C,0,-0.15712679,1.52126751,0.82269021\O,0,0.97593261,
 1.29744262,-0.01997252\C,0,0.68817834,0.06249456,-0.95975243\C,0,2.053
 31734,0.08321714,0.56587045\H,0,-2.22928021,-1.82828918,-0.74055784\H,
 0,-0.97280678,-1.95353952,-1.97346827\H,0,-0.58109251,-2.31355058,-0.2

 Normal termination of Gaussian 16 at Wed Apr  9 17:37:23 2025.
