 Gaussian 16, Revision C.01,

 ----------------------------------------------------------------------
 #t hf aug-cc-pvdz symm=none int=(grid=ultrafine) guess=(read,tcheck) s
 table=(opt,rrhf)
 ----------------------------------------------------------------------
 -----
 title
 -----
 Symbolic Z-matrix:
 Charge =  0 Multiplicity = 1

 SCF Done:  E(RHF) =  -342.492745448     A.U. after   14 cycles
 Normal termination of Gaussian 16 at Wed Apr  9 19:04:48 2025.
 Gaussian 16:  ES64L-G16RevC.01  3-Jul-2019

 ----------------------------------------------------------------------
 #t hf aug-cc-pvdz iop(5/13=1,5/36=2,99/5=2) pseudo=read geom=check gue
 ss=(read,tcheck) scf=(maxcycle=1)
 ----------------------------------------------------------------------
 -----
 title
 -----
 Structure from the checkpoint file:  "Grambow2020_wb97xd3_008518_reverse_mol2.chk"
 Charge =  0 Multiplicity = 1

                         Standard orientation:
 ---------------------------------------------------------------------
 Center     Atomic      Atomic             Coordinates (Angstroms)
 Number     Number       Type             X           Y           Z
 ---------------------------------------------------------------------
      1          8           0       -1.419679   -1.592120   -0.152881
      2          6           0       -0.663450   -0.659538   -0.023942
      3          6           0       -1.218728    0.701289    0.398110
      4          8           0       -0.706982    1.808393   -0.311790
      5          6           0        1.761082    0.259867   -0.520723
      6          6           0        1.794740   -0.140323    0.695770
      7          6           0        0.807603   -0.857777   -0.197767
      8          1           0       -1.069012    0.806365    1.481097
      9          1           0       -2.292611    0.664066    0.219778
     10          1           0        2.122717    0.878442   -1.322317
     11          1           0        0.124662    2.075496    0.082307
     12          1           0        2.207171   -0.109372    1.688237
     13          1           0        1.032875   -1.866296   -0.540427
 ---------------------------------------------------------------------

 SCF Done:  E(RHF) =  -342.840330729     A.U. after    2 cycles

 The electronic state is 1-A.
 Alpha  occ. eigenvalues --  -20.56364 -20.53347 -11.33201 -11.29892 -11.28763
 Alpha  occ. eigenvalues --  -11.28422 -11.27479  -1.47558  -1.46297  -1.20571
 Alpha  occ. eigenvalues --   -0.99454  -0.90558  -0.80453  -0.76942  -0.72932
 Alpha  occ. eigenvalues --   -0.70563  -0.66588  -0.64171  -0.59724  -0.55949
 Alpha  occ. eigenvalues --   -0.54753  -0.50565  -0.49419  -0.44300  -0.43810
 Alpha  occ. eigenvalues --   -0.37601
 Alpha virt. eigenvalues --    0.02561   0.03235   0.04171   0.04835   0.06360
 Alpha virt. eigenvalues --    0.06450   0.08356   0.09145   0.09783   0.10976
 Alpha virt. eigenvalues --    0.12956   0.13645   0.13896   0.14186   0.15116

 Mulliken charges:
               1
     1  O   -1.344227
     2  C    0.750606
     3  C    0.415753
     4  O   -1.093880
     5  C    0.524776
     6  C    0.355500
     7  C    0.366827
     8  H    0.258982
     9  H    0.039571
    10  H   -0.255825
    11  H    0.377323
    12  H   -0.236239
    13  H   -0.159169
 Sum of Mulliken charges =  -0.00000

 Dipole moment (field-independent basis, Debye):
    X=              3.6169    Y=              2.0139    Z=              1.6347  Tot=              4.4508

 Test job not archived.
 1\1\GINC-SE131\SP\RHF\Aug-CC-pVDZ\C5H6O2\OHZDE\09-Apr-2025\0\\#t hf au
 g-cc-pvdz iop(5/13=1,5/36=2,99/5=2) pseudo=read geom=check guess=(read
 ,tcheck) scf=(maxcycle=1)\\title\\0,1\O,0,1.46443936,1.89521391,-0.072
 1451\C,0,0.7870485,0.89591871,-0.04444532\C,0,1.46462373,-0.46250733,0
 .13961923\O,0,0.98949237,-1.49256617,-0.6998747\C,0,-1.59186207,-0.134
 08135,-0.54478461\C,0,-1.5763582,0.08144861,0.71792944\C,0,-0.70255116
 ,0.99807724,-0.10901723\H,0,1.39241532,-0.73523512,1.20109101\H,0,2.51
 943941,-0.31340537,-0.08741359\H,0,-1.95858284,-0.65698763,-1.40968494

 Normal termination of Gaussian 16 at Wed Apr  9 19:04:52 2025.
