 Gaussian 16, Revision C.01,

 ----------------------------------------------------------------------
 #t hf aug-cc-pvdz symm=none int=(grid=ultrafine) guess=(read,tcheck) s
 table=(opt,rrhf)
 ----------------------------------------------------------------------
 -----
 title
 -----
 Symbolic Z-matrix:
 Charge =  0 Multiplicity = 1

 SCF Done:  E(RHF) =  -305.784213681     A.U. after   15 cycles
 Normal termination of Gaussian 16 at Wed Apr  9 17:10:18 2025.
 Gaussian 16:  ES64L-G16RevC.01  3-Jul-2019

 ----------------------------------------------------------------------
 #t hf aug-cc-pvdz iop(5/13=1,5/36=2,99/5=2) pseudo=read geom=check gue
 ss=(read,tcheck) scf=(maxcycle=1)
 ----------------------------------------------------------------------
 -----
 title
 -----
 Structure from the checkpoint file:  "Grambow2020_wb97xd3_006278_reverse_mol2.chk"
 Charge =  0 Multiplicity = 1

                         Standard orientation:
 ---------------------------------------------------------------------
 Center     Atomic      Atomic             Coordinates (Angstroms)
 Number     Number       Type             X           Y           Z
 ---------------------------------------------------------------------
      1          6           0       -1.689407   -0.763989   -0.525775
      2          6           0       -0.936232    0.130347    0.445046
      3          6           0        0.407576   -0.443842    0.868174
      4          8           0        1.253484   -0.577789   -0.296977
      5          6           0        2.251428    0.204202   -0.530872
      6          8           0       -0.771384    1.439762   -0.059694
      7          1           0       -1.875328   -1.747230   -0.089916
      8          1           0       -2.648303   -0.310168   -0.775550
      9          1           0       -1.119195   -0.906954   -1.446415
     10          1           0       -1.521581    0.246803    1.362154
     11          1           0        0.905136    0.225453    1.574644
     12          1           0        0.298259   -1.441559    1.295303
     13          1           0        2.342358    0.892052    0.353276
     14          1           0       -0.438335    1.385509   -0.959562
 ---------------------------------------------------------------------

 SCF Done:  E(RHF) =  -306.098042588     A.U. after    2 cycles

 The electronic state is 1-A.
 Alpha  occ. eigenvalues --  -20.61852 -20.56161 -11.31196 -11.30792 -11.30760
 Alpha  occ. eigenvalues --  -11.24098  -1.54750  -1.46754  -1.07692  -0.97951
 Alpha  occ. eigenvalues --   -0.87976  -0.82028  -0.71145  -0.71002  -0.66536
 Alpha  occ. eigenvalues --   -0.63160  -0.62514  -0.57158  -0.55147  -0.54609
 Alpha  occ. eigenvalues --   -0.52714  -0.49748  -0.45656  -0.36142
 Alpha virt. eigenvalues --    0.03012   0.03803   0.04254   0.04658   0.06180
 Alpha virt. eigenvalues --    0.06656   0.07040   0.07930   0.09835   0.10701
 Alpha virt. eigenvalues --    0.12697   0.13348   0.13812   0.14758   0.15433

 Mulliken charges:
               1
     1  C   -0.217756
     2  C    0.640049
     3  C    0.522545
     4  O   -0.943164
     5  C    0.046574
     6  O   -1.389833
     7  H    0.181234
     8  H    0.170919
     9  H    0.172616
    10  H    0.098831
    11  H    0.193670
    12  H    0.078638
    13  H    0.124110
    14  H    0.321566
 Sum of Mulliken charges =  -0.00000

 Dipole moment (field-independent basis, Debye):
    X=             -2.2062    Y=             -1.2266    Z=              2.1315  Tot=              3.3039

 Test job not archived.
 1\1\GINC-SE114\SP\RHF\Aug-CC-pVDZ\C4H8O2\OHZDE\09-Apr-2025\0\\#t hf au
 g-cc-pvdz iop(5/13=1,5/36=2,99/5=2) pseudo=read geom=check guess=(read
 ,tcheck) scf=(maxcycle=1)\\title\\0,1\C,0,-1.68419152,0.21886959,0.018
 04635\C,0,-0.35268788,0.06492094,0.7342867\C,0,0.60448132,-0.8788041,0
 .021715\O,0,0.9092773,-0.34497897,-1.28718134\C,0,2.04660207,0.1878832
 1,-1.57814327\O,0,0.27145914,1.31120439,0.96607212\H,0,-2.18817441,-0.
 74383663,-0.08441984\H,0,-2.33109477,0.88865013,0.58437962\H,0,-1.5426
 0987,0.63222597,-0.98307824\H,0,-0.52059582,-0.36221871,1.72758513\H,0

 Normal termination of Gaussian 16 at Wed Apr  9 17:10:22 2025.
