 Gaussian 16, Revision C.01,

 ----------------------------------------------------------------------
 #t hf aug-cc-pvdz symm=none int=(grid=ultrafine) guess=(read,tcheck) s
 table=(opt,rrhf)
 ----------------------------------------------------------------------
 -----
 title
 -----
 Symbolic Z-matrix:
 Charge =  0 Multiplicity = 1

 SCF Done:  E(RHF) =  -336.226362456     A.U. after   18 cycles
 Normal termination of Gaussian 16 at Wed Apr  9 18:38:12 2025.
 Gaussian 16:  ES64L-G16RevC.01  3-Jul-2019

 ----------------------------------------------------------------------
 #t hf aug-cc-pvdz iop(5/13=1,5/36=2,99/5=2) pseudo=read geom=check gue
 ss=(read,tcheck) scf=(maxcycle=1)
 ----------------------------------------------------------------------
 -----
 title
 -----
 Structure from the checkpoint file:  "Grambow2020_wb97xd3_007924_forward_mol1.chk"
 Charge =  0 Multiplicity = 1

                         Standard orientation:
 ---------------------------------------------------------------------
 Center     Atomic      Atomic             Coordinates (Angstroms)
 Number     Number       Type             X           Y           Z
 ---------------------------------------------------------------------
      1          7           0        2.379732   -0.102911    0.482057
      2          6           0        1.297413    0.286230   -0.142505
      3          8           0        0.219269   -1.050208   -0.413289
      4          6           0        0.380123    1.221958   -0.409394
      5          6           0       -0.439197    0.076898   -0.294307
      6          6           0       -1.828635    0.025865    0.110929
      7          7           0       -2.931088   -0.011861    0.425148
      8          1           0        2.877981    0.551772    1.061025
      9          1           0        2.769139   -1.012411    0.306518
 ---------------------------------------------------------------------

 SCF Done:  E(RHF) =  -336.553380067     A.U. after    2 cycles

 The electronic state is 1-A.
 Alpha  occ. eigenvalues --  -20.60719 -15.60256 -15.55351 -11.42885 -11.41997
 Alpha  occ. eigenvalues --  -11.30763 -11.23716  -1.53767  -1.31807  -1.26739
 Alpha  occ. eigenvalues --   -1.14353  -0.98243  -0.89109  -0.83120  -0.70914
 Alpha  occ. eigenvalues --   -0.67983  -0.66322  -0.64422  -0.57691  -0.56287
 Alpha  occ. eigenvalues --   -0.53544  -0.52736  -0.40713  -0.38082
 Alpha virt. eigenvalues --    0.01081   0.01237   0.04265   0.06754   0.08155
 Alpha virt. eigenvalues --    0.09177   0.09531   0.10308   0.11720   0.11844
 Alpha virt. eigenvalues --    0.12201   0.13313   0.14296   0.15194   0.15814

 Mulliken charges:
               1
     1  N    0.856539
     2  C   -0.616352
     3  O   -1.403587
     4  C   -0.497041
     5  C    2.507333
     6  C   -2.087935
     7  N    0.868303
     8  H    0.216967
     9  H    0.155770
 Sum of Mulliken charges =  -0.00000

 Dipole moment (field-independent basis, Debye):
    X=              6.5995    Y=             -1.8482    Z=              1.0413  Tot=              6.9320

 Test job not archived.
 1\1\GINC-SE168\SP\RHF\Aug-CC-pVDZ\C4H2N2O1\OHZDE\09-Apr-2025\0\\#t hf
 aug-cc-pvdz iop(5/13=1,5/36=2,99/5=2) pseudo=read geom=check guess=(re
 ad,tcheck) scf=(maxcycle=1)\\title\\0,1\N,0,-1.86817382,0.21705102,0.3
 3042013\C,0,-0.68746976,0.47923715,0.83053976\O,0,0.11450025,-0.978852
 57,1.3331349\C,0,0.41697304,1.23187265,0.87506336\C,0,0.97716034,-0.06
 159008,0.96906301\C,0,2.29472596,-0.48343602,0.54078193\N,0,3.34123753
 ,-0.81410024,0.20756408\H,0,-2.26390594,0.83961527,-0.35359423\H,0,-2.
 4199496,-0.53809017,0.69777305\\Version=ES64L-G16RevC.01\State=1-A\HF=

 Normal termination of Gaussian 16 at Wed Apr  9 18:38:15 2025.
