 Gaussian 16, Revision C.01,

 ----------------------------------------------------------------------
 #t hf aug-cc-pvdz symm=none int=(grid=ultrafine) guess=(read,tcheck) s
 table=(opt,rrhf)
 ----------------------------------------------------------------------
 -----
 title
 -----
 Symbolic Z-matrix:
 Charge =  0 Multiplicity = 1

 SCF Done:  E(RHF) =  -308.937525108     A.U. after   15 cycles

 1\1\GINC-SE035\Stability\RHF\Aug-CC-pVDZ\C6H12O1\OHZDE\09-Apr-2025\0\\
 #t hf aug-cc-pvdz symm=none int=(grid=ultrafine) guess=(read,tcheck) s
 table=(opt,rrhf)\\title\\0,1\C,0,2.63949789,-1.38575691,0.70846817\O,0
 ,1.38917782,-1.11716262,0.45494165\C,0,0.56901282,-0.3133791,1.0286837
 6\C,0,-0.30782103,1.7316921,-1.14269272\C,0,-1.11116905,1.27231556,0.0
 6704821\C,0,-0.82462853,-0.17787123,0.50828047\C,0,-1.13741813,-1.1957
 0126,-0.58409235\H,0,3.08393444,-2.12640761,0.06910329\H,0,3.13090979,
 -0.88930814,1.5332744\H,0,0.76400915,1.59645359,-0.97773412\H,0,0.9398

 Normal termination of Gaussian 16 at Wed Apr  9 18:59:13 2025.
 Gaussian 16:  ES64L-G16RevC.01  3-Jul-2019

 ----------------------------------------------------------------------
 #t hf aug-cc-pvdz iop(5/13=1,5/36=2,99/5=2) pseudo=read geom=check gue
 ss=(read,tcheck) scf=(maxcycle=1)
 ----------------------------------------------------------------------
 -----
 title
 -----
 Structure from the checkpoint file:  "Grambow2020_wb97xd3_008397_reverse_mol2.chk"
 Charge =  0 Multiplicity = 1

                         Standard orientation:
 ---------------------------------------------------------------------
 Center     Atomic      Atomic             Coordinates (Angstroms)
 Number     Number       Type             X           Y           Z
 ---------------------------------------------------------------------
      1          6           0       -2.784159   -0.520914   -0.249100
      2          8           0       -1.604840    0.024943   -0.144386
      3          6           0       -0.694147   -0.106644    0.750734
      4          6           0        1.812506   -1.217845   -0.714856
      5          6           0        1.787160   -0.351090    0.537327
      6          6           0        0.598132    0.629155    0.609199
      7          6           0        0.579838    1.614966   -0.554818
      8          1           0       -3.353833   -0.211237   -1.106099
      9          1           0       -3.120806   -1.204978    0.517045
     10          1           0        0.872372   -1.761692   -0.836097
     11          1           0       -0.894392   -0.785118    1.575883
     12          1           0        2.618299   -1.951884   -0.663323
     13          1           0        1.969826   -0.622007   -1.615665
     14          1           0        2.715948    0.223944    0.611846
     15          1           0        1.757117   -0.994502    1.422490
     16          1           0        0.744474    1.211344    1.529736
     17          1           0        1.543222    2.122774   -0.630006
     18          1           0        0.384264    1.116770   -1.505064
     19          1           0       -0.193750    2.371272   -0.416572
 ---------------------------------------------------------------------

 SCF Done:  E(RHF) =  -309.268658780     A.U. after    2 cycles

 The electronic state is 1-A.
 Alpha  occ. eigenvalues --  -20.67274 -11.29414 -11.25614 -11.24780 -11.23309
 Alpha  occ. eigenvalues --  -11.22524 -11.22241  -1.59171  -1.10973  -1.01879
 Alpha  occ. eigenvalues --   -0.97546  -0.89865  -0.82842  -0.78607  -0.71325
 Alpha  occ. eigenvalues --   -0.68902  -0.66039  -0.62121  -0.61418  -0.58727
 Alpha  occ. eigenvalues --   -0.55194  -0.54563  -0.52869  -0.50856  -0.48514
 Alpha  occ. eigenvalues --   -0.47884  -0.47574  -0.23752
 Alpha virt. eigenvalues --    0.03353   0.03675   0.03687   0.04109   0.05726
 Alpha virt. eigenvalues --    0.05953   0.06224   0.06387   0.06509   0.08570
 Alpha virt. eigenvalues --    0.08910   0.09337   0.10177   0.13464   0.13843

 Mulliken charges:
               1
     1  C    0.306342
     2  O   -1.048414
     3  C    1.460334
     4  C   -0.223575
     5  C   -0.243499
     6  C   -1.083783
     7  C   -0.181096
     8  H   -0.162447
     9  H   -0.046341
    10  H    0.158325
    11  H   -0.148684
    12  H    0.096543
    13  H    0.156458
    14  H    0.112360
    15  H    0.108390
    16  H    0.251019
    17  H    0.131421
    18  H    0.227353
    19  H    0.129293
 Sum of Mulliken charges =  -0.00000

 Dipole moment (field-independent basis, Debye):
    X=              1.3404    Y=              0.0657    Z=              0.8732  Tot=              1.6010

 Test job not archived.
 1\1\GINC-SE035\SP\RHF\Aug-CC-pVDZ\C6H12O1\OHZDE\09-Apr-2025\0\\#t hf a
 ug-cc-pvdz iop(5/13=1,5/36=2,99/5=2) pseudo=read geom=check guess=(rea
 d,tcheck) scf=(maxcycle=1)\\title\\0,1\C,0,2.63949789,-1.38575691,0.70
 846817\O,0,1.38917782,-1.11716262,0.45494165\C,0,0.56901282,-0.3133791
 ,1.02868376\C,0,-0.30782103,1.7316921,-1.14269272\C,0,-1.11116905,1.27
 231556,0.06704821\C,0,-0.82462853,-0.17787123,0.50828047\C,0,-1.137418
 13,-1.19570126,-0.58409235\H,0,3.08393444,-2.12640761,0.06910329\H,0,3
 .13090979,-0.88930814,1.5332744\H,0,0.76400915,1.59645359,-0.97773412\

 Normal termination of Gaussian 16 at Wed Apr  9 18:59:20 2025.
