 Gaussian 16, Revision C.01,

 ----------------------------------------------------------------------
 #t hf aug-cc-pvdz symm=none int=(grid=ultrafine) guess=(read,tcheck) s
 table=(opt,rrhf)
 ----------------------------------------------------------------------
 -----
 title
 -----
 Symbolic Z-matrix:
 Charge =  0 Multiplicity = 1

 SCF Done:  E(RHF) =  -353.378518660     A.U. after   20 cycles
 Normal termination of Gaussian 16 at Wed Apr  9 18:39:14 2025.
 Gaussian 16:  ES64L-G16RevC.01  3-Jul-2019

 ----------------------------------------------------------------------
 #t hf aug-cc-pvdz iop(5/13=1,5/36=2,99/5=2) pseudo=read geom=check gue
 ss=(read,tcheck) scf=(maxcycle=1)
 ----------------------------------------------------------------------
 -----
 title
 -----
 Structure from the checkpoint file:  "Grambow2020_wb97xd3_007939_forward_mol1.chk"
 Charge =  0 Multiplicity = 1

                         Standard orientation:
 ---------------------------------------------------------------------
 Center     Atomic      Atomic             Coordinates (Angstroms)
 Number     Number       Type             X           Y           Z
 ---------------------------------------------------------------------
      1          8           0       -1.930562   -0.565618   -0.269669
      2          6           0       -0.690748   -0.149918    0.047061
      3          6           0        0.278756   -1.217388    0.088242
      4          7           0        1.499011   -0.745922    0.103690
      5          7           0        1.920629    0.314369   -0.121870
      6          6           0        0.096722    1.304180   -0.385767
      7          7           0       -0.627068    1.118769    0.650295
      8          1           0       -2.560506    0.068791    0.091406
      9          1           0        0.040932   -2.257522   -0.032904
     10          1           0        0.307685    2.281924   -0.823160
 ---------------------------------------------------------------------

 SCF Done:  E(RHF) =  -353.728594198     A.U. after    2 cycles

 The electronic state is 1-A.
 Alpha  occ. eigenvalues --  -20.60776 -15.63162 -15.61961 -15.54147 -11.39932
 Alpha  occ. eigenvalues --  -11.31397 -11.28451  -1.53942  -1.46510  -1.32339
 Alpha  occ. eigenvalues --   -1.13424  -0.93853  -0.86579  -0.78440  -0.75632
 Alpha  occ. eigenvalues --   -0.72623  -0.70129  -0.68140  -0.67913  -0.61277
 Alpha  occ. eigenvalues --   -0.57958  -0.57164  -0.50188  -0.39818  -0.35007
 Alpha virt. eigenvalues --    0.00748   0.03551   0.04421   0.04933   0.08214
 Alpha virt. eigenvalues --    0.08392   0.09181   0.09478   0.10623   0.11657
 Alpha virt. eigenvalues --    0.12202   0.13690   0.14649   0.15483   0.16320

 Mulliken charges:
               1
     1  O   -1.358501
     2  C    0.651774
     3  C   -0.047657
     4  N   -0.367511
     5  N    0.617799
     6  C   -0.200960
     7  N    0.530292
     8  H    0.273138
     9  H   -0.020014
    10  H   -0.078360
 Sum of Mulliken charges =  -0.00000

 Dipole moment (field-independent basis, Debye):
    X=             -1.9809    Y=             -0.3545    Z=             -1.0854  Tot=              2.2865

 Test job not archived.
 1\1\GINC-SE168\SP\RHF\Aug-CC-pVDZ\C3H3N3O1\OHZDE\09-Apr-2025\0\\#t hf
 aug-cc-pvdz iop(5/13=1,5/36=2,99/5=2) pseudo=read geom=check guess=(re
 ad,tcheck) scf=(maxcycle=1)\\title\\0,1\O,0,1.8037879,-0.41212937,-0.2
 6420309\C,0,0.54048151,-0.11967744,0.09467268\C,0,0.25151882,1.2935600
 2,0.07502335\N,0,-1.03681579,1.51244565,0.1368724\N,0,-1.94864833,0.80
 573165,-0.01135516\C,0,-0.89548337,-0.98852026,-0.2293178\N,0,-0.13244
 494,-1.14472035,0.78312867\H,0,2.03900467,-1.25935653,0.13147245\H,0,0
 .97954023,2.05868834,-0.11908356\H,0,-1.59368369,-1.74293871,-0.596972

 Normal termination of Gaussian 16 at Wed Apr  9 18:39:18 2025.
