 Gaussian 16, Revision C.01,

 ----------------------------------------------------------------------
 #t hf aug-cc-pvdz symm=none int=(grid=ultrafine) guess=(read,tcheck) s
 table=(opt,rrhf)
 ----------------------------------------------------------------------
 -----
 title
 -----
 Symbolic Z-matrix:
 Charge =  0 Multiplicity = 1

 SCF Done:  E(RHF) =  -359.608133350     A.U. after   16 cycles
 Normal termination of Gaussian 16 at Wed Apr  9 18:17:42 2025.
 Gaussian 16:  ES64L-G16RevC.01  3-Jul-2019

 ----------------------------------------------------------------------
 #t hf aug-cc-pvdz iop(5/13=1,5/36=2,99/5=2) pseudo=read geom=check gue
 ss=(read,tcheck) scf=(maxcycle=1)
 ----------------------------------------------------------------------
 -----
 title
 -----
 Structure from the checkpoint file:  "Grambow2020_wb97xd3_007282_forward_mol1.chk"
 Charge =  0 Multiplicity = 1

                         Standard orientation:
 ---------------------------------------------------------------------
 Center     Atomic      Atomic             Coordinates (Angstroms)
 Number     Number       Type             X           Y           Z
 ---------------------------------------------------------------------
      1          8           0       -1.989473   -0.326194   -0.527596
      2          6           0       -1.086821   -0.611127    0.473463
      3          6           0       -0.177202   -1.611354    0.264517
      4          7           0        1.737891   -0.854453   -0.392616
      5          6           0        1.931821    0.361215    0.063140
      6          6           0        0.108959    1.118082    0.374410
      7          8           0       -0.418864    2.030580   -0.079861
      8          1           0       -2.260031    0.594433   -0.464370
      9          1           0       -1.401595   -0.365648    1.483820
     10          1           0        0.306485   -2.070649    1.111317
     11          1           0       -0.220227   -2.185620   -0.649641
     12          1           0        1.538732   -0.824288   -1.390127
     13          1           0        2.148844    1.194002   -0.606793
     14          1           0        2.328714    0.462949    1.070582
 ---------------------------------------------------------------------

 SCF Done:  E(RHF) =  -359.967624747     A.U. after    2 cycles

 The electronic state is 1-A.
 Alpha  occ. eigenvalues --  -20.62101 -20.56521 -15.49283 -11.36730 -11.29820
 Alpha  occ. eigenvalues --  -11.29474 -11.26225  -1.57356  -1.47555  -1.19944
 Alpha  occ. eigenvalues --   -1.03483  -0.88556  -0.81409  -0.78679  -0.73757
 Alpha  occ. eigenvalues --   -0.70458  -0.65836  -0.64275  -0.62683  -0.61690
 Alpha  occ. eigenvalues --   -0.59473  -0.57835  -0.55309  -0.49489  -0.46773
 Alpha  occ. eigenvalues --   -0.41220  -0.32196
 Alpha virt. eigenvalues --    0.03596   0.04209   0.04724   0.05010   0.05900
 Alpha virt. eigenvalues --    0.06381   0.06703   0.08200   0.09760   0.11024
 Alpha virt. eigenvalues --    0.11869   0.12979   0.13596   0.13955   0.14365

 Mulliken charges:
               1
     1  O   -1.352017
     2  C    1.162209
     3  C   -0.176464
     4  N    0.401618
     5  C   -0.918096
     6  C    0.983902
     7  O   -0.937280
     8  H    0.338203
     9  H    0.093519
    10  H   -0.032810
    11  H    0.013310
    12  H    0.228229
    13  H    0.149296
    14  H    0.046381
 Sum of Mulliken charges =  -0.00000

 Dipole moment (field-independent basis, Debye):
    X=             -0.0202    Y=              1.5279    Z=              0.9298  Tot=              1.7887

 Test job not archived.
 1\1\GINC-SE135\SP\RHF\Aug-CC-pVDZ\C4H7N1O2\OHZDE\09-Apr-2025\0\\#t hf
 aug-cc-pvdz iop(5/13=1,5/36=2,99/5=2) pseudo=read geom=check guess=(re
 ad,tcheck) scf=(maxcycle=1)\\title\\0,1\O,0,2.24490846,-0.01024886,-0.
 39180688\C,0,1.18622761,0.29939089,0.43366448\C,0,0.38800035,1.3588201
 1,0.09905559\N,0,-1.40666655,0.73952067,-0.93435752\C,0,-1.74876483,-0
 .47502036,-0.57237908\C,0,-0.06123479,-1.35021057,0.04312882\O,0,0.492
 65072,-2.27931806,-0.34103551\H,0,2.44836683,-0.94709081,-0.31641066\H
 ,0,1.29074355,0.00551271,1.47427773\H,0,-0.22130169,1.82149342,0.85843

 Normal termination of Gaussian 16 at Wed Apr  9 18:17:47 2025.
