 Gaussian 16, Revision C.01,

 ----------------------------------------------------------------------
 #t hf aug-cc-pvdz symm=none int=(grid=ultrafine) guess=(read,tcheck) s
 table=(opt,rrhf)
 ----------------------------------------------------------------------
 -----
 title
 -----
 Symbolic Z-matrix:
 Charge =  0 Multiplicity = 1

 SCF Done:  E(RHF) =  -264.857674653     A.U. after   16 cycles
 Normal termination of Gaussian 16 at Wed Apr  9 15:41:53 2025.
 Gaussian 16:  ES64L-G16RevC.01  3-Jul-2019

 ----------------------------------------------------------------------
 #t hf aug-cc-pvdz iop(5/13=1,5/36=2,99/5=2) pseudo=read geom=check gue
 ss=(read,tcheck) scf=(maxcycle=1)
 ----------------------------------------------------------------------
 -----
 title
 -----
 Structure from the checkpoint file:  "Grambow2020_b97d3_006631_forward_mol1.chk"
 Charge =  0 Multiplicity = 1

                         Standard orientation:
 ---------------------------------------------------------------------
 Center     Atomic      Atomic             Coordinates (Angstroms)
 Number     Number       Type             X           Y           Z
 ---------------------------------------------------------------------
      1          6           0       -1.641911   -0.873217    0.059627
      2          6           0       -0.202098   -1.152535   -0.116604
      3          6           0        0.768869    0.011766    0.361923
      4          7           0        2.109531   -0.202080   -0.143425
      5          6           0        0.061986    1.338305    0.033604
      6          7           0       -1.151181    1.339962   -0.128477
      7          1           0       -2.062159   -0.975441    1.063314
      8          1           0       -2.320973   -1.163807   -0.744991
      9          1           0       -2.115974    1.143977   -0.349693
     10          1           0        0.136221   -2.019291    0.472367
     11          1           0        0.035973   -1.355484   -1.171434
     12          1           0        0.818766    0.004148    1.464328
     13          1           0        2.124590   -0.008932   -1.148137
     14          1           0        2.754033    0.463738    0.286259
 ---------------------------------------------------------------------

 SCF Done:  E(RHF) =  -265.132535792     A.U. after    2 cycles

 The electronic state is 1-A.
 Alpha  occ. eigenvalues --  -15.55630 -15.49925 -11.29200 -11.28045 -11.25392
 Alpha  occ. eigenvalues --  -11.24193  -1.25280  -1.19233  -1.03798  -0.94454
 Alpha  occ. eigenvalues --   -0.85678  -0.81090  -0.71051  -0.68079  -0.64481
 Alpha  occ. eigenvalues --   -0.58991  -0.57951  -0.54601  -0.53209  -0.49408
 Alpha  occ. eigenvalues --   -0.47090  -0.45648  -0.27111
 Alpha virt. eigenvalues --    0.03548   0.03745   0.04353   0.04718   0.05325
 Alpha virt. eigenvalues --    0.05970   0.06274   0.07225   0.08689   0.09943
 Alpha virt. eigenvalues --    0.11286   0.12501   0.13408   0.13985   0.14240

 Mulliken charges:
               1
     1  C    0.068979
     2  C   -0.181622
     3  C   -1.142947
     4  N    0.490787
     5  C   -1.228088
     6  N    0.818150
     7  H    0.003826
     8  H   -0.000650
     9  H    0.144174
    10  H    0.274565
    11  H    0.149858
    12  H    0.195840
    13  H    0.208580
    14  H    0.198547
 Sum of Mulliken charges =   0.00000

 Dipole moment (field-independent basis, Debye):
    X=             -0.8700    Y=             -1.1709    Z=             -0.2157  Tot=              1.4746

 Test job not archived.
 1\1\GINC-SE057\SP\RHF\Aug-CC-pVDZ\C4H8N2\OHZDE\09-Apr-2025\0\\#t hf au
 g-cc-pvdz iop(5/13=1,5/36=2,99/5=2) pseudo=read geom=check guess=(read
 ,tcheck) scf=(maxcycle=1)\\title\\0,1\C,0,-1.65887831,0.21889328,0.248
 73889\C,0,-0.50989328,-0.70938181,0.23212321\C,0,0.91684761,-0.0088212
 4,0.2635247\N,0,1.9572669,-0.95452248,-0.08527322\C,0,0.79151447,1.284
 049,-0.56107242\N,0,-0.31888761,1.7643777,-0.74638228\H,0,-1.93500115,
 0.6716333,1.20436793\H,0,-2.50459946,-0.00311908,-0.40581839\H,0,-1.29
 778408,1.95105558,-0.90476731\H,0,-0.48524671,-1.36840562,1.11399141\H

 Normal termination of Gaussian 16 at Wed Apr  9 15:41:57 2025.
