 Gaussian 16, Revision C.01,

 ----------------------------------------------------------------------
 #t hf aug-cc-pvdz symm=none int=(grid=ultrafine) guess=(read,tcheck) s
 table=(opt,rrhf)
 ----------------------------------------------------------------------
 -----
 title
 -----
 Symbolic Z-matrix:
 Charge =  0 Multiplicity = 1

 SCF Done:  E(RHF) =  -285.938822426     A.U. after   14 cycles
 Normal termination of Gaussian 16 at Wed Apr  9 03:21:07 2025.
 Gaussian 16:  ES64L-G16RevC.01  3-Jul-2019

 ----------------------------------------------------------------------
 #t hf aug-cc-pvdz iop(5/13=1,5/36=2,99/5=2) pseudo=read geom=check gue
 ss=(read,tcheck) scf=(maxcycle=1)
 ----------------------------------------------------------------------
 -----
 title
 -----
 Structure from the checkpoint file:  "Grambow2020_wb97xd3_006063_forward_mol1.chk"
 Charge =  0 Multiplicity = 1

                         Standard orientation:
 ---------------------------------------------------------------------
 Center     Atomic      Atomic             Coordinates (Angstroms)
 Number     Number       Type             X           Y           Z
 ---------------------------------------------------------------------
      1          6           0       -2.397708   -0.463947    0.510740
      2          6           0       -1.477329    0.211485   -0.480154
      3          6           0       -0.619850    1.223303   -0.102485
      4          6           0        1.251372    0.077202    0.018849
      5          8           0        0.791371   -1.031504   -0.381004
      6          7           0        2.543526    0.104650    0.307807
      7          1           0       -2.596531   -1.504615    0.243239
      8          1           0       -3.366937    0.039332    0.584177
      9          1           0       -1.955794   -0.465994    1.510952
     10          1           0       -0.270435   -0.754940   -0.543812
     11          1           0       -1.768092    0.170677   -1.527283
     12          1           0       -0.235753    1.930407   -0.826196
     13          1           0       -0.576511    1.568718    0.923876
     14          1           0        3.135386   -0.709878    0.217690
     15          1           0        2.960106    0.957510    0.629046
 ---------------------------------------------------------------------

 SCF Done:  E(RHF) =  -286.240480506     A.U. after    2 cycles

 The electronic state is 1-A.
 Alpha  occ. eigenvalues --  -20.55761 -15.53310 -11.30688 -11.26519 -11.21458
 Alpha  occ. eigenvalues --  -11.18895  -1.49915  -1.22673  -1.05304  -0.92315
 Alpha  occ. eigenvalues --   -0.86242  -0.76965  -0.76399  -0.67943  -0.65241
 Alpha  occ. eigenvalues --   -0.63790  -0.59282  -0.57781  -0.54869  -0.51379
 Alpha  occ. eigenvalues --   -0.48441  -0.46562  -0.39298  -0.30930
 Alpha virt. eigenvalues --    0.02657   0.04478   0.04646   0.04780   0.06065
 Alpha virt. eigenvalues --    0.06458   0.06749   0.07739   0.09323   0.11756
 Alpha virt. eigenvalues --    0.12231   0.12899   0.13821   0.15424   0.15976

 Mulliken charges:
               1
     1  C   -0.379662
     2  C   -0.157265
     3  C    0.097193
     4  C   -0.126341
     5  O   -1.471925
     6  N    0.740565
     7  H    0.131666
     8  H    0.157623
     9  H    0.104394
    10  H    0.996093
    11  H   -0.101771
    12  H   -0.051808
    13  H   -0.055256
    14  H    0.000590
    15  H    0.115905
 Sum of Mulliken charges =  -0.00000

 Dipole moment (field-independent basis, Debye):
    X=              2.1092    Y=              1.2450    Z=              0.6689  Tot=              2.5390

 Test job not archived.
 1\1\GINC-SE452\SP\RHF\Aug-CC-pVDZ\C4H9N1O1\OHZDE\09-Apr-2025\0\\#t hf
 aug-cc-pvdz iop(5/13=1,5/36=2,99/5=2) pseudo=read geom=check guess=(re
 ad,tcheck) scf=(maxcycle=1)\\title\\0,1\C,0,2.11156715,0.50000513,-0.2
 7379406\C,0,0.9878534,-0.42071027,-0.69179997\C,0,0.24527283,-1.126477
 76,0.23131805\C,0,-1.54990696,0.13999831,0.28708875\O,0,-1.19934718,0.
 96171988,-0.60878597\N,0,-2.73907652,0.34232895,0.83376051\H,0,2.23919
 694,1.33387058,-0.9683853\H,0,3.07286701,-0.02033895,-0.21695524\H,0,1
 .91485429,0.92832898,0.71289775\H,0,-0.20380166,0.54979044,-0.8726586\

 Normal termination of Gaussian 16 at Wed Apr  9 03:21:12 2025.
