 Gaussian 16, Revision C.01,

 ----------------------------------------------------------------------
 #t hf aug-cc-pvdz symm=none int=(grid=ultrafine) guess=(read,tcheck) s
 table=(opt,rrhf)
 ----------------------------------------------------------------------
 -----
 title
 -----
 Symbolic Z-matrix:
 Charge =  0 Multiplicity = 1

 SCF Done:  E(RHF) =  -307.780979652     A.U. after   16 cycles

 1\1\GINC-SE145\Stability\RHF\Aug-CC-pVDZ\C6H10O1\OHZDE\09-Apr-2025\0\\
 #t hf aug-cc-pvdz symm=none int=(grid=ultrafine) guess=(read,tcheck) s
 table=(opt,rrhf)\\title\\0,1\C,0,-1.72925643,0.06451486,-0.27715368\C,
 0,-0.8248064,0.45757037,0.87006644\C,0,-0.31360563,-0.69419912,1.70719
 342\C,0,1.09682965,-1.23654783,-1.15618906\C,0,1.70268058,0.01579825,-
 1.11871466\C,0,1.25709293,1.10265631,-0.37936743\O,0,0.27022329,1.3302
 9027,0.42240058\H,0,-2.63746981,-0.37331624,0.14159877\H,0,-1.24139725
 ,-0.67208021,-0.91338443\H,0,-2.01539073,0.94000564,-0.8621413\H,0,-1.

 Normal termination of Gaussian 16 at Wed Apr  9 19:17:15 2025.
 Gaussian 16:  ES64L-G16RevC.01  3-Jul-2019

 ----------------------------------------------------------------------
 #t hf aug-cc-pvdz iop(5/13=1,5/36=2,99/5=2) pseudo=read geom=check gue
 ss=(read,tcheck) scf=(maxcycle=1)
 ----------------------------------------------------------------------
 -----
 title
 -----
 Structure from the checkpoint file:  "Grambow2020_wb97xd3_009038_reverse_mol2.chk"
 Charge =  0 Multiplicity = 1

                         Standard orientation:
 ---------------------------------------------------------------------
 Center     Atomic      Atomic             Coordinates (Angstroms)
 Number     Number       Type             X           Y           Z
 ---------------------------------------------------------------------
      1          6           0       -1.312035    0.502626    1.279401
      2          6           0       -1.266978   -0.306295    0.001804
      3          6           0       -1.323785    0.505556   -1.273480
      4          6           0        1.515252    1.404729   -0.003132
      5          6           0        1.955726    0.084577    0.000430
      6          6           0        1.136941   -1.036150   -0.001675
      7          8           0       -0.137433   -1.247159   -0.004361
      8          1           0       -2.282917    0.999089    1.332453
      9          1           0       -0.527358    1.257375    1.281747
     10          1           0       -1.216442   -0.145729    2.151791
     11          1           0       -2.089575   -1.023265    0.005091
     12          1           0       -0.538628    1.259945   -1.282454
     13          1           0       -2.294466    1.003308   -1.315570
     14          1           0        2.405990    2.054719   -0.008408
     15          1           0        3.008091   -0.213654    0.002538
     16          1           0       -1.236407   -0.140418   -2.148443
     17          1           0        1.640465   -2.004357   -0.003941
 ---------------------------------------------------------------------

 SCF Done:  E(RHF) =  -308.102780648     A.U. after    2 cycles

 The electronic state is 1-A.
 Alpha  occ. eigenvalues --  -20.60669 -11.36264 -11.31034 -11.22242 -11.22200
 Alpha  occ. eigenvalues --  -11.22184 -11.21874  -1.53995  -1.09425  -1.05167
 Alpha  occ. eigenvalues --   -0.94625  -0.91714  -0.83925  -0.74034  -0.70711
 Alpha  occ. eigenvalues --   -0.64334  -0.64253  -0.62028  -0.58460  -0.55664
 Alpha  occ. eigenvalues --   -0.55485  -0.53621  -0.50656  -0.50095  -0.47357
 Alpha  occ. eigenvalues --   -0.37324  -0.33139
 Alpha virt. eigenvalues --    0.03124   0.03569   0.04093   0.04424   0.04998
 Alpha virt. eigenvalues --    0.05767   0.05950   0.06715   0.07446   0.08334
 Alpha virt. eigenvalues --    0.09189   0.11565   0.12913   0.13680   0.14409

 Mulliken charges:
               1
     1  C   -0.140294
     2  C    0.137409
     3  C   -0.138607
     4  C   -0.546288
     5  C    0.740581
     6  C    0.617648
     7  O   -1.509069
     8  H    0.180941
     9  H    0.242621
    10  H    0.172122
    11  H    0.002629
    12  H    0.241492
    13  H    0.181588
    14  H   -0.046964
    15  H   -0.215239
    16  H    0.171789
    17  H   -0.092359
 Sum of Mulliken charges =  -0.00000

 Dipole moment (field-independent basis, Debye):
    X=             -0.7397    Y=             -2.1533    Z=              0.0065  Tot=              2.2768

 Test job not archived.
 1\1\GINC-SE145\SP\RHF\Aug-CC-pVDZ\C6H10O1\OHZDE\09-Apr-2025\0\\#t hf a
 ug-cc-pvdz iop(5/13=1,5/36=2,99/5=2) pseudo=read geom=check guess=(rea
 d,tcheck) scf=(maxcycle=1)\\title\\0,1\C,0,-1.72925643,0.06451486,-0.2
 7715368\C,0,-0.8248064,0.45757037,0.87006644\C,0,-0.31360563,-0.694199
 12,1.70719342\C,0,1.09682965,-1.23654783,-1.15618906\C,0,1.70268058,0.
 01579825,-1.11871466\C,0,1.25709293,1.10265631,-0.37936743\O,0,0.27022
 329,1.33029027,0.42240058\H,0,-2.63746981,-0.37331624,0.14159877\H,0,-
 1.24139725,-0.67208021,-0.91338443\H,0,-2.01539073,0.94000564,-0.86214

 Normal termination of Gaussian 16 at Wed Apr  9 19:17:21 2025.
