 Gaussian 16, Revision C.01,

 ----------------------------------------------------------------------
 #t hf aug-cc-pvdz symm=none int=(grid=ultrafine) guess=(read,tcheck) s
 table=(opt,rrhf)
 ----------------------------------------------------------------------
 -----
 title
 -----
 Symbolic Z-matrix:
 Charge =  0 Multiplicity = 1

 SCF Done:  E(RHF) =  -286.090752077     A.U. after   13 cycles
 Normal termination of Gaussian 16 at Wed Apr  9 03:21:04 2025.
 Gaussian 16:  ES64L-G16RevC.01  3-Jul-2019

 ----------------------------------------------------------------------
 #t hf aug-cc-pvdz iop(5/13=1,5/36=2,99/5=2) pseudo=read geom=check gue
 ss=(read,tcheck) scf=(maxcycle=1)
 ----------------------------------------------------------------------
 -----
 title
 -----
 Structure from the checkpoint file:  "Grambow2020_wb97xd3_006063_forward_mol2.chk"
 Charge =  0 Multiplicity = 1

                         Standard orientation:
 ---------------------------------------------------------------------
 Center     Atomic      Atomic             Coordinates (Angstroms)
 Number     Number       Type             X           Y           Z
 ---------------------------------------------------------------------
      1          6           0        2.720012   -0.198487    0.029818
      2          6           0        1.341940    0.372238   -0.273134
      3          6           0        0.218895   -0.518335    0.240399
      4          6           0       -1.153392    0.104800    0.056590
      5          8           0       -1.343010    1.300985    0.110050
      6          7           0       -2.169914   -0.775466   -0.146382
      7          1           0        3.508864    0.447180   -0.359184
      8          1           0        2.851927   -1.187077   -0.418130
      9          1           0        2.877871   -0.301405    1.106467
     10          1           0        1.229580    1.361819    0.172546
     11          1           0        1.222558    0.511182   -1.351399
     12          1           0        0.257834   -1.503053   -0.235571
     13          1           0        0.343783   -0.688314    1.315868
     14          1           0       -3.104948   -0.416530   -0.220874
     15          1           0       -2.018721   -1.764711   -0.187483
 ---------------------------------------------------------------------

 SCF Done:  E(RHF) =  -286.392510824     A.U. after    2 cycles

 The electronic state is 1-A.
 Alpha  occ. eigenvalues --  -20.50323 -15.52586 -11.35404 -11.24596 -11.22982
 Alpha  occ. eigenvalues --  -11.22604  -1.45690  -1.22271  -1.07839  -0.96859
 Alpha  occ. eigenvalues --   -0.85059  -0.80414  -0.75450  -0.68634  -0.65091
 Alpha  occ. eigenvalues --   -0.61150  -0.59829  -0.57236  -0.53824  -0.51461
 Alpha  occ. eigenvalues --   -0.49289  -0.48152  -0.43361  -0.41801
 Alpha virt. eigenvalues --    0.02628   0.03884   0.04340   0.04635   0.06163
 Alpha virt. eigenvalues --    0.06380   0.07454   0.08161   0.08992   0.11246
 Alpha virt. eigenvalues --    0.11728   0.13090   0.14578   0.14920   0.15429

 Mulliken charges:
               1
     1  C   -0.360107
     2  C   -0.209068
     3  C   -0.459998
     4  C    0.491838
     5  O   -1.316899
     6  N    0.674983
     7  H    0.121369
     8  H    0.158465
     9  H    0.152644
    10  H    0.148153
    11  H    0.107511
    12  H    0.116292
    13  H    0.245249
    14  H    0.088838
    15  H    0.040730
 Sum of Mulliken charges =  -0.00000

 Dipole moment (field-independent basis, Debye):
    X=              0.1974    Y=             -3.6329    Z=             -0.1780  Tot=              3.6426

 Test job not archived.
 1\1\GINC-SE345\SP\RHF\Aug-CC-pVDZ\C4H9N1O1\OHZDE\09-Apr-2025\0\\#t hf
 aug-cc-pvdz iop(5/13=1,5/36=2,99/5=2) pseudo=read geom=check guess=(re
 ad,tcheck) scf=(maxcycle=1)\\title\\0,1\C,0,2.23697135,-0.0389046,-0.3
 732508\C,0,0.79632578,0.3518492,-0.6706421\C,0,-0.16939812,-0.12931897
 ,0.40356439\C,0,-1.58732024,0.36578679,0.18080366\O,0,-1.83534758,1.43
 669067,-0.33039118\N,0,-2.56984909,-0.46513145,0.62079716\H,0,2.909355
 99,0.30250966,-1.16181311\H,0,2.34937185,-1.12327915,-0.29039004\H,0,2
 .58017303,0.4002422,0.5669874\H,0,0.70272398,1.43531349,-0.75936067\H,

 Normal termination of Gaussian 16 at Wed Apr  9 03:21:08 2025.
