 Gaussian 16, Revision C.01,

 ----------------------------------------------------------------------
 #t hf aug-cc-pvdz symm=none int=(grid=ultrafine) guess=(read,tcheck) s
 table=(opt,rrhf)
 ----------------------------------------------------------------------
 -----
 title
 -----
 Symbolic Z-matrix:
 Charge =  0 Multiplicity = 1

 SCF Done:  E(RHF) =  -360.889281551     A.U. after   15 cycles
 Normal termination of Gaussian 16 at Wed Apr  9 17:28:14 2025.
 Gaussian 16:  ES64L-G16RevC.01  3-Jul-2019

 ----------------------------------------------------------------------
 #t hf aug-cc-pvdz iop(5/13=1,5/36=2,99/5=2) pseudo=read geom=check gue
 ss=(read,tcheck) scf=(maxcycle=1)
 ----------------------------------------------------------------------
 -----
 title
 -----
 Structure from the checkpoint file:  "Grambow2020_wb97xd3_006609_reverse_mol2.chk"
 Charge =  0 Multiplicity = 1

                         Standard orientation:
 ---------------------------------------------------------------------
 Center     Atomic      Atomic             Coordinates (Angstroms)
 Number     Number       Type             X           Y           Z
 ---------------------------------------------------------------------
      1          6           0        2.402930   -0.030749   -0.338092
      2          6           0        1.040057   -0.435145    0.127530
      3          8           0        0.588507   -1.543133   -0.077859
      4          6           0        0.196063    0.603719    0.854130
      5          7           0       -0.856621    1.147782    0.008921
      6          6           0       -1.828835    0.409830   -0.327495
      7          8           0       -2.030880   -0.887158   -0.095595
      8          1           0        2.312600    0.857426   -0.968678
      9          1           0        2.882077   -0.838649   -0.885574
     10          1           0        3.012627    0.255533    0.522600
     11          1           0        1.160989    3.593895   -0.725322
     12          1           0       -1.181896   -1.329738    0.113872
     13          1           0       -0.217643    0.116960    1.746517
     14          1           0        0.821999    1.434524    1.181173
     15          1           0        0.540857    3.177005   -0.682737
     16          1           0       -2.657568    0.854979   -0.873107
 ---------------------------------------------------------------------

 SCF Done:  E(RHF) =  -361.260202320     A.U. after    2 cycles

 The electronic state is 1-A.
 Alpha  occ. eigenvalues --  -20.58105 -20.56215 -15.49383 -11.36272 -11.35024
 Alpha  occ. eigenvalues --  -11.28329 -11.25859  -1.51564  -1.49625  -1.23267
 Alpha  occ. eigenvalues --   -1.06074  -0.99197  -0.85944  -0.78067  -0.73655
 Alpha  occ. eigenvalues --   -0.70913  -0.68219  -0.65682  -0.62095  -0.60725
 Alpha  occ. eigenvalues --   -0.59333  -0.57666  -0.56273  -0.55683  -0.52333
 Alpha  occ. eigenvalues --   -0.47513  -0.45062  -0.40788
 Alpha virt. eigenvalues --    0.03262   0.04046   0.04536   0.05047   0.06072
 Alpha virt. eigenvalues --    0.06767   0.07023   0.08182   0.08460   0.09835
 Alpha virt. eigenvalues --    0.11100   0.11504   0.13143   0.13466   0.14660

 Mulliken charges:
               1
     1  C   -0.490173
     2  C    1.236909
     3  O   -1.420347
     4  C   -0.603765
     5  N    0.746084
     6  C    0.326697
     7  O   -1.225609
     8  H    0.289872
     9  H    0.123340
    10  H    0.280439
    11  H    0.054825
    12  H    0.571496
    13  H    0.112502
    14  H    0.026988
    15  H   -0.040244
    16  H    0.010984
 Sum of Mulliken charges =  -0.00000

 Dipole moment (field-independent basis, Debye):
    X=              2.0368    Y=              0.5298    Z=              0.7485  Tot=              2.2337

 Test job not archived.
 1\1\GINC-SE454\SP\RHF\Aug-CC-pVDZ\C4H9N1O2\OHZDE\09-Apr-2025\0\\#t hf
 aug-cc-pvdz iop(5/13=1,5/36=2,99/5=2) pseudo=read geom=check guess=(re
 ad,tcheck) scf=(maxcycle=1)\\title\\0,1\C,0,-1.93354601,-0.63100439,-0
 .58101005\C,0,-1.02732164,0.45167447,-0.08671731\O,0,-1.14357005,1.606
 03134,-0.44402261\C,0,0.09102477,0.06477303,0.87198938\N,0,1.3911543,0
 .03334517,0.21838165\C,0,1.92271188,1.11730309,-0.16297441\O,0,1.43277
 881,2.35679686,-0.14304477\H,0,-1.32853046,-1.41710728,-1.03997788\H,0
 ,-2.65334819,-0.23919193,-1.29542629\H,0,-2.45232244,-1.08759085,0.265

 Normal termination of Gaussian 16 at Wed Apr  9 17:28:20 2025.
