 Gaussian 16, Revision C.01,

 ----------------------------------------------------------------------
 #t hf aug-cc-pvdz symm=none int=(grid=ultrafine) guess=(read,tcheck) s
 table=(opt,rrhf)
 ----------------------------------------------------------------------
 -----
 title
 -----
 Symbolic Z-matrix:
 Charge =  0 Multiplicity = 1

 SCF Done:  E(RHF) =  -306.967705341     A.U. after   13 cycles

 1\1\GINC-SE226\Stability\RHF\Aug-CC-pVDZ\C4H10O2\OHZDE\09-Apr-2025\0\\
 #t hf aug-cc-pvdz symm=none int=(grid=ultrafine) guess=(read,tcheck) s
 table=(opt,rrhf)\\title\\0,1\C,0,-2.13628764,-0.98850582,-0.32504742\C
 ,0,-1.21100501,0.0413199,-0.90785765\C,0,0.12909588,-0.09726176,-0.947
 23018\O,0,0.94215063,0.79889459,-1.58042507\C,0,0.59694598,1.28112483,
 1.46021617\O,0,1.74646253,1.42927326,1.07188229\H,0,-2.80515776,-1.410
 57421,-1.09238338\H,0,-1.57782252,-1.82197639,0.12456509\H,0,-2.782654
 68,-0.55215332,0.45313769\H,0,-1.6469265,0.93357683,-1.36271776\H,0,0.

 Normal termination of Gaussian 16 at Wed Apr  9 16:04:31 2025.
 Gaussian 16:  ES64L-G16RevC.01  3-Jul-2019

 ----------------------------------------------------------------------
 #t hf aug-cc-pvdz iop(5/13=1,5/36=2,99/5=2) pseudo=read geom=check gue
 ss=(read,tcheck) scf=(maxcycle=1)
 ----------------------------------------------------------------------
 -----
 title
 -----
 Structure from the checkpoint file:  "Grambow2020_b97d3_007105_reverse_mol2.chk"
 Charge =  0 Multiplicity = 1

                         Standard orientation:
 ---------------------------------------------------------------------
 Center     Atomic      Atomic             Coordinates (Angstroms)
 Number     Number       Type             X           Y           Z
 ---------------------------------------------------------------------
      1          6           0        2.500808   -0.698241    0.340492
      2          6           0        1.504113    0.161585   -0.383149
      3          6           0        0.458233    0.760148    0.220575
      4          8           0       -0.370687    1.626138   -0.433674
      5          6           0       -1.370257   -1.304449   -0.335025
      6          8           0       -2.253051   -0.482704   -0.136152
      7          1           0        3.510022   -0.256571    0.313159
      8          1           0        2.224540   -0.832040    1.396182
      9          1           0        2.579123   -1.695818   -0.120455
     10          1           0        1.655310    0.347917   -1.448732
     11          1           0        0.256644    0.597149    1.285629
     12          1           0       -2.236259    0.773085    2.869229
     13          1           0       -1.289369    1.426225   -0.155205
     14          1           0       -0.995133   -1.532578   -1.356162
     15          1           0       -0.910424   -1.896257    0.487062
     16          1           0       -2.361925    0.407157    2.230541
 ---------------------------------------------------------------------

 SCF Done:  E(RHF) =  -307.288417981     A.U. after    2 cycles

 The electronic state is 1-A.
 Alpha  occ. eigenvalues --  -20.56793 -20.56334 -11.36712 -11.29831 -11.24377
 Alpha  occ. eigenvalues --  -11.23865  -1.48856  -1.46983  -1.06410  -0.93075
 Alpha  occ. eigenvalues --   -0.88349  -0.77669  -0.72102  -0.69843  -0.65862
 Alpha  occ. eigenvalues --   -0.64064  -0.60606  -0.58810  -0.57491  -0.55094
 Alpha  occ. eigenvalues --   -0.53348  -0.52305  -0.48982  -0.44137  -0.34653
 Alpha virt. eigenvalues --    0.02990   0.03841   0.04085   0.05170   0.06319
 Alpha virt. eigenvalues --    0.06531   0.07024   0.07530   0.08221   0.09525
 Alpha virt. eigenvalues --    0.10530   0.11669   0.12560   0.13233   0.14575

 Mulliken charges:
               1
     1  C   -0.688404
     2  C    0.299955
     3  C    1.108332
     4  O   -1.444091
     5  C    0.567185
     6  O   -0.898061
     7  H    0.217255
     8  H    0.110380
     9  H    0.218091
    10  H   -0.168298
    11  H   -0.071374
    12  H    0.094953
    13  H    0.441103
    14  H    0.139812
    15  H    0.176032
    16  H   -0.102869
 Sum of Mulliken charges =  -0.00000

 Dipole moment (field-independent basis, Debye):
    X=              1.3082    Y=             -2.7908    Z=              0.4621  Tot=              3.1166

 Test job not archived.
 1\1\GINC-SE226\SP\RHF\Aug-CC-pVDZ\C4H10O2\OHZDE\09-Apr-2025\0\\#t hf a
 ug-cc-pvdz iop(5/13=1,5/36=2,99/5=2) pseudo=read geom=check guess=(rea
 d,tcheck) scf=(maxcycle=1)\\title\\0,1\C,0,-2.13628764,-0.98850582,-0.
 32504742\C,0,-1.21100501,0.0413199,-0.90785765\C,0,0.12909588,-0.09726
 176,-0.94723018\O,0,0.94215063,0.79889459,-1.58042507\C,0,0.59694598,1
 .28112483,1.46021617\O,0,1.74646253,1.42927326,1.07188229\H,0,-2.80515
 776,-1.41057421,-1.09238338\H,0,-1.57782252,-1.82197639,0.12456509\H,0
 ,-2.78265468,-0.55215332,0.45313769\H,0,-1.6469265,0.93357683,-1.36271

 Normal termination of Gaussian 16 at Wed Apr  9 16:04:36 2025.
