 Gaussian 16, Revision C.01,

 ----------------------------------------------------------------------
 #t hf aug-cc-pvdz symm=none int=(grid=ultrafine) guess=(read,tcheck) s
 table=(opt,rrhf)
 ----------------------------------------------------------------------
 -----
 title
 -----
 Symbolic Z-matrix:
 Charge =  0 Multiplicity = 1

 SCF Done:  E(RHF) =  -339.926092003     A.U. after   14 cycles
 Normal termination of Gaussian 16 at Wed Apr  9 03:33:33 2025.
 Gaussian 16:  ES64L-G16RevC.01  3-Jul-2019

 ----------------------------------------------------------------------
 #t hf aug-cc-pvdz iop(5/13=1,5/36=2,99/5=2) pseudo=read geom=check gue
 ss=(read,tcheck) scf=(maxcycle=1)
 ----------------------------------------------------------------------
 -----
 title
 -----
 Structure from the checkpoint file:  "Grambow2020_wb97xd3_007001_forward_mol2.chk"
 Charge =  0 Multiplicity = 1

                         Standard orientation:
 ---------------------------------------------------------------------
 Center     Atomic      Atomic             Coordinates (Angstroms)
 Number     Number       Type             X           Y           Z
 ---------------------------------------------------------------------
      1          6           0        0.070871    1.525227   -0.686176
      2          6           0        0.157488    0.210709    0.091314
      3          8           0       -0.107279    0.416666    1.456242
      4          6           0       -0.821833   -0.852012   -0.459153
      5          7           0       -2.176872   -0.471402   -0.093965
      6          6           0        1.527179   -0.330813   -0.026767
      7          7           0        2.580299   -0.760785   -0.170584
      8          1           0        0.755938    2.252475   -0.253024
      9          1           0       -0.942438    1.922776   -0.607094
     10          1           0        0.323031    1.383508   -1.738491
     11          1           0       -1.072294    0.358057    1.525415
     12          1           0       -0.585690   -1.801215    0.022960
     13          1           0       -0.663530   -0.974369   -1.535598
     14          1           0       -2.763385   -1.275801    0.064417
     15          1           0       -2.619618    0.107879   -0.791978
 ---------------------------------------------------------------------

 SCF Done:  E(RHF) =  -340.276053310     A.U. after    2 cycles

 The electronic state is 1-A.
 Alpha  occ. eigenvalues --  -20.56118 -15.52275 -15.51132 -11.34325 -11.29272
 Alpha  occ. eigenvalues --  -11.27304 -11.25030  -1.47790  -1.23556  -1.21959
 Alpha  occ. eigenvalues --   -1.07673  -0.96052  -0.88066  -0.75159  -0.72151
 Alpha  occ. eigenvalues --   -0.70380  -0.65919  -0.65193  -0.60989  -0.59832
 Alpha  occ. eigenvalues --   -0.56591  -0.54630  -0.52891  -0.50790  -0.50204
 Alpha  occ. eigenvalues --   -0.48267  -0.44716
 Alpha virt. eigenvalues --    0.02122   0.03907   0.04288   0.04755   0.05966
 Alpha virt. eigenvalues --    0.06297   0.06630   0.07617   0.09703   0.11835
 Alpha virt. eigenvalues --    0.12255   0.13278   0.13746   0.14434   0.15039

 Mulliken charges:
               1
     1  C    0.137656
     2  C    0.711886
     3  O   -1.442074
     4  C   -0.487410
     5  N    0.179988
     6  C   -1.810318
     7  N    1.081167
     8  H    0.205054
     9  H    0.191612
    10  H    0.291426
    11  H    0.326651
    12  H    0.041467
    13  H    0.126737
    14  H    0.243737
    15  H    0.202421
 Sum of Mulliken charges =  -0.00000

 Dipole moment (field-independent basis, Debye):
    X=             -6.0088    Y=              0.5836    Z=             -2.0403  Tot=              6.3725

 Test job not archived.
 1\1\GINC-SE328\SP\RHF\Aug-CC-pVDZ\C4H8N2O1\OHZDE\09-Apr-2025\0\\#t hf
 aug-cc-pvdz iop(5/13=1,5/36=2,99/5=2) pseudo=read geom=check guess=(re
 ad,tcheck) scf=(maxcycle=1)\\title\\0,1\C,0,0.61602048,1.42760129,-0.2
 0185698\C,0,0.62192263,-0.04160854,0.22398257\O,0,0.56412376,-0.158637
 95,1.62345074\C,0,-0.55486368,-0.82852771,-0.39842551\N,0,-1.78780744,
 -0.41732909,0.25359019\C,0,1.87897431,-0.67112429,-0.23073911\N,0,2.83
 686687,-1.15496272,-0.63442555\H,0,1.44316857,1.95047033,0.27590922\H,
 0,-0.31543192,1.89243633,0.12589075\H,0,0.71008938,1.52943257,-1.28436

 Normal termination of Gaussian 16 at Wed Apr  9 03:33:38 2025.
