 Gaussian 16, Revision C.01,

 ----------------------------------------------------------------------
 #t hf aug-cc-pvdz symm=none int=(grid=ultrafine) guess=(read,tcheck) s
 table=(opt,rrhf)
 ----------------------------------------------------------------------
 -----
 title
 -----
 Symbolic Z-matrix:
 Charge =  0 Multiplicity = 1

 SCF Done:  E(RHF) =  -308.908631211     A.U. after   15 cycles

 1\1\GINC-SE118\Stability\RHF\Aug-CC-pVDZ\C6H12O1\OHZDE\09-Apr-2025\0\\
 #t hf aug-cc-pvdz symm=none int=(grid=ultrafine) guess=(read,tcheck) s
 table=(opt,rrhf)\\title\\0,1\C,0,2.4559203,-0.56731661,-0.39458621\O,0
 ,1.06581617,-0.68519825,-0.19122045\C,0,0.5698532,0.1541405,0.78839231
 \C,0,0.06305911,1.50790844,0.31415738\C,0,-1.25445933,1.05314769,-0.30
 551854\C,0,-1.57297208,-0.12318796,0.60798456\C,0,-1.81468713,-1.40452
 264,-0.11076391\H,0,3.01000693,-0.7983963,0.52316966\H,0,2.73226359,0.
 43791324,-0.73167588\H,0,2.72608699,-1.28665034,-1.16569511\H,0,1.2096

 Normal termination of Gaussian 16 at Wed Apr  9 18:59:13 2025.
 Gaussian 16:  ES64L-G16RevC.01  3-Jul-2019

 ----------------------------------------------------------------------
 #t hf aug-cc-pvdz iop(5/13=1,5/36=2,99/5=2) pseudo=read geom=check gue
 ss=(read,tcheck) scf=(maxcycle=1)
 ----------------------------------------------------------------------
 -----
 title
 -----
 Structure from the checkpoint file:  "Grambow2020_wb97xd3_008403_reverse_mol1.chk"
 Charge =  0 Multiplicity = 1

                         Standard orientation:
 ---------------------------------------------------------------------
 Center     Atomic      Atomic             Coordinates (Angstroms)
 Number     Number       Type             X           Y           Z
 ---------------------------------------------------------------------
      1          6           0        2.494557   -0.477202   -0.265874
      2          8           0        1.101514   -0.630085   -0.111923
      3          6           0        0.521756    0.316366    0.711620
      4          6           0       -0.013092    1.563100    0.023131
      5          6           0       -1.277098    0.962963   -0.584145
      6          6           0       -1.595881   -0.084413    0.474668
      7          6           0       -1.748239   -1.465255   -0.060969
      8          1           0        3.008530   -0.548418    0.700276
      9          1           0        2.747861    0.481411   -0.732115
     10          1           0        2.833285   -1.285839   -0.911172
     11          1           0        1.113374    0.471667    1.624777
     12          1           0       -0.263308    2.302767    0.785796
     13          1           0        0.684329    2.020388   -0.681053
     14          1           0       -1.046210    0.527966   -1.565439
     15          1           0       -2.098832    1.671292   -0.713748
     16          1           0       -0.544546   -0.068310    1.266085
     17          1           0       -2.725026   -1.440253   -0.563177
     18          1           0       -1.009574   -1.755453   -0.819973
     19          1           0       -1.804021   -2.229896    0.714545
 ---------------------------------------------------------------------

 SCF Done:  E(RHF) =  -309.239124255     A.U. after    2 cycles

 The electronic state is 1-A.
 Alpha  occ. eigenvalues --  -20.56215 -11.31648 -11.29503 -11.23992 -11.23667
 Alpha  occ. eigenvalues --  -11.22356 -11.21454  -1.49093  -1.11837  -0.99469
 Alpha  occ. eigenvalues --   -0.96427  -0.89629  -0.83880  -0.74566  -0.69787
 Alpha  occ. eigenvalues --   -0.65806  -0.64681  -0.61323  -0.60306  -0.58493
 Alpha  occ. eigenvalues --   -0.56404  -0.52344  -0.51702  -0.50471  -0.47985
 Alpha  occ. eigenvalues --   -0.46131  -0.43114  -0.29958
 Alpha virt. eigenvalues --    0.03113   0.03663   0.03881   0.04602   0.05897
 Alpha virt. eigenvalues --    0.06007   0.06434   0.06565   0.07370   0.09019
 Alpha virt. eigenvalues --    0.09385   0.09877   0.11366   0.12140   0.12709

 Mulliken charges:
               1
     1  C    0.090385
     2  O   -1.455368
     3  C    0.914380
     4  C   -0.299193
     5  C   -0.163477
     6  C   -0.768084
     7  C   -0.281054
     8  H    0.150592
     9  H    0.195419
    10  H   -0.026558
    11  H    0.101499
    12  H    0.143203
    13  H    0.070713
    14  H    0.130195
    15  H    0.118327
    16  H    0.533277
    17  H    0.226642
    18  H    0.210275
    19  H    0.108825
 Sum of Mulliken charges =  -0.00000

 Dipole moment (field-independent basis, Debye):
    X=              2.7601    Y=              0.6423    Z=             -0.6720  Tot=              2.9125

 Test job not archived.
 1\1\GINC-SE118\SP\RHF\Aug-CC-pVDZ\C6H12O1\OHZDE\09-Apr-2025\0\\#t hf a
 ug-cc-pvdz iop(5/13=1,5/36=2,99/5=2) pseudo=read geom=check guess=(rea
 d,tcheck) scf=(maxcycle=1)\\title\\0,1\C,0,2.4559203,-0.56731661,-0.39
 458621\O,0,1.06581617,-0.68519825,-0.19122045\C,0,0.5698532,0.1541405,
 0.78839231\C,0,0.06305911,1.50790844,0.31415738\C,0,-1.25445933,1.0531
 4769,-0.30551854\C,0,-1.57297208,-0.12318796,0.60798456\C,0,-1.8146871
 3,-1.40452264,-0.11076391\H,0,3.01000693,-0.7983963,0.52316966\H,0,2.7
 3226359,0.43791324,-0.73167588\H,0,2.72608699,-1.28665034,-1.16569511\

 Normal termination of Gaussian 16 at Wed Apr  9 18:59:20 2025.
