 Gaussian 16, Revision C.01,

 ----------------------------------------------------------------------
 #t hf aug-cc-pvdz symm=none int=(grid=ultrafine) guess=(read,tcheck) s
 table=(opt,rrhf)
 ----------------------------------------------------------------------
 -----
 title
 -----
 Symbolic Z-matrix:
 Charge =  0 Multiplicity = 1

 SCF Done:  E(RHF) =  -269.396189138     A.U. after   17 cycles
 Normal termination of Gaussian 16 at Wed Apr  9 18:52:51 2025.
 Gaussian 16:  ES64L-G16RevC.01  3-Jul-2019

 ----------------------------------------------------------------------
 #t hf aug-cc-pvdz iop(5/13=1,5/36=2,99/5=2) pseudo=read geom=check gue
 ss=(read,tcheck) scf=(maxcycle=1)
 ----------------------------------------------------------------------
 -----
 title
 -----
 Structure from the checkpoint file:  "Grambow2020_wb97xd3_008148_reverse_mol1.chk"
 Charge =  0 Multiplicity = 1

                         Standard orientation:
 ---------------------------------------------------------------------
 Center     Atomic      Atomic             Coordinates (Angstroms)
 Number     Number       Type             X           Y           Z
 ---------------------------------------------------------------------
      1          6           0       -2.128027    0.016958   -0.109904
      2          6           0       -0.721950    0.208505   -0.153413
      3          6           0       -0.127804   -1.190270   -0.131879
      4          6           0        1.068757   -0.604520    0.680905
      5          6           0        1.498703   -0.036677   -0.596591
      6          6           0        0.616905    1.107640   -0.502891
      7          6           0        0.222662    0.689956    0.889679
      8          1           0       -2.794555    0.693204    0.422521
      9          1           0       -2.574920   -0.461307   -0.978587
     10          1           0       -1.478817   -1.262434    0.427711
     11          1           0       -0.012629   -1.796006   -1.032167
     12          1           0        1.648171   -1.195344    1.379978
     13          1           0        2.055598   -0.471432   -1.416631
     14          1           0        0.577260    2.052742   -1.017745
     15          1           0        0.004413    1.291028    1.759473
 ---------------------------------------------------------------------

 SCF Done:  E(RHF) =  -269.681762752     A.U. after    2 cycles

 The electronic state is 1-A.
 Alpha  occ. eigenvalues --  -11.28078 -11.26824 -11.25574 -11.25471 -11.24802
 Alpha  occ. eigenvalues --  -11.23616 -11.23549  -1.27262  -1.03629  -0.97679
 Alpha  occ. eigenvalues --   -0.90648  -0.84960  -0.73502  -0.72657  -0.69471
 Alpha  occ. eigenvalues --   -0.65433  -0.61129  -0.58026  -0.56279  -0.53344
 Alpha  occ. eigenvalues --   -0.48270  -0.45650  -0.40579  -0.33482  -0.27107
 Alpha virt. eigenvalues --    0.03389   0.03472   0.03554   0.04321   0.05155
 Alpha virt. eigenvalues --    0.05866   0.06163   0.07178   0.07984   0.10227
 Alpha virt. eigenvalues --    0.11993   0.12426   0.12561   0.12759   0.13646

 Mulliken charges:
               1
     1  C   -0.207628
     2  C   -0.062628
     3  C   -0.462951
     4  C    0.307875
     5  C    0.225672
     6  C    0.352263
     7  C    0.176090
     8  H   -0.065667
     9  H    0.098573
    10  H    0.580334
    11  H   -0.161959
    12  H   -0.159236
    13  H   -0.150961
    14  H   -0.274084
    15  H   -0.195693
 Sum of Mulliken charges =  -0.00000

 Dipole moment (field-independent basis, Debye):
    X=              1.2352    Y=              0.8285    Z=             -0.3406  Tot=              1.5258

 Test job not archived.
 1\1\GINC-SE028\SP\RHF\Aug-CC-pVDZ\C7H8\OHZDE\09-Apr-2025\0\\#t hf aug-
 cc-pvdz iop(5/13=1,5/36=2,99/5=2) pseudo=read geom=check guess=(read,t
 check) scf=(maxcycle=1)\\title\\0,1\C,0,2.0015198,0.04946407,0.0364889
 3\C,0,0.60177487,0.19921297,0.2206763\C,0,-0.01938205,-1.02782337,-0.4
 2630813\C,0,-1.23249818,-0.13009934,-0.82370093\C,0,-1.60611508,-0.223
 41044,0.58732655\C,0,-0.70647135,0.83215687,1.00233076\C,0,-0.36972515
 ,1.11197975,-0.43900144\H,0,2.66162282,0.89568798,-0.14575596\H,0,2.46
 96019,-0.77893021,0.56348509\H,0,1.30939275,-0.8312549,-1.00880517\H,0

 Normal termination of Gaussian 16 at Wed Apr  9 18:52:56 2025.
