 Gaussian 16, Revision C.01,

 ----------------------------------------------------------------------
 #t hf aug-cc-pvdz symm=none int=(grid=ultrafine) guess=(read,tcheck) s
 table=(opt,rrhf)
 ----------------------------------------------------------------------
 -----
 title
 -----
 Symbolic Z-matrix:
 Charge =  0 Multiplicity = 1

 SCF Done:  E(RHF) =  -306.470753173     A.U. after   15 cycles
 Normal termination of Gaussian 16 at Wed Apr  9 18:52:43 2025.
 Gaussian 16:  ES64L-G16RevC.01  3-Jul-2019

 ----------------------------------------------------------------------
 #t hf aug-cc-pvdz iop(5/13=1,5/36=2,99/5=2) pseudo=read geom=check gue
 ss=(read,tcheck) scf=(maxcycle=1)
 ----------------------------------------------------------------------
 -----
 title
 -----
 Structure from the checkpoint file:  "Grambow2020_wb97xd3_008164_forward_mol1.chk"
 Charge =  0 Multiplicity = 1

                         Standard orientation:
 ---------------------------------------------------------------------
 Center     Atomic      Atomic             Coordinates (Angstroms)
 Number     Number       Type             X           Y           Z
 ---------------------------------------------------------------------
      1          8           0        2.124850   -0.197161   -0.083991
      2          6           0        0.766955    0.025891   -0.076506
      3          6           0        0.096964    1.345938   -0.398059
      4          6           0       -1.142049    0.760621    0.366346
      5          6           0       -1.703011   -0.782179   -0.467022
      6          6           0       -0.269016   -1.129955   -0.109692
      7          6           0       -0.167749   -0.229709    1.065879
      8          1           0        2.360995   -0.648319   -0.896739
      9          1           0       -0.034508    1.667113   -1.436465
     10          1           0        0.542001    2.145717    0.194256
     11          1           0       -1.889667    1.388196    0.834544
     12          1           0       -1.538059    0.396078   -0.783195
     13          1           0       -2.012894   -0.754577   -1.533390
     14          1           0        0.124283   -2.138033   -0.113664
     15          1           0       -0.043517   -0.422529    2.120909
 ---------------------------------------------------------------------

 SCF Done:  E(RHF) =  -306.789434174     A.U. after    2 cycles

 The electronic state is 1-A.
 Alpha  occ. eigenvalues --  -20.56914 -11.31429 -11.30324 -11.25902 -11.24883
 Alpha  occ. eigenvalues --  -11.24701 -11.22457  -1.47907  -1.25290  -1.00909
 Alpha  occ. eigenvalues --   -0.98743  -0.87734  -0.78468  -0.74629  -0.74241
 Alpha  occ. eigenvalues --   -0.66636  -0.63681  -0.63131  -0.59451  -0.55587
 Alpha  occ. eigenvalues --   -0.52532  -0.48688  -0.47411  -0.43579  -0.39038
 Alpha  occ. eigenvalues --   -0.30137
 Alpha virt. eigenvalues --    0.03099   0.03199   0.03746   0.04489   0.05515
 Alpha virt. eigenvalues --    0.06108   0.06602   0.08542   0.09926   0.11801
 Alpha virt. eigenvalues --    0.11829   0.12491   0.13664   0.13890   0.15013

 Mulliken charges:
               1
     1  O   -1.539581
     2  C    1.720616
     3  C   -0.349226
     4  C   -0.215249
     5  C   -0.630404
     6  C    0.263587
     7  C    0.249535
     8  H    0.195007
     9  H    0.002550
    10  H    0.145201
    11  H   -0.187621
    12  H    0.761542
    13  H   -0.003410
    14  H   -0.182413
    15  H   -0.230135
 Sum of Mulliken charges =  -0.00000

 Dipole moment (field-independent basis, Debye):
    X=              1.2327    Y=              1.8157    Z=             -1.1590  Tot=              2.4818

 Test job not archived.
 1\1\GINC-SE362\SP\RHF\Aug-CC-pVDZ\C6H8O1\OHZDE\09-Apr-2025\0\\#t hf au
 g-cc-pvdz iop(5/13=1,5/36=2,99/5=2) pseudo=read geom=check guess=(read
 ,tcheck) scf=(maxcycle=1)\\title\\0,1\O,0,2.20235949,0.7178516,-0.3658
 9832\C,0,0.92743697,0.24045156,-0.16502607\C,0,0.57581916,-1.19113187,
 0.1838925\C,0,-0.86163982,-0.83250506,-0.33298494\C,0,-1.54501576,0.55
 246825,0.66914189\C,0,-0.28167056,1.17645067,0.10383006\C,0,-0.2196191
 8,0.34353609,-1.12298238\H,0,2.48723315,1.18398728,0.42241163\H,0,0.68
 498742,-1.55893755,1.20933166\H,0,1.05197847,-1.87545046,-0.51861877\H

 Normal termination of Gaussian 16 at Wed Apr  9 18:52:47 2025.
