 Gaussian 16, Revision C.01,

 ----------------------------------------------------------------------
 #t hf aug-cc-pvdz symm=none int=(grid=ultrafine) guess=(read,tcheck) s
 table=(opt,rrhf)
 ----------------------------------------------------------------------
 -----
 title
 -----
 Symbolic Z-matrix:
 Charge =  0 Multiplicity = 1

 SCF Done:  E(RHF) =  -283.682772014     A.U. after   15 cycles
 Normal termination of Gaussian 16 at Wed Apr  9 03:16:20 2025.
 Gaussian 16:  ES64L-G16RevC.01  3-Jul-2019

 ----------------------------------------------------------------------
 #t hf aug-cc-pvdz iop(5/13=1,5/36=2,99/5=2) pseudo=read geom=check gue
 ss=(read,tcheck) scf=(maxcycle=1)
 ----------------------------------------------------------------------
 -----
 title
 -----
 Structure from the checkpoint file:  "Grambow2020_b97d3_006995_reverse_mol2.chk"
 Charge =  0 Multiplicity = 1

                         Standard orientation:
 ---------------------------------------------------------------------
 Center     Atomic      Atomic             Coordinates (Angstroms)
 Number     Number       Type             X           Y           Z
 ---------------------------------------------------------------------
      1          6           0        1.754142   -1.065875   -0.164570
      2          6           0        0.965502    0.209798    0.037181
      3          8           0        1.358289    1.334200   -0.196304
      4          6           0       -2.663699   -0.105798   -0.285280
      5          6           0       -1.425172   -0.052974    0.167445
      6          7           0       -0.301987   -0.024900    0.661930
      7          1           0        2.730290   -0.831116   -0.600104
      8          1           0        1.202485   -1.749606   -0.825920
      9          1           0        1.886555   -1.579467    0.797710
     10          1           0       -3.106575   -1.055764   -0.577995
     11          1           0       -3.249796    0.805750   -0.385432
 ---------------------------------------------------------------------

 SCF Done:  E(RHF) =  -283.968561594     A.U. after    2 cycles

 The electronic state is 1-A.
 Alpha  occ. eigenvalues --  -20.55073 -15.54887 -11.39520 -11.35395 -11.26527
 Alpha  occ. eigenvalues --  -11.26288  -1.48739  -1.28064  -1.05924  -1.02564
 Alpha  occ. eigenvalues --   -0.89825  -0.71947  -0.69736  -0.67105  -0.65670
 Alpha  occ. eigenvalues --   -0.63160  -0.58995  -0.58600  -0.51016  -0.50262
 Alpha  occ. eigenvalues --   -0.46179  -0.37552
 Alpha virt. eigenvalues --    0.03027   0.04240   0.04612   0.05355   0.06095
 Alpha virt. eigenvalues --    0.08245   0.09192   0.10221   0.11467   0.11922
 Alpha virt. eigenvalues --    0.12069   0.13476   0.13809   0.14017   0.14806

 Mulliken charges:
               1
     1  C   -0.380874
     2  C    0.694563
     3  O   -1.216529
     4  C    0.335442
     5  C   -0.847366
     6  N    0.737819
     7  H    0.166439
     8  H    0.223978
     9  H    0.277979
    10  H   -0.005723
    11  H    0.014271
 Sum of Mulliken charges =   0.00000

 Dipole moment (field-independent basis, Debye):
    X=             -1.3650    Y=             -2.9448    Z=             -0.9944  Tot=              3.3947

 Test job not archived.
 1\1\GINC-SE097\SP\RHF\Aug-CC-pVDZ\C4H5N1O1\OHZDE\09-Apr-2025\0\\#t hf
 aug-cc-pvdz iop(5/13=1,5/36=2,99/5=2) pseudo=read geom=check guess=(re
 ad,tcheck) scf=(maxcycle=1)\\title\\0,1\C,0,-1.76804365,0.72400423,-0.
 36302216\C,0,-0.84044746,0.29116972,0.7515265\O,0,-1.18051815,-0.11861
 597,1.8421696\C,0,2.38902267,-1.05637553,-0.31117347\C,0,1.40339518,-0
 .27085429,0.08022875\N,0,0.53747033,0.52309602,0.43612774\H,0,-2.80783
 826,0.57113494,-0.05785821\H,0,-1.55584335,0.14789149,-1.27530568\H,0,
 -1.59861996,1.78346756,-0.59993045\H,0,2.60546683,-1.18833932,-1.36947

 Normal termination of Gaussian 16 at Wed Apr  9 03:16:24 2025.
