 Gaussian 16, Revision C.01,

 ----------------------------------------------------------------------
 #t hf aug-cc-pvdz symm=none int=(grid=ultrafine) guess=(read,tcheck) s
 table=(opt,rrhf)
 ----------------------------------------------------------------------
 -----
 title
 -----
 Symbolic Z-matrix:
 Charge =  0 Multiplicity = 1

 SCF Done:  E(RHF) =  -308.919461171     A.U. after   16 cycles

 1\1\GINC-SE219\Stability\RHF\Aug-CC-pVDZ\C6H12O1\OHZDE\09-Apr-2025\0\\
 #t hf aug-cc-pvdz symm=none int=(grid=ultrafine) guess=(read,tcheck) s
 table=(opt,rrhf)\\title\\0,1\C,0,-0.99356398,-1.81512117,-0.15118144\C
 ,0,-0.63884719,-0.34167336,-0.09154228\C,0,-1.32945914,0.49533926,0.99
 113004\C,0,-0.40365173,1.6730142,1.05033188\O,0,0.81842089,1.16840055,
 0.75175238\C,0,0.78697324,0.01113028,0.18036013\C,0,2.0172293,-0.53314
 207,-0.43575659\H,0,-2.0492813,-1.94645699,-0.39422283\H,0,-0.41316043
 ,-2.33862716,-0.91380725\H,0,-0.80671616,-2.29775475,0.81053837\H,0,-0

 Normal termination of Gaussian 16 at Wed Apr  9 17:37:02 2025.
 Gaussian 16:  ES64L-G16RevC.01  3-Jul-2019

 ----------------------------------------------------------------------
 #t hf aug-cc-pvdz iop(5/13=1,5/36=2,99/5=2) pseudo=read geom=check gue
 ss=(read,tcheck) scf=(maxcycle=1)
 ----------------------------------------------------------------------
 -----
 title
 -----
 Structure from the checkpoint file:  "Grambow2020_wb97xd3_006737_reverse_mol2.chk"
 Charge =  0 Multiplicity = 1

                         Standard orientation:
 ---------------------------------------------------------------------
 Center     Atomic      Atomic             Coordinates (Angstroms)
 Number     Number       Type             X           Y           Z
 ---------------------------------------------------------------------
      1          6           0       -2.078894   -0.761853    0.046942
      2          6           0       -0.613460   -0.519693    0.354008
      3          6           0        0.382773   -1.575180   -0.139126
      4          6           0        1.654267   -0.781847   -0.100800
      5          8           0        1.276035    0.492040   -0.368005
      6          6           0        0.013108    0.711474   -0.214328
      7          6           0       -0.491785    2.102315   -0.211814
      8          1           0       -2.431725   -1.665606    0.546541
      9          1           0       -2.703897    0.066730    0.386568
     10          1           0       -2.233963   -0.888087   -1.026730
     11          1           0       -0.473879   -0.432116    1.452365
     12          1           0        0.124347   -1.852326   -1.182198
     13          1           0        0.384294   -2.479692    0.465888
     14          1           0        2.566063   -1.044955   -0.619486
     15          1           0        1.709620    0.671763    2.338049
     16          1           0        1.537034    1.233095    2.801675
     17          1           0       -1.429504    2.178611   -0.766617
     18          1           0       -0.689350    2.454773    0.808420
     19          1           0        0.236631    2.770199   -0.669730
 ---------------------------------------------------------------------

 SCF Done:  E(RHF) =  -309.251073279     A.U. after    2 cycles

 The electronic state is 1-A.
 Alpha  occ. eigenvalues --  -20.65431 -11.32495 -11.25792 -11.25284 -11.23878
 Alpha  occ. eigenvalues --  -11.23013 -11.22937  -1.58383  -1.10675  -1.05892
 Alpha  occ. eigenvalues --   -0.96756  -0.92677  -0.83260  -0.75211  -0.69966
 Alpha  occ. eigenvalues --   -0.68539  -0.63775  -0.60374  -0.59124  -0.58033
 Alpha  occ. eigenvalues --   -0.57303  -0.57002  -0.54629  -0.53283  -0.51743
 Alpha  occ. eigenvalues --   -0.49498  -0.47175  -0.23340
 Alpha virt. eigenvalues --    0.03031   0.03407   0.03970   0.04637   0.05805
 Alpha virt. eigenvalues --    0.05962   0.06409   0.06955   0.07370   0.08446
 Alpha virt. eigenvalues --    0.09146   0.09549   0.10823   0.11327   0.13352

 Mulliken charges:
               1
     1  C   -0.261710
     2  C   -0.947649
     3  C   -0.356288
     4  C    0.850072
     5  O   -1.381269
     6  C    1.264025
     7  C   -0.655059
     8  H    0.180957
     9  H    0.175965
    10  H    0.244388
    11  H    0.182730
    12  H    0.120411
    13  H    0.119235
    14  H   -0.177665
    15  H    0.051851
    16  H   -0.039328
    17  H    0.254519
    18  H    0.255304
    19  H    0.119510
 Sum of Mulliken charges =   0.00000

 Dipole moment (field-independent basis, Debye):
    X=             -2.7744    Y=              1.1591    Z=             -0.6215  Tot=              3.0704

 Test job not archived.
 1\1\GINC-SE219\SP\RHF\Aug-CC-pVDZ\C6H12O1\OHZDE\09-Apr-2025\0\\#t hf a
 ug-cc-pvdz iop(5/13=1,5/36=2,99/5=2) pseudo=read geom=check guess=(rea
 d,tcheck) scf=(maxcycle=1)\\title\\0,1\C,0,-0.99356398,-1.81512117,-0.
 15118144\C,0,-0.63884719,-0.34167336,-0.09154228\C,0,-1.32945914,0.495
 33926,0.99113004\C,0,-0.40365173,1.6730142,1.05033188\O,0,0.81842089,1
 .16840055,0.75175238\C,0,0.78697324,0.01113028,0.18036013\C,0,2.017229
 3,-0.53314207,-0.43575659\H,0,-2.0492813,-1.94645699,-0.39422283\H,0,-
 0.41316043,-2.33862716,-0.91380725\H,0,-0.80671616,-2.29775475,0.81053

 Normal termination of Gaussian 16 at Wed Apr  9 17:37:10 2025.
