 Gaussian 16, Revision C.01,

 ----------------------------------------------------------------------
 #t hf aug-cc-pvdz symm=none int=(grid=ultrafine) guess=(read,tcheck) s
 table=(opt,rrhf)
 ----------------------------------------------------------------------
 -----
 title
 -----
 Symbolic Z-matrix:
 Charge =  0 Multiplicity = 1

 SCF Done:  E(RHF) =  -344.790518852     A.U. after   15 cycles

 1\1\GINC-SE229\Stability\RHF\Aug-CC-pVDZ\C5H10O2\OHZDE\09-Apr-2025\0\\
 #t hf aug-cc-pvdz symm=none int=(grid=ultrafine) guess=(read,tcheck) s
 table=(opt,rrhf)\\title\\0,1\O,0,2.63894498,0.5069454,1.22505449\C,0,2
 .43246608,-0.35732983,0.12226705\C,0,0.9936283,-0.82548004,0.20967181\
 C,0,0.00962168,0.20874116,-0.15309439\C,0,-2.81485311,0.64896748,-0.94
 125676\O,0,-2.27154962,0.94535172,0.32080711\C,0,-1.19695532,0.1136411
 ,0.65360391\H,0,3.48474169,0.94557035,1.12779782\H,0,3.116429,-1.21415
 654,0.16868238\H,0,2.57806091,0.16757309,-0.82748147\H,0,0.82517556,-1

 Normal termination of Gaussian 16 at Wed Apr  9 18:25:28 2025.
 Gaussian 16:  ES64L-G16RevC.01  3-Jul-2019

 ----------------------------------------------------------------------
 #t hf aug-cc-pvdz iop(5/13=1,5/36=2,99/5=2) pseudo=read geom=check gue
 ss=(read,tcheck) scf=(maxcycle=1)
 ----------------------------------------------------------------------
 -----
 title
 -----
 Structure from the checkpoint file:  "Grambow2020_wb97xd3_007544_reverse_mol2.chk"
 Charge =  0 Multiplicity = 1

                         Standard orientation:
 ---------------------------------------------------------------------
 Center     Atomic      Atomic             Coordinates (Angstroms)
 Number     Number       Type             X           Y           Z
 ---------------------------------------------------------------------
      1          8           0       -2.723646   -0.870103   -0.224188
      2          6           0       -2.438759    0.517174   -0.231165
      3          6           0       -1.121885    0.686752    0.499687
      4          6           0        0.048028    0.233132   -0.271684
      5          6           0        3.003279    0.398014   -0.450479
      6          8           0        2.281301   -0.720215    0.001340
      7          6           0        1.057381   -0.372284    0.582900
      8          1           0       -3.466203   -1.042367   -0.803978
      9          1           0       -3.232975    1.077938    0.277635
     10          1           0       -2.329350    0.895867   -1.252617
     11          1           0       -1.210228    0.313831    1.532796
     12          1           0       -0.899887    1.766651    0.567333
     13          1           0        2.428208    0.965222   -1.191000
     14          1           0        3.270158    1.063949    0.382814
     15          1           0        3.917332    0.028635   -0.912558
     16          1           0        0.562924   -1.315508    0.881032
     17          1           0        1.210520    0.191598    1.525780
 ---------------------------------------------------------------------

 SCF Done:  E(RHF) =  -345.148474530     A.U. after    2 cycles

 The electronic state is 1-A.
 Alpha  occ. eigenvalues --  -20.55307 -20.53988 -11.29175 -11.29004 -11.27363
 Alpha  occ. eigenvalues --  -11.26664 -11.24717  -1.46568  -1.45657  -1.09452
 Alpha  occ. eigenvalues --   -0.99881  -0.92387  -0.85144  -0.74532  -0.71686
 Alpha  occ. eigenvalues --   -0.67156  -0.66828  -0.66086  -0.60328  -0.58157
 Alpha  occ. eigenvalues --   -0.57770  -0.54757  -0.53304  -0.50804  -0.47198
 Alpha  occ. eigenvalues --   -0.44852  -0.42216  -0.35316
 Alpha virt. eigenvalues --    0.03269   0.03604   0.04152   0.04453   0.05549
 Alpha virt. eigenvalues --    0.06068   0.06715   0.07268   0.07512   0.08460
 Alpha virt. eigenvalues --    0.09261   0.11908   0.12856   0.13584   0.14009

 Mulliken charges:
               1
     1  O   -1.094630
     2  C    0.763370
     3  C   -0.487997
     4  C   -0.432762
     5  C    0.112264
     6  O   -1.315822
     7  C    0.641687
     8  H    0.295190
     9  H    0.117477
    10  H    0.141091
    11  H    0.093730
    12  H    0.342527
    13  H    0.229578
    14  H    0.177627
    15  H   -0.025867
    16  H    0.224251
    17  H    0.218286
 Sum of Mulliken charges =  -0.00000

 Dipole moment (field-independent basis, Debye):
    X=             -1.7048    Y=              2.2272    Z=              1.0562  Tot=              2.9971

 Test job not archived.
 1\1\GINC-SE229\SP\RHF\Aug-CC-pVDZ\C5H10O2\OHZDE\09-Apr-2025\0\\#t hf a
 ug-cc-pvdz iop(5/13=1,5/36=2,99/5=2) pseudo=read geom=check guess=(rea
 d,tcheck) scf=(maxcycle=1)\\title\\0,1\O,0,2.63894498,0.5069454,1.2250
 5449\C,0,2.43246608,-0.35732983,0.12226705\C,0,0.9936283,-0.82548004,0
 .20967181\C,0,0.00962168,0.20874116,-0.15309439\C,0,-2.81485311,0.6489
 6748,-0.94125676\O,0,-2.27154962,0.94535172,0.32080711\C,0,-1.19695532
 ,0.1136411,0.65360391\H,0,3.48474169,0.94557035,1.12779782\H,0,3.11642
 9,-1.21415654,0.16868238\H,0,2.57806091,0.16757309,-0.82748147\H,0,0.8

 Normal termination of Gaussian 16 at Wed Apr  9 18:25:34 2025.
