 Gaussian 16, Revision C.01,

 ----------------------------------------------------------------------
 #t hf aug-cc-pvdz symm=none int=(grid=ultrafine) guess=(read,tcheck) s
 table=(opt,rrhf)
 ----------------------------------------------------------------------
 -----
 title
 -----
 Symbolic Z-matrix:
 Charge =  0 Multiplicity = 1

 SCF Done:  E(RHF) =  -322.671558699     A.U. after   14 cycles
 Normal termination of Gaussian 16 at Wed Apr  9 18:33:25 2025.
 Gaussian 16:  ES64L-G16RevC.01  3-Jul-2019

 ----------------------------------------------------------------------
 #t hf aug-cc-pvdz iop(5/13=1,5/36=2,99/5=2) pseudo=read geom=check gue
 ss=(read,tcheck) scf=(maxcycle=1)
 ----------------------------------------------------------------------
 -----
 title
 -----
 Structure from the checkpoint file:  "Grambow2020_wb97xd3_007710_forward_mol2.chk"
 Charge =  0 Multiplicity = 1

                         Standard orientation:
 ---------------------------------------------------------------------
 Center     Atomic      Atomic             Coordinates (Angstroms)
 Number     Number       Type             X           Y           Z
 ---------------------------------------------------------------------
      1          6           0       -2.569716    0.152609    0.169817
      2          7           0       -1.452818   -0.737962   -0.079153
      3          6           0       -0.305024   -0.266120   -0.132926
      4          8           0        0.129351    1.056394   -0.012696
      5          6           0        1.463883    0.640572   -0.357397
      6          6           0        1.984894   -0.270292    0.682481
      7          6           0        1.057731   -0.803981   -0.398085
      8          1           0       -3.341864   -0.032140   -0.578218
      9          1           0       -2.999683   -0.083110    1.145402
     10          1           0       -2.303826    1.212929    0.151509
     11          1           0        2.022185    1.254486   -1.047767
     12          1           0        1.633519   -0.171633    1.702411
     13          1           0        3.017754   -0.577685    0.570495
     14          1           0        1.316223   -1.604990   -1.071540
 ---------------------------------------------------------------------

 SCF Done:  E(RHF) =  -323.004546212     A.U. after    2 cycles

 The electronic state is 1-A.
 Alpha  occ. eigenvalues --  -20.57704 -15.48156 -11.34047 -11.31741 -11.26573
 Alpha  occ. eigenvalues --  -11.26432 -11.24840  -1.52203  -1.22722  -1.16338
 Alpha  occ. eigenvalues --   -0.97190  -0.89226  -0.84814  -0.75232  -0.71391
 Alpha  occ. eigenvalues --   -0.69858  -0.66545  -0.61256  -0.59493  -0.57526
 Alpha  occ. eigenvalues --   -0.54822  -0.53040  -0.49480  -0.44114  -0.42156
 Alpha  occ. eigenvalues --   -0.40016
 Alpha virt. eigenvalues --    0.03117   0.04069   0.04388   0.04455   0.05839
 Alpha virt. eigenvalues --    0.06488   0.06893   0.09660   0.10275   0.10766
 Alpha virt. eigenvalues --    0.12394   0.12810   0.14007   0.14724   0.15188

 Mulliken charges:
               1
     1  C   -0.354434
     2  N    0.864704
     3  C   -0.680256
     4  O   -1.448911
     5  C    1.391674
     6  C    0.119239
     7  C    0.299311
     8  H    0.103196
     9  H    0.121830
    10  H    0.084490
    11  H   -0.122995
    12  H   -0.100306
    13  H   -0.072607
    14  H   -0.204936
 Sum of Mulliken charges =  -0.00000

 Dipole moment (field-independent basis, Debye):
    X=              2.8120    Y=              0.6269    Z=             -0.2650  Tot=              2.8932

 Test job not archived.
 1\1\GINC-SE226\SP\RHF\Aug-CC-pVDZ\C5H7N1O1\OHZDE\09-Apr-2025\0\\#t hf
 aug-cc-pvdz iop(5/13=1,5/36=2,99/5=2) pseudo=read geom=check guess=(re
 ad,tcheck) scf=(maxcycle=1)\\title\\0,1\C,0,2.47340554,0.01143979,0.67
 340308\N,0,1.29305858,0.83488531,0.49653959\C,0,0.26584383,0.3231503,0
 .02123447\O,0,0.03512784,-0.98079823,-0.42448708\C,0,-1.26229963,-0.57
 905789,-0.90197092\C,0,-2.10542188,-0.16528954,0.23838473\C,0,-1.09321
 577,0.80594383,-0.34832008\H,0,3.33016766,0.52374483,0.2336259\H,0,2.6
 7279277,-0.09657895,1.74147462\H,0,2.38942054,-0.98463382,0.23057538\H

 Normal termination of Gaussian 16 at Wed Apr  9 18:33:29 2025.
