 Gaussian 16, Revision C.01,

 ----------------------------------------------------------------------
 #t hf aug-cc-pvdz symm=none int=(grid=ultrafine) guess=(read,tcheck) s
 table=(opt,rrhf)
 ----------------------------------------------------------------------
 -----
 title
 -----
 Symbolic Z-matrix:
 Charge =  0 Multiplicity = 1

 SCF Done:  E(RHF) =  -283.584890970     A.U. after   15 cycles
 Normal termination of Gaussian 16 at Wed Apr  9 03:16:21 2025.
 Gaussian 16:  ES64L-G16RevC.01  3-Jul-2019

 ----------------------------------------------------------------------
 #t hf aug-cc-pvdz iop(5/13=1,5/36=2,99/5=2) pseudo=read geom=check gue
 ss=(read,tcheck) scf=(maxcycle=1)
 ----------------------------------------------------------------------
 -----
 title
 -----
 Structure from the checkpoint file:  "Grambow2020_b97d3_007000_reverse_mol1.chk"
 Charge =  0 Multiplicity = 1

                         Standard orientation:
 ---------------------------------------------------------------------
 Center     Atomic      Atomic             Coordinates (Angstroms)
 Number     Number       Type             X           Y           Z
 ---------------------------------------------------------------------
      1          6           0        0.981477    1.359896    0.084968
      2          6           0        0.848520   -0.047131    0.003039
      3          8           0        2.008794   -0.623396   -0.076559
      4          6           0       -0.368401   -0.939132    0.071852
      5          6           0       -1.631045   -0.209141   -0.013280
      6          7           0       -2.628159    0.397817   -0.072330
      7          1           0        1.448305    1.797858   -0.806172
      8          1           0        2.287246    0.616295    0.254167
      9          1           0        0.225316    1.996420    0.543951
     10          1           0       -0.335665   -1.530615    1.000466
     11          1           0       -0.281746   -1.664451   -0.753102
 ---------------------------------------------------------------------

 SCF Done:  E(RHF) =  -283.867828843     A.U. after    2 cycles

 The electronic state is 1-A.
 Alpha  occ. eigenvalues --  -20.58318 -15.53968 -11.39588 -11.33165 -11.30865
 Alpha  occ. eigenvalues --  -11.23957  -1.50569  -1.24604  -1.11144  -1.01993
 Alpha  occ. eigenvalues --   -0.82275  -0.73653  -0.71578  -0.68729  -0.64276
 Alpha  occ. eigenvalues --   -0.61513  -0.60070  -0.56460  -0.52382  -0.50876
 Alpha  occ. eigenvalues --   -0.48648  -0.36631
 Alpha virt. eigenvalues --    0.02915   0.03948   0.04145   0.05359   0.06199
 Alpha virt. eigenvalues --    0.07902   0.08300   0.08666   0.11285   0.12498
 Alpha virt. eigenvalues --    0.12651   0.13609   0.14677   0.14886   0.15106

 Mulliken charges:
               1
     1  C   -0.486511
     2  C    1.121325
     3  O   -1.471910
     4  C   -0.160036
     5  C   -1.263745
     6  N    0.819389
     7  H    0.122404
     8  H    0.560628
     9  H    0.023716
    10  H    0.373593
    11  H    0.361146
 Sum of Mulliken charges =  -0.00000

 Dipole moment (field-independent basis, Debye):
    X=              2.0128    Y=             -1.8066    Z=              0.1658  Tot=              2.7097

 Test job not archived.
 1\1\GINC-SE143\SP\RHF\Aug-CC-pVDZ\C4H5N1O1\OHZDE\09-Apr-2025\0\\#t hf
 aug-cc-pvdz iop(5/13=1,5/36=2,99/5=2) pseudo=read geom=check guess=(re
 ad,tcheck) scf=(maxcycle=1)\\title\\0,1\C,0,-1.36570391,0.47328065,-0.
 17872736\C,0,-0.36857716,-0.51056612,0.02596801\O,0,-0.89273039,-1.692
 84818,0.13607576\C,0,1.13834003,-0.4119357,0.05371606\C,0,1.63124537,0
 .96270998,0.09614593\N,0,2.00153029,2.07108385,0.11888484\H,0,-2.06359
 438,0.55648774,0.66382524\H,0,-1.87720512,-0.94417084,-0.3044277\H,0,-
 1.16367334,1.42040987,-0.67846392\H,0,1.55483586,-0.93595679,-0.821029

 Normal termination of Gaussian 16 at Wed Apr  9 03:16:25 2025.
