 Gaussian 16, Revision C.01,

 ----------------------------------------------------------------------
 #t hf aug-cc-pvdz symm=none int=(grid=ultrafine) guess=(read,tcheck) s
 table=(opt,rrhf)
 ----------------------------------------------------------------------
 -----
 title
 -----
 Symbolic Z-matrix:
 Charge =  0 Multiplicity = 1

 SCF Done:  E(RHF) =  -324.906687175     A.U. after   15 cycles
 Normal termination of Gaussian 16 at Wed Apr  9 18:50:07 2025.
 Gaussian 16:  ES64L-G16RevC.01  3-Jul-2019

 ----------------------------------------------------------------------
 #t hf aug-cc-pvdz iop(5/13=1,5/36=2,99/5=2) pseudo=read geom=check gue
 ss=(read,tcheck) scf=(maxcycle=1)
 ----------------------------------------------------------------------
 -----
 title
 -----
 Structure from the checkpoint file:  "Grambow2020_wb97xd3_008106_forward_mol1.chk"
 Charge =  0 Multiplicity = 1

                         Standard orientation:
 ---------------------------------------------------------------------
 Center     Atomic      Atomic             Coordinates (Angstroms)
 Number     Number       Type             X           Y           Z
 ---------------------------------------------------------------------
      1          6           0       -1.089723   -0.999440    1.066465
      2          6           0        0.613833   -1.376532   -0.246864
      3          7           0        0.937828   -0.141456   -0.566179
      4          6           0        2.032386    0.462442    0.170817
      5          6           0       -0.637786    0.299652   -0.314437
      6          8           0       -1.355019    0.169594   -1.280621
      7          6           0       -0.601459    1.539999    0.555244
      8          1           0       -1.362360   -2.024444    0.811100
      9          1           0       -2.033264   -0.472488    1.213984
     10          1           0       -0.537642   -0.979463    2.008998
     11          1           0       -0.075730   -1.889470   -0.904436
     12          1           0        1.243727   -1.983286    0.405777
     13          1           0        2.968701    0.008335   -0.158186
     14          1           0        2.084453    1.525862   -0.052476
     15          1           0        1.947663    0.331238    1.257043
     16          1           0       -1.634025    1.759457    0.822613
     17          1           0       -0.215619    2.364790   -0.046639
     18          1           0       -0.014055    1.436177    1.463095
 ---------------------------------------------------------------------

 SCF Done:  E(RHF) =  -325.252392289     A.U. after    2 cycles

 The electronic state is 1-A.
 Alpha  occ. eigenvalues --  -20.47377 -15.52158 -11.37493 -11.36091 -11.28033
 Alpha  occ. eigenvalues --  -11.24312 -11.21717  -1.43774  -1.27853  -1.01969
 Alpha  occ. eigenvalues --   -1.01276  -0.92538  -0.86778  -0.76743  -0.71059
 Alpha  occ. eigenvalues --   -0.69865  -0.66805  -0.61857  -0.59071  -0.58484
 Alpha  occ. eigenvalues --   -0.57670  -0.55555  -0.54836  -0.53177  -0.52034
 Alpha  occ. eigenvalues --   -0.44433  -0.39184  -0.32502
 Alpha virt. eigenvalues --    0.02576   0.03537   0.03788   0.04388   0.05195
 Alpha virt. eigenvalues --    0.05507   0.06016   0.07154   0.07658   0.08215
 Alpha virt. eigenvalues --    0.09131   0.09785   0.11471   0.12877   0.13634

 Mulliken charges:
               1
     1  C   -0.268314
     2  C   -0.345671
     3  N    0.859309
     4  C   -0.377600
     5  C    0.847253
     6  O   -1.632585
     7  C   -0.249769
     8  H    0.038965
     9  H    0.020217
    10  H    0.102333
    11  H    0.080659
    12  H   -0.004038
    13  H    0.021033
    14  H    0.094192
    15  H    0.247597
    16  H    0.045592
    17  H    0.185520
    18  H    0.335306
 Sum of Mulliken charges =  -0.00000

 Dipole moment (field-independent basis, Debye):
    X=              3.6607    Y=             -1.0854    Z=              3.3273  Tot=              5.0646

 Test job not archived.
 1\1\GINC-SE028\SP\RHF\Aug-CC-pVDZ\C5H11N1O1\OHZDE\09-Apr-2025\0\\#t hf
  aug-cc-pvdz iop(5/13=1,5/36=2,99/5=2) pseudo=read geom=check guess=(r
 ead,tcheck) scf=(maxcycle=1)\\title\\0,1\C,0,-1.04241645,0.5256917,-1.
 28362856\C,0,-1.33925981,-0.58389806,0.57374282\N,0,-0.08717595,-0.804
 97608,0.91397658\C,0,0.49341295,0.08744903,1.9000828\C,0,0.32461641,-0
 .72922052,-0.68764734\O,0,0.23211572,-1.78112023,-1.27908643\C,0,1.523
 27538,0.19333537,-0.77839106\H,0,-2.05725119,0.19281679,-1.50606883\H,
 0,-0.5331715,0.57969391,-2.2466774\H,0,-1.06055057,1.52888084,-0.85137

 Normal termination of Gaussian 16 at Wed Apr  9 18:50:14 2025.
