 Gaussian 16, Revision C.01,

 ----------------------------------------------------------------------
 #t hf aug-cc-pvdz symm=none int=(grid=ultrafine) guess=(read,tcheck) s
 table=(opt,rrhf)
 ----------------------------------------------------------------------
 -----
 title
 -----
 Symbolic Z-matrix:
 Charge =  0 Multiplicity = 1

 SCF Done:  E(RHF) =  -306.519052760     A.U. after   15 cycles
 Normal termination of Gaussian 16 at Wed Apr  9 18:22:23 2025.
 Gaussian 16:  ES64L-G16RevC.01  3-Jul-2019

 ----------------------------------------------------------------------
 #t hf aug-cc-pvdz iop(5/13=1,5/36=2,99/5=2) pseudo=read geom=check gue
 ss=(read,tcheck) scf=(maxcycle=1)
 ----------------------------------------------------------------------
 -----
 title
 -----
 Structure from the checkpoint file:  "Grambow2020_wb97xd3_007361_forward_mol1.chk"
 Charge =  0 Multiplicity = 1

                         Standard orientation:
 ---------------------------------------------------------------------
 Center     Atomic      Atomic             Coordinates (Angstroms)
 Number     Number       Type             X           Y           Z
 ---------------------------------------------------------------------
      1          6           0       -2.045901   -0.473218    0.715908
      2          6           0       -2.302033    0.143250   -0.445464
      3          6           0       -0.121061    0.423906   -0.658246
      4          6           0        0.642519    1.244750    0.379681
      5          6           0        1.730864    0.308656   -0.080520
      6          8           0        1.526652   -0.925459    0.536748
      7          6           0        0.746634   -0.712813   -0.654398
      8          1           0       -1.987603    0.074913    1.647990
      9          1           0       -1.873314   -1.541077    0.767692
     10          1           0       -2.433004   -0.409191   -1.366268
     11          1           0       -2.542231    1.197385   -0.488227
     12          1           0        0.710235    2.298519    0.119505
     13          1           0        0.444523    1.103624    1.440042
     14          1           0        2.689354    0.532028   -0.530357
     15          1           0        0.872698   -1.459708   -1.426128
 ---------------------------------------------------------------------

 SCF Done:  E(RHF) =  -306.834657561     A.U. after    2 cycles

 The electronic state is 1-A.
 Alpha  occ. eigenvalues --  -20.57537 -11.32840 -11.30277 -11.26215 -11.25114
 Alpha  occ. eigenvalues --  -11.24984 -11.24139  -1.52387  -1.12849  -1.04484
 Alpha  occ. eigenvalues --   -0.93370  -0.85130  -0.80307  -0.75707  -0.69093
 Alpha  occ. eigenvalues --   -0.65747  -0.63426  -0.60502  -0.60402  -0.55995
 Alpha  occ. eigenvalues --   -0.54003  -0.51707  -0.49040  -0.42949  -0.38009
 Alpha  occ. eigenvalues --   -0.31956
 Alpha virt. eigenvalues --    0.03610   0.03748   0.04124   0.04432   0.06090
 Alpha virt. eigenvalues --    0.06191   0.06409   0.07476   0.09582   0.10953
 Alpha virt. eigenvalues --    0.11853   0.12045   0.12571   0.14053   0.14275

 Mulliken charges:
               1
     1  C    0.318333
     2  C    0.025454
     3  C   -0.248589
     4  C   -0.114405
     5  C    0.849223
     6  O   -1.438435
     7  C    0.855212
     8  H   -0.087016
     9  H   -0.079880
    10  H   -0.033476
    11  H   -0.021946
    12  H    0.061245
    13  H    0.098296
    14  H   -0.100138
    15  H   -0.083877
 Sum of Mulliken charges =  -0.00000

 Dipole moment (field-independent basis, Debye):
    X=              0.3886    Y=              0.6540    Z=             -0.0106  Tot=              0.7608

 Test job not archived.
 1\1\GINC-SE035\SP\RHF\Aug-CC-pVDZ\C6H8O1\OHZDE\09-Apr-2025\0\\#t hf au
 g-cc-pvdz iop(5/13=1,5/36=2,99/5=2) pseudo=read geom=check guess=(read
 ,tcheck) scf=(maxcycle=1)\\title\\0,1\C,0,-1.82155092,0.28094562,-0.82
 800749\C,0,-2.04162907,0.02487724,0.46830083\C,0,0.15122201,-0.0896631
 8,0.71113401\C,0,0.94441996,-1.1479904,-0.05366187\C,0,1.99209573,-0.0
 7342082,0.08856228\O,0,1.72784462,0.91377135,-0.86085068\C,0,0.9662618
 9,1.03020155,0.35525422\H,0,-1.74458963,-0.51508706,-1.55809781\H,0,-1
 .69806992,1.29208228,-1.1956294\H,0,-2.19145737,0.81867749,1.18778432\

 Normal termination of Gaussian 16 at Wed Apr  9 18:22:28 2025.
