 Gaussian 16, Revision C.01,

 ----------------------------------------------------------------------
 #t hf aug-cc-pvdz symm=none int=(grid=ultrafine) guess=(read,tcheck) s
 table=(opt,rrhf)
 ----------------------------------------------------------------------
 -----
 title
 -----
 Symbolic Z-matrix:
 Charge =  0 Multiplicity = 1

 SCF Done:  E(RHF) =  -355.808315699     A.U. after   16 cycles
 Normal termination of Gaussian 16 at Wed Apr  9 03:59:14 2025.
 Gaussian 16:  ES64L-G16RevC.01  3-Jul-2019

 ----------------------------------------------------------------------
 #t hf aug-cc-pvdz iop(5/13=1,5/36=2,99/5=2) pseudo=read geom=check gue
 ss=(read,tcheck) scf=(maxcycle=1)
 ----------------------------------------------------------------------
 -----
 title
 -----
 Structure from the checkpoint file:  "Grambow2020_wb97xd3_008720_forward_mol1.chk"
 Charge =  0 Multiplicity = 1

                         Standard orientation:
 ---------------------------------------------------------------------
 Center     Atomic      Atomic             Coordinates (Angstroms)
 Number     Number       Type             X           Y           Z
 ---------------------------------------------------------------------
      1          6           0       -2.532794   -0.454637    0.062931
      2          7           0       -1.149652   -0.663300   -0.097014
      3          6           0       -0.241484    0.265277   -0.031790
      4          7           0       -0.551528    1.599881    0.047410
      5          6           0        1.198971   -0.076531    0.003633
      6          8           0        2.040796    0.803881    0.044039
      7          7           0        1.504629   -1.399057    0.003797
      8          1           0       -2.959204    0.541493    0.080458
      9          1           0       -1.532702   -1.220979    0.804688
     10          1           0       -3.136282   -1.285005   -0.271658
     11          1           0        0.250284    2.192608   -0.111263
     12          1           0       -1.394863    1.893796   -0.420958
     13          1           0        0.801055   -2.075150   -0.228994
     14          1           0        2.473044   -1.645124   -0.092593
 ---------------------------------------------------------------------

 SCF Done:  E(RHF) =  -356.174876230     A.U. after    2 cycles

 The electronic state is 1-A.
 Alpha  occ. eigenvalues --  -20.51723 -15.56495 -15.52961 -15.52393 -11.36868
 Alpha  occ. eigenvalues --  -11.31698 -11.26929  -1.46948  -1.31815  -1.22945
 Alpha  occ. eigenvalues --   -1.20643  -1.01391  -0.88812  -0.81669  -0.80711
 Alpha  occ. eigenvalues --   -0.76823  -0.71839  -0.68226  -0.66199  -0.63853
 Alpha  occ. eigenvalues --   -0.60586  -0.59240  -0.52478  -0.50384  -0.44678
 Alpha  occ. eigenvalues --   -0.44008  -0.27614
 Alpha virt. eigenvalues --    0.02806   0.04145   0.04515   0.04957   0.05391
 Alpha virt. eigenvalues --    0.06495   0.06869   0.08396   0.10674   0.11483
 Alpha virt. eigenvalues --    0.11495   0.13089   0.13386   0.14030   0.14516

 Mulliken charges:
               1
     1  C   -0.334644
     2  N    0.876403
     3  C   -2.174655
     4  N    0.742940
     5  C    0.694872
     6  O   -1.435084
     7  N    0.725972
     8  H   -0.111198
     9  H    0.656051
    10  H   -0.115447
    11  H    0.164679
    12  H    0.135744
    13  H    0.075813
    14  H    0.098554
 Sum of Mulliken charges =   0.00000

 Dipole moment (field-independent basis, Debye):
    X=             -1.5855    Y=             -1.7194    Z=             -1.1158  Tot=              2.5913

 Test job not archived.
 1\1\GINC-SE038\SP\RHF\Aug-CC-pVDZ\C3H7N3O1\OHZDE\09-Apr-2025\0\\#t hf
 aug-cc-pvdz iop(5/13=1,5/36=2,99/5=2) pseudo=read geom=check guess=(re
 ad,tcheck) scf=(maxcycle=1)\\title\\0,1\C,0,2.01641053,0.66405449,-0.5
 0034665\N,0,0.61262048,0.58705288,-0.42519772\C,0,-0.05321307,-0.36467
 104,0.15975182\N,0,0.5478016,-1.50012201,0.64255675\C,0,-1.51375435,-0
 .25268977,0.3771884\O,0,-2.12949724,-1.16060534,0.90820179\N,0,-2.0967
 0334,0.90351425,-0.03007416\H,0,2.64745624,-0.17097059,-0.21941186\H,0
 ,0.98847593,1.50312279,0.11364106\H,0,2.3713433,1.37618831,-1.23010528

 Normal termination of Gaussian 16 at Wed Apr  9 03:59:19 2025.
