 Gaussian 16, Revision C.01,

 ----------------------------------------------------------------------
 #t hf aug-cc-pvdz symm=none int=(grid=ultrafine) guess=(read,tcheck) s
 table=(opt,rrhf)
 ----------------------------------------------------------------------
 -----
 title
 -----
 Symbolic Z-matrix:
 Charge =  0 Multiplicity = 1

 SCF Done:  E(RHF) =  -359.721094153     A.U. after   13 cycles
 Normal termination of Gaussian 16 at Wed Apr  9 18:18:13 2025.
 Gaussian 16:  ES64L-G16RevC.01  3-Jul-2019

 ----------------------------------------------------------------------
 #t hf aug-cc-pvdz iop(5/13=1,5/36=2,99/5=2) pseudo=read geom=check gue
 ss=(read,tcheck) scf=(maxcycle=1)
 ----------------------------------------------------------------------
 -----
 title
 -----
 Structure from the checkpoint file:  "Grambow2020_wb97xd3_007288_reverse_mol2.chk"
 Charge =  0 Multiplicity = 1

                         Standard orientation:
 ---------------------------------------------------------------------
 Center     Atomic      Atomic             Coordinates (Angstroms)
 Number     Number       Type             X           Y           Z
 ---------------------------------------------------------------------
      1          8           0        0.467773   -0.842911    0.994644
      2          6           0       -0.086760   -1.066490   -0.321080
      3          6           0       -1.517339   -0.594895   -0.431495
      4          7           0       -1.530792    0.758496    0.137482
      5          6           0       -0.178982    1.304766    0.016130
      6          6           0        0.732687    0.098696   -0.021255
      7          8           0        2.033442    0.336583   -0.362344
      8          1           0        2.529156   -0.482113   -0.279289
      9          1           0        0.278334   -1.943061   -0.845391
     10          1           0       -1.803290   -0.575103   -1.488788
     11          1           0       -2.226868   -1.234917    0.095122
     12          1           0       -1.757212    0.687127    1.118209
     13          1           0        0.047369    1.976713    0.844374
     14          1           0       -0.059303    1.860039   -0.918805
 ---------------------------------------------------------------------

 SCF Done:  E(RHF) =  -360.089334882     A.U. after    2 cycles

 The electronic state is 1-A.
 Alpha  occ. eigenvalues --  -20.57751 -20.56316 -15.49230 -11.34895 -11.29342
 Alpha  occ. eigenvalues --  -11.26931 -11.26495  -1.53706  -1.46601  -1.22437
 Alpha  occ. eigenvalues --   -1.00593  -0.98621  -0.84447  -0.81816  -0.75384
 Alpha  occ. eigenvalues --   -0.71181  -0.69235  -0.63868  -0.59168  -0.58802
 Alpha  occ. eigenvalues --   -0.58312  -0.54952  -0.54628  -0.50355  -0.48176
 Alpha  occ. eigenvalues --   -0.42034  -0.40202
 Alpha virt. eigenvalues --    0.03282   0.04136   0.04658   0.04935   0.05955
 Alpha virt. eigenvalues --    0.06496   0.06945   0.10320   0.10685   0.12221
 Alpha virt. eigenvalues --    0.13143   0.14086   0.14436   0.14897   0.15259

 Mulliken charges:
               1
     1  O   -1.559095
     2  C   -0.022859
     3  C   -0.323902
     4  N    0.319657
     5  C   -0.637502
     6  C    2.509539
     7  O   -1.547094
     8  H    0.276804
     9  H    0.008453
    10  H    0.129279
    11  H    0.120814
    12  H    0.425420
    13  H    0.153172
    14  H    0.147312
 Sum of Mulliken charges =  -0.00000

 Dipole moment (field-independent basis, Debye):
    X=              0.1604    Y=             -1.5218    Z=             -0.8481  Tot=              1.7495

 Test job not archived.
 1\1\GINC-SE162\SP\RHF\Aug-CC-pVDZ\C4H7N1O2\OHZDE\09-Apr-2025\0\\#t hf
 aug-cc-pvdz iop(5/13=1,5/36=2,99/5=2) pseudo=read geom=check guess=(re
 ad,tcheck) scf=(maxcycle=1)\\title\\0,1\O,0,1.32373045,-0.25161668,-1.
 01244534\C,0,0.94361414,0.38155098,0.2298246\C,0,-0.11470082,1.4415948
 4,0.03636462\N,0,-1.14659568,0.81929697,-0.80239644\C,0,-1.06063699,-0
 .62867398,-0.61130153\C,0,0.36914955,-0.88771573,-0.19207505\O,0,0.643
 9467,-2.14316297,0.26969728\H,0,1.58823484,-2.21263267,0.4321428\H,0,1
 .72784524,0.47219035,0.97369213\H,0,-0.52299529,1.71736466,1.01476878\

 Normal termination of Gaussian 16 at Wed Apr  9 18:18:18 2025.
