 Gaussian 16, Revision C.01,

 ----------------------------------------------------------------------
 #t hf aug-cc-pvdz symm=none int=(grid=ultrafine) guess=(read,tcheck) s
 table=(opt,rrhf)
 ----------------------------------------------------------------------
 -----
 title
 -----
 Symbolic Z-matrix:
 Charge =  0 Multiplicity = 1

 SCF Done:  E(RHF) =  -207.621115284     A.U. after   13 cycles
 Normal termination of Gaussian 16 at Wed Apr  9 16:53:49 2025.
 Gaussian 16:  ES64L-G16RevC.01  3-Jul-2019

 ----------------------------------------------------------------------
 #t hf aug-cc-pvdz iop(5/13=1,5/36=2,99/5=2) pseudo=read geom=check gue
 ss=(read,tcheck) scf=(maxcycle=1)
 ----------------------------------------------------------------------
 -----
 title
 -----
 Structure from the checkpoint file:  "Grambow2020_wb97xd3_006176_forward_mol2.chk"
 Charge =  0 Multiplicity = 1

                         Standard orientation:
 ---------------------------------------------------------------------
 Center     Atomic      Atomic             Coordinates (Angstroms)
 Number     Number       Type             X           Y           Z
 ---------------------------------------------------------------------
      1          6           0       -2.467762   -0.000207   -0.000799
      2          6           0       -1.016487   -0.000015    0.000895
      3          6           0        0.183156    0.000659    0.001216
      4          6           0        1.561076    0.000262    0.000310
      5          7           0        2.711639   -0.000489   -0.000935
      6          1           0       -2.846480   -0.663449   -0.779227
      7          1           0       -2.846411    1.005581   -0.186051
      8          1           0       -2.848484   -0.342898    0.962087
 ---------------------------------------------------------------------

 SCF Done:  E(RHF) =  -207.829489212     A.U. after    2 cycles

 The electronic state is 1-A.
 Alpha  occ. eigenvalues --  -15.53172 -11.30692 -11.30264 -11.29220 -11.28407
 Alpha  occ. eigenvalues --   -1.25078  -1.11266  -1.02229  -0.88610  -0.68278
 Alpha  occ. eigenvalues --   -0.63446  -0.63429  -0.62286  -0.55712  -0.55711
 Alpha  occ. eigenvalues --   -0.42574  -0.42573
 Alpha virt. eigenvalues --    0.02347   0.04499   0.04501   0.05776   0.08634
 Alpha virt. eigenvalues --    0.08635   0.08921   0.10982   0.10982   0.12950
 Alpha virt. eigenvalues --    0.13203   0.13829   0.13835   0.17115   0.17117

 Mulliken charges:
               1
     1  C   -0.398909
     2  C   -0.092405
     3  C    1.381188
     4  C   -2.623372
     5  N    0.915574
     6  H    0.272583
     7  H    0.272863
     8  H    0.272477
 Sum of Mulliken charges =   0.00000

 Dipole moment (field-independent basis, Debye):
    X=             -6.1997    Y=              0.0009    Z=              0.0009  Tot=              6.1997

 Test job not archived.
 1\1\GINC-SE113\SP\RHF\Aug-CC-pVDZ\C4H3N1\OHZDE\09-Apr-2025\0\\#t hf au
 g-cc-pvdz iop(5/13=1,5/36=2,99/5=2) pseudo=read geom=check guess=(read
 ,tcheck) scf=(maxcycle=1)\\title\\0,1\C,0,-1.51200933,0.11469131,-0.25
 564897\C,0,-0.06976644,0.00484409,-0.13702883\C,0,1.12230122,-0.086097
 09,-0.03779375\C,0,2.4915657,-0.1890374,0.07702522\N,0,3.63491542,-0.2
 7443953,0.17322896\H,0,-1.86596017,1.01933781,0.23993311\H,0,-1.996623
 14,-0.74679726,0.20510094\H,0,-1.8044233,0.15749807,-1.30550486\\Versi
 on=ES64L-G16RevC.01\State=1-A\HF=-207.8294892\RMSD=4.526e-02\Dipole=-2

 Normal termination of Gaussian 16 at Wed Apr  9 16:53:51 2025.
