 Gaussian 16, Revision C.01,

 ----------------------------------------------------------------------
 #t hf aug-cc-pvdz symm=none int=(grid=ultrafine) guess=(read,tcheck) s
 table=(opt,rrhf)
 ----------------------------------------------------------------------
 -----
 title
 -----
 Symbolic Z-matrix:
 Charge =  0 Multiplicity = 1

 SCF Done:  E(RHF) =  -306.589103603     A.U. after   14 cycles
 Normal termination of Gaussian 16 at Wed Apr  9 18:54:49 2025.
 Gaussian 16:  ES64L-G16RevC.01  3-Jul-2019

 ----------------------------------------------------------------------
 #t hf aug-cc-pvdz iop(5/13=1,5/36=2,99/5=2) pseudo=read geom=check gue
 ss=(read,tcheck) scf=(maxcycle=1)
 ----------------------------------------------------------------------
 -----
 title
 -----
 Structure from the checkpoint file:  "Grambow2020_wb97xd3_008214_forward_mol1.chk"
 Charge =  0 Multiplicity = 1

                         Standard orientation:
 ---------------------------------------------------------------------
 Center     Atomic      Atomic             Coordinates (Angstroms)
 Number     Number       Type             X           Y           Z
 ---------------------------------------------------------------------
      1          6           0       -1.486448    0.652357   -0.362809
      2          8           0       -1.402507   -0.782248   -0.383546
      3          6           0       -0.338833   -0.775477    0.585577
      4          6           0        0.890357   -1.334906   -0.116450
      5          6           0        1.679347   -0.188505   -0.349227
      6          6           0        1.044950    1.162057   -0.023316
      7          6           0       -0.298592    0.777238    0.595433
      8          1           0       -1.350154    1.082002   -1.360180
      9          1           0       -2.445211    0.984315    0.045341
     10          1           0       -0.612018   -1.300797    1.503847
     11          1           0        2.012582   -0.803105    0.628565
     12          1           0        2.576255   -0.237345   -0.964097
     13          1           0        1.668775    1.754745    0.647852
     14          1           0        0.933686    1.740251   -0.944028
     15          1           0       -0.508539    1.281329    1.535818
 ---------------------------------------------------------------------

 SCF Done:  E(RHF) =  -306.907661129     A.U. after    2 cycles

 The electronic state is 1-A.
 Alpha  occ. eigenvalues --  -20.54313 -11.29133 -11.29000 -11.27818 -11.25422
 Alpha  occ. eigenvalues --  -11.25038 -11.24541  -1.47125  -1.15679  -1.03169
 Alpha  occ. eigenvalues --   -0.95654  -0.92068  -0.77301  -0.74458  -0.71320
 Alpha  occ. eigenvalues --   -0.65542  -0.62873  -0.60952  -0.59151  -0.57117
 Alpha  occ. eigenvalues --   -0.51556  -0.50064  -0.47182  -0.45583  -0.41612
 Alpha  occ. eigenvalues --   -0.35182
 Alpha virt. eigenvalues --    0.02698   0.03367   0.03696   0.04722   0.05617
 Alpha virt. eigenvalues --    0.05995   0.06514   0.07915   0.09208   0.10739
 Alpha virt. eigenvalues --    0.11184   0.12330   0.13822   0.13896   0.14921

 Mulliken charges:
               1
     1  C    0.703868
     2  O   -1.393947
     3  C    1.074259
     4  C   -0.833646
     5  C    0.224102
     6  C   -0.274482
     7  C   -0.261924
     8  H    0.025590
     9  H    0.026026
    10  H    0.014896
    11  H    0.464948
    12  H    0.012958
    13  H    0.109214
    14  H    0.138996
    15  H   -0.030859
 Sum of Mulliken charges =  -0.00000

 Dipole moment (field-independent basis, Debye):
    X=              1.3211    Y=              4.1283    Z=              1.4870  Tot=              4.5825

 Test job not archived.
 1\1\GINC-SE104\SP\RHF\Aug-CC-pVDZ\C6H8O1\OHZDE\09-Apr-2025\0\\#t hf au
 g-cc-pvdz iop(5/13=1,5/36=2,99/5=2) pseudo=read geom=check guess=(read
 ,tcheck) scf=(maxcycle=1)\\title\\0,1\C,0,-1.55462841,-0.39906784,-0.6
 5651731\O,0,-0.8629897,-1.64637878,-0.47926437\C,0,-0.06871993,-1.1016
 9995,0.5898974\C,0,1.3739183,-1.10853435,0.10465459\C,0,1.62218835,0.2
 4882408,-0.19007709\C,0,0.42904981,1.19934878,-0.11511732\C,0,-0.69860
 895,0.30533722,0.39983064\H,0,-1.4626041,-0.02523095,-1.68106428\H,0,-
 2.61363345,-0.49696562,-0.40169774\H,0,-0.22947321,-1.62718628,1.53426

 Normal termination of Gaussian 16 at Wed Apr  9 18:54:54 2025.
