 Gaussian 16, Revision C.01,

 ----------------------------------------------------------------------
 #t hf aug-cc-pvdz symm=none int=(grid=ultrafine) guess=(read,tcheck) s
 table=(opt,rrhf)
 ----------------------------------------------------------------------
 -----
 title
 -----
 Symbolic Z-matrix:
 Charge =  0 Multiplicity = 1

 SCF Done:  E(RHF) =  -301.976860026     A.U. after   23 cycles
 Normal termination of Gaussian 16 at Wed Apr  9 15:43:36 2025.
 Gaussian 16:  ES64L-G16RevC.01  3-Jul-2019

 ----------------------------------------------------------------------
 #t hf aug-cc-pvdz iop(5/13=1,5/36=2,99/5=2) pseudo=read geom=check gue
 ss=(read,tcheck) scf=(maxcycle=1)
 ----------------------------------------------------------------------
 -----
 title
 -----
 Structure from the checkpoint file:  "Grambow2020_b97d3_006717_forward_mol1.chk"
 Charge =  0 Multiplicity = 1

                         Standard orientation:
 ---------------------------------------------------------------------
 Center     Atomic      Atomic             Coordinates (Angstroms)
 Number     Number       Type             X           Y           Z
 ---------------------------------------------------------------------
      1          8           0        1.179310    0.660435    0.254382
      2          6           0        1.242413   -0.732703   -0.088216
      3          6           0        0.074558   -1.378735   -0.027222
      4          6           0       -1.112211   -0.766209   -0.032363
      5          6           0       -1.908230    0.190100    0.081699
      6          8           0        0.156465    1.383384   -0.221961
      7          1           0        2.268854   -1.086591   -0.071483
      8          1           0       -2.734235    0.861320    0.208730
 ---------------------------------------------------------------------

 SCF Done:  E(RHF) =  -302.267079885     A.U. after    2 cycles

 The electronic state is 1-A.
 Alpha  occ. eigenvalues --  -20.66566 -20.59361 -11.37019 -11.34338 -11.31447
 Alpha  occ. eigenvalues --  -11.30824  -1.62282  -1.22634  -1.13425  -1.02133
 Alpha  occ. eigenvalues --   -0.88648  -0.77279  -0.72534  -0.70476  -0.64997
 Alpha  occ. eigenvalues --   -0.58635  -0.52296  -0.46307  -0.45020  -0.37244
 Alpha  occ. eigenvalues --   -0.34964
 Alpha virt. eigenvalues --   -0.04337   0.03219   0.03704   0.05037   0.07442
 Alpha virt. eigenvalues --    0.08998   0.10141   0.10243   0.11283   0.11888
 Alpha virt. eigenvalues --    0.13473   0.14589   0.15518   0.15800   0.16050

 Mulliken charges:
               1
     1  O   -0.614218
     2  C    0.971472
     3  C   -0.414524
     4  C    0.838804
     5  C   -0.092945
     6  O   -0.409714
     7  H   -0.037866
     8  H   -0.241009
 Sum of Mulliken charges =  -0.00000

 Dipole moment (field-independent basis, Debye):
    X=             -1.0798    Y=             -1.1242    Z=             -0.1730  Tot=              1.5684

 Test job not archived.
 1\1\GINC-SE226\SP\RHF\Aug-CC-pVDZ\C4H2O2\OHZDE\09-Apr-2025\0\\#t hf au
 g-cc-pvdz iop(5/13=1,5/36=2,99/5=2) pseudo=read geom=check guess=(read
 ,tcheck) scf=(maxcycle=1)\\title\\0,1\O,0,-0.80910921,-0.37501392,1.13
 616977\C,0,-1.37824309,-0.54172277,-0.17168587\C,0,-0.697217,0.0469568
 2,-1.15891513\C,0,0.57839538,0.42839724,-1.05425724\C,0,1.64096209,0.7
 2473124,-0.46746794\O,0,0.51835435,-0.50111732,1.26923888\H,0,-2.40711
 43,-0.8819595,-0.10269294\H,0,2.59838377,1.07948921,-0.14120554\\Versi
 on=ES64L-G16RevC.01\State=1-A\HF=-302.2670799\RMSD=2.021e-02\Dipole=0.

 Normal termination of Gaussian 16 at Wed Apr  9 15:43:39 2025.
