 Gaussian 16, Revision C.01,

 ----------------------------------------------------------------------
 #t hf aug-cc-pvdz symm=none int=(grid=ultrafine) guess=(read,tcheck) s
 table=(opt,rrhf)
 ----------------------------------------------------------------------
 -----
 title
 -----
 Symbolic Z-matrix:
 Charge =  0 Multiplicity = 1

 SCF Done:  E(RHF) =  -338.558554200     A.U. after   18 cycles
 Normal termination of Gaussian 16 at Wed Apr  9 03:52:35 2025.
 Gaussian 16:  ES64L-G16RevC.01  3-Jul-2019

 ----------------------------------------------------------------------
 #t hf aug-cc-pvdz iop(5/13=1,5/36=2,99/5=2) pseudo=read geom=check gue
 ss=(read,tcheck) scf=(maxcycle=1)
 ----------------------------------------------------------------------
 -----
 title
 -----
 Structure from the checkpoint file:  "Grambow2020_wb97xd3_008308_reverse_mol2.chk"
 Charge =  0 Multiplicity = 1

                         Standard orientation:
 ---------------------------------------------------------------------
 Center     Atomic      Atomic             Coordinates (Angstroms)
 Number     Number       Type             X           Y           Z
 ---------------------------------------------------------------------
      1          6           0        2.416087    0.688400    0.015865
      2          8           0        1.590655   -0.494604    0.012419
      3          6           0        0.320693   -0.323971    0.017238
      4          6           0       -0.612884   -1.563661    0.022982
      5          7           0       -1.727658   -0.886351    0.061963
      6          6           0       -1.608873    0.575607   -0.182946
      7          7           0       -0.288387    0.837229   -0.038094
      8          1           0        2.196892    1.283556   -0.868439
      9          1           0        3.438308    0.324406    0.008067
     10          1           0        2.209258    1.273723    0.909457
     11          1           0       -3.629100    3.559199    0.310981
     12          1           0       -2.634965   -1.324025    0.017620
     13          1           0       -3.283457    2.925581    0.117048
 ---------------------------------------------------------------------

 SCF Done:  E(RHF) =  -338.896252035     A.U. after    2 cycles

 The electronic state is 1-A.
 Alpha  occ. eigenvalues --  -20.64497 -15.56941 -15.50339 -11.40149 -11.32588
 Alpha  occ. eigenvalues --  -11.32457 -11.30361  -1.58948  -1.35384  -1.21954
 Alpha  occ. eigenvalues --   -1.04089  -0.95722  -0.89430  -0.81644  -0.76303
 Alpha  occ. eigenvalues --   -0.71174  -0.71130  -0.61998  -0.61516  -0.57290
 Alpha  occ. eigenvalues --   -0.56876  -0.54772  -0.53625  -0.47149  -0.43100
 Alpha  occ. eigenvalues --   -0.38394
 Alpha virt. eigenvalues --   -0.00442   0.03058   0.04187   0.05165   0.05376
 Alpha virt. eigenvalues --    0.06833   0.07403   0.08672   0.09713   0.10655
 Alpha virt. eigenvalues --    0.11390   0.11936   0.13141   0.14437   0.14637

 Mulliken charges:
               1
     1  C    0.190131
     2  O   -1.247195
     3  C    0.383937
     4  C   -0.629405
     5  N    0.496831
     6  C   -0.418861
     7  N    0.721512
     8  H    0.229850
     9  H    0.000018
    10  H    0.219079
    11  H   -0.014854
    12  H    0.037818
    13  H    0.031138
 Sum of Mulliken charges =  -0.00000

 Dipole moment (field-independent basis, Debye):
    X=              2.6832    Y=             -0.4573    Z=              0.3874  Tot=              2.7493

 Test job not archived.
 1\1\GINC-SE460\SP\RHF\Aug-CC-pVDZ\C4H6N2O1\OHZDE\09-Apr-2025\0\\#t hf
 aug-cc-pvdz iop(5/13=1,5/36=2,99/5=2) pseudo=read geom=check guess=(re
 ad,tcheck) scf=(maxcycle=1)\\title\\0,1\C,0,2.46597916,0.56612278,-0.2
 5724703\O,0,1.79860498,-0.22208238,0.74982522\C,0,0.53190657,-0.374899
 88,0.63124154\C,0,-0.23616196,-1.20647733,1.69283517\N,0,-1.41659249,-
 1.03325786,1.16409374\C,0,-1.43737248,-0.4403892,-0.1995368\N,0,-0.195
 95551,0.07428118,-0.36418776\H,0,2.31610047,0.1069345,-1.23240407\H,0,
 3.51331481,0.56617568,0.02661094\H,0,2.05525666,1.57368092,-0.26195146

 Normal termination of Gaussian 16 at Wed Apr  9 03:52:39 2025.
