 Gaussian 16, Revision C.01,

 ----------------------------------------------------------------------
 #t hf aug-cc-pvdz symm=none int=(grid=ultrafine) guess=(read,tcheck) s
 table=(opt,rrhf)
 ----------------------------------------------------------------------
 -----
 title
 -----
 Symbolic Z-matrix:
 Charge =  0 Multiplicity = 1

 SCF Done:  E(RHF) =  -271.072204243     A.U. after   14 cycles

 1\1\GINC-SE162\Stability\RHF\Aug-CC-pVDZ\C5H12O1\OHZDE\09-Apr-2025\0\\
 #t hf aug-cc-pvdz symm=none int=(grid=ultrafine) guess=(read,tcheck) s
 table=(opt,rrhf)\\title\\0,1\C,0,-2.51435217,-0.33432265,0.13469757\C,
 0,-1.47805383,0.41067366,-0.74430198\C,0,-0.32699451,1.17072252,-0.102
 53521\O,0,0.45843796,-0.10181401,0.84856602\C,0,1.55062025,-0.68774622
 ,0.05806745\C,0,2.71191748,0.28330422,0.06676396\H,0,-3.32637116,-0.77
 568151,-0.4641806\H,0,-2.06760489,-1.17762865,0.69527712\H,0,-2.959978
 05,0.34746757,0.87314678\H,0,-1.11346925,-0.27477203,-1.53201039\H,0,-

 Normal termination of Gaussian 16 at Wed Apr  9 15:50:05 2025.
 Gaussian 16:  ES64L-G16RevC.01  3-Jul-2019

 ----------------------------------------------------------------------
 #t hf aug-cc-pvdz iop(5/13=1,5/36=2,99/5=2) pseudo=read geom=check gue
 ss=(read,tcheck) scf=(maxcycle=1)
 ----------------------------------------------------------------------
 -----
 title
 -----
 Structure from the checkpoint file:  "Grambow2020_b97d3_006799_reverse_mol2.chk"
 Charge =  0 Multiplicity = 1

                         Standard orientation:
 ---------------------------------------------------------------------
 Center     Atomic      Atomic             Coordinates (Angstroms)
 Number     Number       Type             X           Y           Z
 ---------------------------------------------------------------------
      1          6           0        2.552097   -0.517608   -0.028663
      2          6           0        1.594256    0.583323    0.492936
      3          6           0        0.416154    1.044143   -0.352167
      4          8           0       -0.458193   -0.475746   -0.609652
      5          6           0       -1.503702   -0.608237    0.415250
      6          6           0       -2.643767    0.317347    0.047592
      7          1           0        3.395223   -0.694023    0.657518
      8          1           0        2.051096   -1.498143   -0.140674
      9          1           0        2.958233   -0.245403   -1.013390
     10          1           0        1.272315    0.325306    1.519105
     11          1           0        2.177564    1.515251    0.613036
     12          1           0        0.772824    1.081830   -1.404488
     13          1           0        0.178306   -1.214533   -0.491479
     14          1           0       -1.806837   -1.665688    0.414025
     15          1           0       -1.067006   -0.347737    1.387669
     16          1           0       -3.428293    0.256629    0.814803
     17          1           0       -2.252286    1.339703   -0.006092
     18          1           0       -3.075822    0.038967   -0.922499
 ---------------------------------------------------------------------

 SCF Done:  E(RHF) =  -271.366013853     A.U. after    2 cycles

 The electronic state is 1-A.
 Alpha  occ. eigenvalues --  -20.61071 -11.30900 -11.23130 -11.22865 -11.22506
 Alpha  occ. eigenvalues --  -11.22375  -1.49610  -1.04272  -1.02586  -0.89692
 Alpha  occ. eigenvalues --   -0.85528  -0.76859  -0.72916  -0.67318  -0.60673
 Alpha  occ. eigenvalues --   -0.60418  -0.56825  -0.55617  -0.54073  -0.53292
 Alpha  occ. eigenvalues --   -0.51804  -0.49974  -0.47592  -0.45774  -0.30690
 Alpha virt. eigenvalues --    0.02743   0.03807   0.03896   0.04671   0.05843
 Alpha virt. eigenvalues --    0.05909   0.06440   0.07233   0.08278   0.09011
 Alpha virt. eigenvalues --    0.09284   0.09883   0.11652   0.13587   0.14217

 Mulliken charges:
               1
     1  C   -0.383894
     2  C   -0.395906
     3  C   -0.156518
     4  O   -1.183897
     5  C    0.513787
     6  C   -0.461919
     7  H    0.125529
     8  H    0.102529
     9  H    0.171229
    10  H    0.163774
    11  H    0.244911
    12  H    0.002979
    13  H    0.477122
    14  H    0.007944
    15  H    0.188921
    16  H    0.174521
    17  H    0.232124
    18  H    0.176763
 Sum of Mulliken charges =  -0.00000

 Dipole moment (field-independent basis, Debye):
    X=             -0.2206    Y=             -3.3538    Z=              0.7424  Tot=              3.4421

 Test job not archived.
 1\1\GINC-SE162\SP\RHF\Aug-CC-pVDZ\C5H12O1\OHZDE\09-Apr-2025\0\\#t hf a
 ug-cc-pvdz iop(5/13=1,5/36=2,99/5=2) pseudo=read geom=check guess=(rea
 d,tcheck) scf=(maxcycle=1)\\title\\0,1\C,0,-2.51435217,-0.33432265,0.1
 3469757\C,0,-1.47805383,0.41067366,-0.74430198\C,0,-0.32699451,1.17072
 252,-0.10253521\O,0,0.45843796,-0.10181401,0.84856602\C,0,1.55062025,-
 0.68774622,0.05806745\C,0,2.71191748,0.28330422,0.06676396\H,0,-3.3263
 7116,-0.77568151,-0.4641806\H,0,-2.06760489,-1.17762865,0.69527712\H,0
 ,-2.95997805,0.34746757,0.87314678\H,0,-1.11346925,-0.27477203,-1.5320

 Normal termination of Gaussian 16 at Wed Apr  9 15:50:11 2025.
