 Gaussian 16, Revision C.01,

 ----------------------------------------------------------------------
 #t hf aug-cc-pvdz symm=none int=(grid=ultrafine) guess=(read,tcheck) s
 table=(opt,rrhf)
 ----------------------------------------------------------------------
 -----
 title
 -----
 Symbolic Z-matrix:
 Charge =  0 Multiplicity = 1

 SCF Done:  E(RHF) =  -299.579151842     A.U. after   20 cycles
 Normal termination of Gaussian 16 at Wed Apr  9 16:17:41 2025.
 Gaussian 16:  ES64L-G16RevC.01  3-Jul-2019

 ----------------------------------------------------------------------
 #t hf aug-cc-pvdz iop(5/13=1,5/36=2,99/5=2) pseudo=read geom=check gue
 ss=(read,tcheck) scf=(maxcycle=1)
 ----------------------------------------------------------------------
 -----
 title
 -----
 Structure from the checkpoint file:  "Grambow2020_b97d3_007181_forward_mol1.chk"
 Charge =  0 Multiplicity = 1

                         Standard orientation:
 ---------------------------------------------------------------------
 Center     Atomic      Atomic             Coordinates (Angstroms)
 Number     Number       Type             X           Y           Z
 ---------------------------------------------------------------------
      1          6           0        2.243068   -0.274454    0.249108
      2          6           0        0.862526    0.191221   -0.076304
      3          7           0        0.311745    1.294933   -0.242512
      4          8           0       -2.105642    0.392418    0.300237
      5          6           0       -1.437460   -0.599539    0.001293
      6          7           0       -0.167703   -0.753012   -0.393729
      7          1           0        2.917100    0.572276    0.415132
      8          1           0        2.196851   -0.900353    1.150474
      9          1           0        2.611758   -0.890839   -0.581019
     10          1           0       -1.897665   -1.617247    0.022623
 ---------------------------------------------------------------------

 SCF Done:  E(RHF) =  -299.868423601     A.U. after    2 cycles

 The electronic state is 1-A.
 Alpha  occ. eigenvalues --  -20.51449 -15.64423 -15.53916 -11.39191 -11.35507
 Alpha  occ. eigenvalues --  -11.30753  -1.44427  -1.33971  -1.17712  -1.06219
 Alpha  occ. eigenvalues --   -0.89154  -0.75393  -0.70061  -0.67988  -0.66910
 Alpha  occ. eigenvalues --   -0.64209  -0.61703  -0.60025  -0.53766  -0.49128
 Alpha  occ. eigenvalues --   -0.42232  -0.41758
 Alpha virt. eigenvalues --   -0.04902   0.02583   0.04244   0.04458   0.05159
 Alpha virt. eigenvalues --    0.07382   0.08973   0.10264   0.10797   0.11766
 Alpha virt. eigenvalues --    0.12448   0.13575   0.14420   0.14893   0.15624

 Mulliken charges:
               1
     1  C   -0.127110
     2  C   -1.632005
     3  N    0.987346
     4  O   -1.056753
     5  C    0.442522
     6  N    0.405729
     7  H    0.234483
     8  H    0.280646
     9  H    0.292452
    10  H    0.172690
 Sum of Mulliken charges =  -0.00000

 Dipole moment (field-independent basis, Debye):
    X=              5.6728    Y=             -1.7362    Z=              0.7174  Tot=              5.9758

 Test job not archived.
 1\1\GINC-SE232\SP\RHF\Aug-CC-pVDZ\C3H4N2O1\OHZDE\09-Apr-2025\0\\#t hf
 aug-cc-pvdz iop(5/13=1,5/36=2,99/5=2) pseudo=read geom=check guess=(re
 ad,tcheck) scf=(maxcycle=1)\\title\\0,1\C,0,-1.70172598,0.10172246,0.0
 9496578\C,0,-0.33017977,-0.17587336,-0.42507524\N,0,0.15891695,-0.9269
 3427,-1.28870559\O,0,2.56582814,-0.92417445,-0.21183797\C,0,1.99873468
 ,0.07562191,0.23383696\N,0,0.78754927,0.60349072,0.0187481\H,0,-2.4442
 6926,-0.54576507,-0.38276339\H,0,-1.70304962,-0.0625332,1.1809514\H,0,
 -1.94411236,1.15527487,-0.09542617\H,0,2.52192396,0.7446874,0.95950813

 Normal termination of Gaussian 16 at Wed Apr  9 16:17:44 2025.
