 Gaussian 16, Revision C.01,

 ----------------------------------------------------------------------
 #t hf aug-cc-pvdz symm=none int=(grid=ultrafine) guess=(read,tcheck) s
 table=(opt,rrhf)
 ----------------------------------------------------------------------
 -----
 title
 -----
 Symbolic Z-matrix:
 Charge =  0 Multiplicity = 1

 SCF Done:  E(RHF) =  -245.802647154     A.U. after   13 cycles
 Normal termination of Gaussian 16 at Wed Apr  9 16:28:43 2025.
 Gaussian 16:  ES64L-G16RevC.01  3-Jul-2019

 ----------------------------------------------------------------------
 #t hf aug-cc-pvdz iop(5/13=1,5/36=2,99/5=2) pseudo=read geom=check gue
 ss=(read,tcheck) scf=(maxcycle=1)
 ----------------------------------------------------------------------
 -----
 title
 -----
 Structure from the checkpoint file:  "Grambow2020_wb97xd3_006107_reverse_mol2.chk"
 Charge =  0 Multiplicity = 1

                         Standard orientation:
 ---------------------------------------------------------------------
 Center     Atomic      Atomic             Coordinates (Angstroms)
 Number     Number       Type             X           Y           Z
 ---------------------------------------------------------------------
      1          6           0       -1.015528    0.599063    0.000335
      2          6           0        0.418758    1.121057   -0.000480
      3          7           0        1.139668   -0.150200   -0.000005
      4          6           0        0.390384   -1.246080    0.000263
      5          8           0       -0.879080   -0.846379   -0.000459
      6          1           0       -1.576377    0.883473    0.889633
      7          1           0       -1.579867    0.883678   -0.886688
      8          1           0        0.654485    1.711573   -0.887260
      9          1           0        0.654453    1.711154    0.886657
     10          1           0        2.140589   -0.211684    0.000660
 ---------------------------------------------------------------------

 SCF Done:  E(RHF) =  -246.052262870     A.U. after    2 cycles

 The electronic state is 1-A.
 Alpha  occ. eigenvalues --  -20.57613 -15.53072 -11.30401 -11.29452 -11.29068
 Alpha  occ. eigenvalues --   -1.51669  -1.24480  -1.04857  -0.88522  -0.85641
 Alpha  occ. eigenvalues --   -0.73345  -0.70666  -0.64764  -0.59531  -0.59155
 Alpha  occ. eigenvalues --   -0.54508  -0.52630  -0.42828  -0.37507
 Alpha virt. eigenvalues --    0.02893   0.04236   0.04254   0.05192   0.06410
 Alpha virt. eigenvalues --    0.08971   0.10250   0.11103   0.11677   0.13726
 Alpha virt. eigenvalues --    0.14750   0.15136   0.15732   0.16253   0.18380

 Mulliken charges:
               1
     1  C    0.626179
     2  C   -0.468941
     3  N    0.558991
     4  C   -0.013268
     5  O   -1.094155
     6  H    0.103187
     7  H    0.102675
     8  H    0.065016
     9  H    0.065818
    10  H    0.054497
 Sum of Mulliken charges =  -0.00000

 Dipole moment (field-independent basis, Debye):
    X=              0.6433    Y=              4.5289    Z=              0.0012  Tot=              4.5743

 Test job not archived.
 1\1\GINC-SE129\SP\RHF\Aug-CC-pVDZ\C3H5N1O1\OHZDE\09-Apr-2025\0\\#t hf
 aug-cc-pvdz iop(5/13=1,5/36=2,99/5=2) pseudo=read geom=check guess=(re
 ad,tcheck) scf=(maxcycle=1)\\title\\0,1\C,0,-0.73354075,-0.7610249,-0.
 01267917\C,0,-0.31501914,0.69333652,0.18562957\N,0,1.11523753,0.574008
 92,-0.08992998\C,0,1.55127908,-0.64206724,-0.39555176\O,0,0.49525696,-
 1.45134738,-0.36115172\H,0,-1.13311027,-1.22069033,0.89028462\H,0,-1.4
 4027267,-0.90014748,-0.82966725\H,0,-0.7998847,1.37351403,-0.51645153\
 H,0,-0.49501287,1.05043,1.2009448\H,0,1.74613684,1.35269586,-0.0547535

 Normal termination of Gaussian 16 at Wed Apr  9 16:28:46 2025.
