 Gaussian 16, Revision C.01,

 ----------------------------------------------------------------------
 #t hf aug-cc-pvdz symm=none int=(grid=ultrafine) guess=(read,tcheck) s
 table=(opt,rrhf)
 ----------------------------------------------------------------------
 -----
 title
 -----
 Symbolic Z-matrix:
 Charge =  0 Multiplicity = 1

 SCF Done:  E(RHF) =  -342.547312092     A.U. after   14 cycles
 Normal termination of Gaussian 16 at Wed Apr  9 19:17:52 2025.
 Gaussian 16:  ES64L-G16RevC.01  3-Jul-2019

 ----------------------------------------------------------------------
 #t hf aug-cc-pvdz iop(5/13=1,5/36=2,99/5=2) pseudo=read geom=check gue
 ss=(read,tcheck) scf=(maxcycle=1)
 ----------------------------------------------------------------------
 -----
 title
 -----
 Structure from the checkpoint file:  "Grambow2020_wb97xd3_009066_reverse_mol2.chk"
 Charge =  0 Multiplicity = 1

                         Standard orientation:
 ---------------------------------------------------------------------
 Center     Atomic      Atomic             Coordinates (Angstroms)
 Number     Number       Type             X           Y           Z
 ---------------------------------------------------------------------
      1          8           0        0.412700    1.480159   -1.224691
      2          6           0        0.239102    1.589312   -0.086934
      3          6           0       -2.207033   -1.182370    0.561784
      4          6           0       -2.223475   -0.758770   -0.691042
      5          6           0        1.557709   -1.577040    0.009749
      6          8           0        2.635961   -1.271283    0.082640
      7          6           0        0.054252    1.710762    1.201381
      8          1           0       -3.019436   -0.965706    1.246750
      9          1           0       -1.379462   -1.766073    0.948752
     10          1           0       -3.048065   -0.175445   -1.084988
     11          1           0       -1.411847   -0.980229   -1.374672
     12          1           0        0.704023    2.356456    1.770919
     13          1           0       -0.757824    1.168621    1.660021
 ---------------------------------------------------------------------

 SCF Done:  E(RHF) =  -342.881545175     A.U. after    2 cycles

 The electronic state is 1-A.
 Alpha  occ. eigenvalues --  -20.65289 -20.61604 -11.39150 -11.36996 -11.24565
 Alpha  occ. eigenvalues --  -11.24300 -11.24156  -1.60701  -1.56044  -1.05903
 Alpha  occ. eigenvalues --   -1.04300  -0.80786  -0.79735  -0.76433  -0.68543
 Alpha  occ. eigenvalues --   -0.66371  -0.65538  -0.64713  -0.63642  -0.63286
 Alpha  occ. eigenvalues --   -0.60562  -0.56224  -0.55518  -0.51391  -0.39148
 Alpha  occ. eigenvalues --   -0.36744
 Alpha virt. eigenvalues --    0.03621   0.04329   0.04523   0.05264   0.06857
 Alpha virt. eigenvalues --    0.06974   0.08191   0.09275   0.09971   0.10936
 Alpha virt. eigenvalues --    0.11867   0.12803   0.13213   0.13908   0.14319

 Mulliken charges:
               1
     1  O   -0.874281
     2  C    0.677117
     3  C    0.073672
     4  C    0.116556
     5  C    0.517392
     6  O   -0.535112
     7  C    0.180360
     8  H   -0.067242
     9  H   -0.042652
    10  H   -0.051724
    11  H   -0.055278
    12  H   -0.002055
    13  H    0.063246
 Sum of Mulliken charges =  -0.00000

 Dipole moment (field-independent basis, Debye):
    X=             -0.3239    Y=              0.1055    Z=              1.4208  Tot=              1.4611

 Test job not archived.
 1\1\GINC-SE016\SP\RHF\Aug-CC-pVDZ\C5H6O2\OHZDE\09-Apr-2025\0\\#t hf au
 g-cc-pvdz iop(5/13=1,5/36=2,99/5=2) pseudo=read geom=check guess=(read
 ,tcheck) scf=(maxcycle=1)\\title\\0,1\O,0,1.34103687,-0.36098818,1.888
 64758\C,0,1.54891879,-0.68546524,0.79867414\C,0,-1.79473118,-0.0999568
 1,-0.80251867\C,0,-1.87201193,-0.29460684,0.50339782\C,0,0.77543939,2.
 5845269,0.10387958\O,0,1.80980872,2.9995645,0.24262878\C,0,1.79220367,
 -1.04400578,-0.43458834\H,0,-2.13419519,-0.84786558,-1.51069743\H,0,-1
 .39093936,0.81876511,-1.21267691\H,0,-2.27541766,-1.21038879,0.9205512

 Normal termination of Gaussian 16 at Wed Apr  9 19:17:56 2025.
