 Gaussian 16, Revision C.01,

 ----------------------------------------------------------------------
 #t hf aug-cc-pvdz symm=none int=(grid=ultrafine) guess=(read,tcheck) s
 table=(opt,rrhf)
 ----------------------------------------------------------------------
 -----
 title
 -----
 Symbolic Z-matrix:
 Charge =  0 Multiplicity = 1

 SCF Done:  E(RHF) =  -321.405653258     A.U. after   15 cycles
 Normal termination of Gaussian 16 at Wed Apr  9 03:51:23 2025.
 Gaussian 16:  ES64L-G16RevC.01  3-Jul-2019

 ----------------------------------------------------------------------
 #t hf aug-cc-pvdz iop(5/13=1,5/36=2,99/5=2) pseudo=read geom=check gue
 ss=(read,tcheck) scf=(maxcycle=1)
 ----------------------------------------------------------------------
 -----
 title
 -----
 Structure from the checkpoint file:  "Grambow2020_wb97xd3_008184_forward_mol1.chk"
 Charge =  0 Multiplicity = 1

                         Standard orientation:
 ---------------------------------------------------------------------
 Center     Atomic      Atomic             Coordinates (Angstroms)
 Number     Number       Type             X           Y           Z
 ---------------------------------------------------------------------
      1          8           0        0.014649    2.143789   -0.503185
      2          6           0       -0.088579    1.169093    0.753683
      3          6           0       -0.056618   -0.110444    0.027838
      4          6           0        1.183539   -0.824618   -0.009881
      5          6           0        2.248369   -1.377641   -0.061548
      6          6           0       -1.277558   -0.847547   -0.047173
      7          7           0       -2.283142   -1.403314   -0.126318
      8          1           0        0.895002    2.541219   -0.568561
      9          1           0        0.769181    1.403103    1.378064
     10          1           0       -1.034156    1.447343    1.205453
     11          1           0       -0.000900    1.116801   -0.983309
     12          1           0        3.180758   -1.888632   -0.099457
 ---------------------------------------------------------------------

 SCF Done:  E(RHF) =  -321.729505830     A.U. after    2 cycles

 The electronic state is 1-A.
 Alpha  occ. eigenvalues --  -20.66727 -15.48516 -11.36737 -11.26690 -11.26543
 Alpha  occ. eigenvalues --  -11.25399 -11.23423  -1.55884  -1.21409  -1.11750
 Alpha  occ. eigenvalues --   -1.02310  -0.92755  -0.82767  -0.78372  -0.73025
 Alpha  occ. eigenvalues --   -0.68818  -0.65726  -0.62529  -0.60009  -0.57938
 Alpha  occ. eigenvalues --   -0.53338  -0.48330  -0.45154  -0.41161  -0.32809
 Alpha virt. eigenvalues --    0.01342   0.03267   0.03613   0.04596   0.06227
 Alpha virt. eigenvalues --    0.09051   0.09619   0.09896   0.10583   0.11683
 Alpha virt. eigenvalues --    0.12179   0.13358   0.14262   0.14609   0.15253

 Mulliken charges:
               1
     1  O   -1.077166
     2  C    0.521907
     3  C    0.025416
     4  C    0.702874
     5  C    0.018121
     6  C   -2.157652
     7  N    0.988833
     8  H    0.417469
     9  H    0.025839
    10  H    0.005396
    11  H    0.940487
    12  H   -0.411523
 Sum of Mulliken charges =  -0.00000

 Dipole moment (field-independent basis, Debye):
    X=              5.1404    Y=              6.3223    Z=              0.8668  Tot=              8.1943

 Test job not archived.
 1\1\GINC-SE249\SP\RHF\Aug-CC-pVDZ\C5H5N1O1\OHZDE\09-Apr-2025\0\\#t hf
 aug-cc-pvdz iop(5/13=1,5/36=2,99/5=2) pseudo=read geom=check guess=(re
 ad,tcheck) scf=(maxcycle=1)\\title\\0,1\O,0,-1.61155586,-0.65713742,-0
 .9325124\C,0,-0.88274268,-0.62007614,0.48447892\C,0,0.46197756,-0.2480
 8944,0.01710325\C,0,0.85702707,1.12190962,0.14553358\C,0,1.14223493,2.
 28580186,0.22540143\C,0,1.46828244,-1.26077021,0.05544518\N,0,2.251215
 47,-2.10536133,0.06018934\H,0,-2.18765561,0.11170756,-1.05181061\H,0,-
 1.4216159,0.11745373,1.07272187\H,0,-1.0058556,-1.63252239,0.85248721\

 Normal termination of Gaussian 16 at Wed Apr  9 03:51:28 2025.
