 Gaussian 16, Revision C.01,

 ----------------------------------------------------------------------
 #t hf aug-cc-pvdz symm=none int=(grid=ultrafine) guess=(read,tcheck) s
 table=(opt,rrhf)
 ----------------------------------------------------------------------
 -----
 title
 -----
 Symbolic Z-matrix:
 Charge =  0 Multiplicity = 1

 SCF Done:  E(RHF) =  -305.702408167     A.U. after   16 cycles
 Normal termination of Gaussian 16 at Wed Apr  9 03:16:02 2025.
 Gaussian 16:  ES64L-G16RevC.01  3-Jul-2019

 ----------------------------------------------------------------------
 #t hf aug-cc-pvdz iop(5/13=1,5/36=2,99/5=2) pseudo=read geom=check gue
 ss=(read,tcheck) scf=(maxcycle=1)
 ----------------------------------------------------------------------
 -----
 title
 -----
 Structure from the checkpoint file:  "Grambow2020_b97d3_006974_forward_mol1.chk"
 Charge =  0 Multiplicity = 1

                         Standard orientation:
 ---------------------------------------------------------------------
 Center     Atomic      Atomic             Coordinates (Angstroms)
 Number     Number       Type             X           Y           Z
 ---------------------------------------------------------------------
      1          8           0       -1.573617   -1.207125    0.226912
      2          6           0       -1.738896    0.130366   -0.221842
      3          6           0       -0.652560    1.093614    0.314352
      4          6           0        0.687006    0.872545   -0.290752
      5          6           0        2.272582   -0.466982    0.316130
      6          8           0        1.123330   -0.420711   -0.443287
      7          1           0       -0.683247   -1.483940   -0.060396
      8          1           0       -1.763501    0.200515   -1.325113
      9          1           0       -2.716665    0.456191    0.157089
     10          1           0       -0.945097    2.139476    0.130796
     11          1           0       -0.616079    0.965427    1.415775
     12          1           0        1.461542    1.638988   -0.346134
     13          1           0        2.270123    0.069324    1.261881
     14          1           0        3.186426   -0.740552   -0.210222
 ---------------------------------------------------------------------

 SCF Done:  E(RHF) =  -306.015884768     A.U. after    2 cycles

 The electronic state is 1-A.
 Alpha  occ. eigenvalues --  -20.63838 -20.54398 -11.33397 -11.30146 -11.29606
 Alpha  occ. eigenvalues --  -11.26132  -1.54558  -1.44119  -1.06956  -0.93556
 Alpha  occ. eigenvalues --   -0.89385  -0.82356  -0.71709  -0.69743  -0.66583
 Alpha  occ. eigenvalues --   -0.65188  -0.62201  -0.58888  -0.57022  -0.56251
 Alpha  occ. eigenvalues --   -0.50911  -0.47204  -0.43926  -0.26666
 Alpha virt. eigenvalues --    0.02368   0.03633   0.03907   0.04489   0.04890
 Alpha virt. eigenvalues --    0.06055   0.07177   0.07253   0.08238   0.11172
 Alpha virt. eigenvalues --    0.12351   0.13666   0.13898   0.14551   0.15231

 Mulliken charges:
               1
     1  O   -1.170354
     2  C    0.640393
     3  C   -0.581285
     4  C    0.821359
     5  C    0.174339
     6  O   -1.188028
     7  H    0.435028
     8  H    0.172489
     9  H    0.065748
    10  H    0.207781
    11  H    0.257787
    12  H    0.090328
    13  H    0.059533
    14  H    0.014882
 Sum of Mulliken charges =  -0.00000

 Dipole moment (field-independent basis, Debye):
    X=              0.8208    Y=              2.6369    Z=             -0.3171  Tot=              2.7798

 Test job not archived.
 1\1\GINC-SE396\SP\RHF\Aug-CC-pVDZ\C4H8O2\OHZDE\09-Apr-2025\0\\#t hf au
 g-cc-pvdz iop(5/13=1,5/36=2,99/5=2) pseudo=read geom=check guess=(read
 ,tcheck) scf=(maxcycle=1)\\title\\0,1\O,0,1.69324554,1.08226776,0.7150
 2846\C,0,1.78076233,-0.13429737,-0.01290463\C,0,0.49962371,-0.99741805
 ,0.08291739\C,0,-0.65396939,-0.43146079,-0.66432799\C,0,-2.15352203,0.
 9879871,-0.02152257\O,0,-0.88961723,0.91802292,-0.56675989\H,0,0.91927
 105,1.55843327,0.35983812\H,0,2.01762949,0.03372876,-1.0798609\H,0,2.6
 1531248,-0.69198299,0.43239969\H,0,0.69318206,-2.01211126,-0.29921958\

 Normal termination of Gaussian 16 at Wed Apr  9 03:16:06 2025.
