 Gaussian 16, Revision C.01,

 ----------------------------------------------------------------------
 #t hf aug-cc-pvdz symm=none int=(grid=ultrafine) guess=(read,tcheck) s
 table=(opt,rrhf)
 ----------------------------------------------------------------------
 -----
 title
 -----
 Symbolic Z-matrix:
 Charge =  0 Multiplicity = 1

 SCF Done:  E(RHF) =  -353.436916310     A.U. after   18 cycles
 Normal termination of Gaussian 16 at Wed Apr  9 18:39:14 2025.
 Gaussian 16:  ES64L-G16RevC.01  3-Jul-2019

 ----------------------------------------------------------------------
 #t hf aug-cc-pvdz iop(5/13=1,5/36=2,99/5=2) pseudo=read geom=check gue
 ss=(read,tcheck) scf=(maxcycle=1)
 ----------------------------------------------------------------------
 -----
 title
 -----
 Structure from the checkpoint file:  "Grambow2020_wb97xd3_007940_reverse_mol2.chk"
 Charge =  0 Multiplicity = 1

                         Standard orientation:
 ---------------------------------------------------------------------
 Center     Atomic      Atomic             Coordinates (Angstroms)
 Number     Number       Type             X           Y           Z
 ---------------------------------------------------------------------
      1          8           0        2.190682   -0.198725   -0.245432
      2          6           0        0.893019   -0.148302    0.069983
      3          6           0        0.085362   -1.241040    0.172786
      4          7           0       -1.198980   -1.179768    0.160764
      5          7           0       -1.752955    0.011876   -0.336868
      6          6           0       -1.055664    1.057774   -0.104382
      7          7           0        0.270614    1.030281    0.323665
      8          1           0        2.525222    0.679612   -0.448284
      9          1           0        0.673480    1.824532    0.798805
     10          1           0       -1.491215    2.038336   -0.250317
 ---------------------------------------------------------------------

 SCF Done:  E(RHF) =  -353.783911175     A.U. after    2 cycles

 The electronic state is 1-A.
 Alpha  occ. eigenvalues --  -20.63777 -15.60752 -15.54726 -15.54090 -11.40120
 Alpha  occ. eigenvalues --  -11.34709 -11.24183  -1.56300  -1.37368  -1.27760
 Alpha  occ. eigenvalues --   -1.15214  -1.00088  -0.93986  -0.85244  -0.81407
 Alpha  occ. eigenvalues --   -0.77094  -0.70758  -0.68230  -0.63233  -0.59992
 Alpha  occ. eigenvalues --   -0.56705  -0.52862  -0.47315  -0.41613  -0.33472
 Alpha virt. eigenvalues --    0.00760   0.02384   0.03633   0.04178   0.07596
 Alpha virt. eigenvalues --    0.08463   0.09222   0.09827   0.11108   0.11700
 Alpha virt. eigenvalues --    0.12225   0.13118   0.14395   0.14901   0.15866

 Mulliken charges:
               1
     1  O   -1.207572
     2  C    0.879117
     3  C   -0.878525
     4  N    0.467120
     5  N    0.145150
     6  C   -0.357301
     7  N    0.565081
     8  H    0.282348
     9  H    0.115660
    10  H   -0.011077
 Sum of Mulliken charges =  -0.00000

 Dipole moment (field-independent basis, Debye):
    X=              4.4867    Y=              7.5641    Z=              0.1086  Tot=              8.7953

 Test job not archived.
 1\1\GINC-SE028\SP\RHF\Aug-CC-pVDZ\C3H3N3O1\OHZDE\09-Apr-2025\0\\#t hf
 aug-cc-pvdz iop(5/13=1,5/36=2,99/5=2) pseudo=read geom=check guess=(re
 ad,tcheck) scf=(maxcycle=1)\\title\\0,1\O,0,2.08517483,0.032383,0.6127
 3481\C,0,0.84201805,0.35371073,0.24223633\C,0,0.19660764,1.49074883,0.
 6263512\N,0,-1.07638802,1.64990418,0.53926042\N,0,-1.8333509,0.4764435
 2,0.38260697\C,0,-1.24810945,-0.44695919,-0.27995458\N,0,0.11478647,-0
 .45152899,-0.57233432\H,0,2.27905602,-0.88336884,0.39285147\H,0,0.4725
 1441,-0.99405309,-1.34472748\H,0,-1.81753806,-1.29490915,-0.63944881\\

 Normal termination of Gaussian 16 at Wed Apr  9 18:39:17 2025.
