 Gaussian 16, Revision C.01,

 ----------------------------------------------------------------------
 #t hf aug-cc-pvdz symm=none int=(grid=ultrafine) guess=(read,tcheck) s
 table=(opt,rrhf)
 ----------------------------------------------------------------------
 -----
 title
 -----
 Symbolic Z-matrix:
 Charge =  0 Multiplicity = 1

 SCF Done:  E(RHF) =  -323.886241108     A.U. after   13 cycles
 Normal termination of Gaussian 16 at Wed Apr  9 18:28:29 2025.
 Gaussian 16:  ES64L-G16RevC.01  3-Jul-2019

 ----------------------------------------------------------------------
 #t hf aug-cc-pvdz iop(5/13=1,5/36=2,99/5=2) pseudo=read geom=check gue
 ss=(read,tcheck) scf=(maxcycle=1)
 ----------------------------------------------------------------------
 -----
 title
 -----
 Structure from the checkpoint file:  "Grambow2020_wb97xd3_007601_forward_mol2.chk"
 Charge =  0 Multiplicity = 1

                         Standard orientation:
 ---------------------------------------------------------------------
 Center     Atomic      Atomic             Coordinates (Angstroms)
 Number     Number       Type             X           Y           Z
 ---------------------------------------------------------------------
      1          6           0        1.401413    1.461180    0.437103
      2          6           0        1.329391    0.273890   -0.481118
      3          7           0        1.657363   -1.039133    0.072968
      4          6           0        0.295994   -0.779182   -0.390506
      5          6           0       -0.783083   -0.787369    0.654632
      6          6           0       -1.987456    0.037965    0.299280
      7          8           0       -2.116924    0.660727   -0.719087
      8          1           0        1.106419    1.198024    1.452536
      9          1           0        2.422193    1.845367    0.483373
     10          1           0        0.750173    2.261171    0.078838
     11          1           0        1.678248    0.473342   -1.490840
     12          1           0        2.170010   -1.605265   -0.590146
     13          1           0       -0.002723   -1.219265   -1.337148
     14          1           0       -0.403967   -0.436298    1.618874
     15          1           0       -1.130777   -1.809897    0.846338
     16          1           0       -2.793283    0.042025    1.063742
 ---------------------------------------------------------------------

 SCF Done:  E(RHF) =  -324.227798657     A.U. after    2 cycles

 The electronic state is 1-A.
 Alpha  occ. eigenvalues --  -20.54842 -15.49843 -11.34359 -11.26773 -11.26532
 Alpha  occ. eigenvalues --  -11.25169 -11.22685  -1.48315  -1.27317  -1.04873
 Alpha  occ. eigenvalues --   -0.99773  -0.88676  -0.82578  -0.75997  -0.74567
 Alpha  occ. eigenvalues --   -0.68537  -0.64050  -0.62303  -0.60430  -0.57627
 Alpha  occ. eigenvalues --   -0.56737  -0.51769  -0.50887  -0.49490  -0.47852
 Alpha  occ. eigenvalues --   -0.41948  -0.41578
 Alpha virt. eigenvalues --    0.03429   0.03516   0.04299   0.04999   0.05419
 Alpha virt. eigenvalues --    0.05579   0.06489   0.06843   0.09684   0.10807
 Alpha virt. eigenvalues --    0.11634   0.12359   0.13677   0.13758   0.14324

 Mulliken charges:
               1
     1  C   -0.399622
     2  C   -0.354908
     3  N    0.423750
     4  C    0.063984
     5  C   -0.681630
     6  C    1.117330
     7  O   -1.151605
     8  H    0.191895
     9  H    0.167046
    10  H    0.254252
    11  H   -0.197364
    12  H    0.210197
    13  H   -0.244243
    14  H    0.246843
    15  H    0.255136
    16  H    0.098940
 Sum of Mulliken charges =  -0.00000

 Dipole moment (field-independent basis, Debye):
    X=              0.2649    Y=             -1.0239    Z=              0.4995  Tot=              1.1696

 Test job not archived.
 1\1\GINC-SE174\SP\RHF\Aug-CC-pVDZ\C5H9N1O1\OHZDE\09-Apr-2025\0\\#t hf
 aug-cc-pvdz iop(5/13=1,5/36=2,99/5=2) pseudo=read geom=check guess=(re
 ad,tcheck) scf=(maxcycle=1)\\title\\0,1\C,0,-1.39561126,-0.12015714,1.
 24546093\C,0,-1.25810635,0.06676316,-0.23916924\N,0,-0.86793596,1.3886
 4366,-0.72805046\C,0,0.03385693,0.25685197,-0.93183024\C,0,1.35313061,
 0.31092792,-0.21532557\C,0,1.96103636,-1.03679256,0.05312613\O,0,1.470
 76184,-2.08639438,-0.26252114\H,0,-0.66958935,0.48140655,1.79171073\H,
 0,-2.38917998,0.1869502,1.57748295\H,0,-1.2540603,-1.16934859,1.513069

 Normal termination of Gaussian 16 at Wed Apr  9 18:28:35 2025.
