 Gaussian 16, Revision C.01,

 ----------------------------------------------------------------------
 #t hf aug-cc-pvdz symm=none int=(grid=ultrafine) guess=(read,tcheck) s
 table=(opt,rrhf)
 ----------------------------------------------------------------------
 -----
 title
 -----
 Symbolic Z-matrix:
 Charge =  0 Multiplicity = 1

 SCF Done:  E(RHF) =  -344.725496489     A.U. after   15 cycles

 1\1\GINC-SE104\Stability\RHF\Aug-CC-pVDZ\C5H10O2\OHZDE\09-Apr-2025\0\\
 #t hf aug-cc-pvdz symm=none int=(grid=ultrafine) guess=(read,tcheck) s
 table=(opt,rrhf)\\title\\0,1\C,0,-1.14419513,-1.34832839,0.39287971\C,
 0,-0.54128969,-0.12973494,-0.25583135\C,0,0.83934701,-0.29080527,-0.81
 114944\C,0,2.02559924,0.21486529,0.97909503\O,0,2.05223548,1.54354651,
 0.85211301\C,0,-1.43341366,0.90159044,-0.79623001\O,0,-0.77857701,1.09
 854649,0.45004554\H,0,-1.30253489,-2.1329011,-0.34966089\H,0,-0.481776
 71,-1.74323887,1.16561946\H,0,-2.10135621,-1.10300485,0.85199299\H,0,1

 Normal termination of Gaussian 16 at Wed Apr  9 18:27:37 2025.
 Gaussian 16:  ES64L-G16RevC.01  3-Jul-2019

 ----------------------------------------------------------------------
 #t hf aug-cc-pvdz iop(5/13=1,5/36=2,99/5=2) pseudo=read geom=check gue
 ss=(read,tcheck) scf=(maxcycle=1)
 ----------------------------------------------------------------------
 -----
 title
 -----
 Structure from the checkpoint file:  "Grambow2020_wb97xd3_007586_forward_mol1.chk"
 Charge =  0 Multiplicity = 1

                         Standard orientation:
 ---------------------------------------------------------------------
 Center     Atomic      Atomic             Coordinates (Angstroms)
 Number     Number       Type             X           Y           Z
 ---------------------------------------------------------------------
      1          6           0       -1.615530    1.184399   -0.571792
      2          6           0       -0.844765    0.126955    0.174548
      3          6           0        0.208589    0.618205    1.117732
      4          6           0        1.925187    0.733735   -0.263505
      5          8           0        2.347234   -0.530631   -0.189464
      6          6           0       -1.463090   -1.186367    0.385284
      7          8           0       -0.473643   -1.010572   -0.620150
      8          1           0       -2.211369    1.779444    0.123110
      9          1           0       -0.937257    1.858624   -1.098333
     10          1           0       -2.282687    0.727412   -1.301992
     11          1           0        0.581256   -0.159061    1.783036
     12          1           0       -0.145590    1.479793    1.687790
     13          1           0        1.381593    1.178300    0.755494
     14          1           0        1.236486    0.896365   -1.102281
     15          1           0        1.750564   -1.122937   -0.667299
     16          1           0       -2.466037   -1.375606    0.011454
     17          1           0       -1.158034   -1.794271    1.232334
 ---------------------------------------------------------------------

 SCF Done:  E(RHF) =  -345.083885566     A.U. after    2 cycles

 The electronic state is 1-A.
 Alpha  occ. eigenvalues --  -20.57062 -20.56785 -11.31419 -11.30030 -11.29632
 Alpha  occ. eigenvalues --  -11.25734 -11.24380  -1.51009  -1.48800  -1.06665
 Alpha  occ. eigenvalues --   -0.97503  -0.93372  -0.87258  -0.79628  -0.72303
 Alpha  occ. eigenvalues --   -0.70324  -0.67336  -0.63228  -0.61344  -0.59300
 Alpha  occ. eigenvalues --   -0.57065  -0.55671  -0.53250  -0.53147  -0.48120
 Alpha  occ. eigenvalues --   -0.45910  -0.45049  -0.31083
 Alpha virt. eigenvalues --    0.03049   0.03621   0.03793   0.04866   0.05936
 Alpha virt. eigenvalues --    0.06381   0.06552   0.07415   0.07887   0.09460
 Alpha virt. eigenvalues --    0.11019   0.12174   0.12652   0.13917   0.14235

 Mulliken charges:
               1
     1  C   -0.415417
     2  C    1.114072
     3  C   -0.585048
     4  C    0.251383
     5  O   -1.040713
     6  C    0.436986
     7  O   -1.464694
     8  H    0.251317
     9  H    0.206422
    10  H    0.158481
    11  H    0.117061
    12  H    0.003234
    13  H    0.548386
    14  H    0.109614
    15  H    0.441540
    16  H   -0.064350
    17  H   -0.068274
 Sum of Mulliken charges =   0.00000

 Dipole moment (field-independent basis, Debye):
    X=             -3.7660    Y=             -0.2032    Z=              0.6710  Tot=              3.8307

 Test job not archived.
 1\1\GINC-SE104\SP\RHF\Aug-CC-pVDZ\C5H10O2\OHZDE\09-Apr-2025\0\\#t hf a
 ug-cc-pvdz iop(5/13=1,5/36=2,99/5=2) pseudo=read geom=check guess=(rea
 d,tcheck) scf=(maxcycle=1)\\title\\0,1\C,0,-1.14419513,-1.34832839,0.3
 9287971\C,0,-0.54128969,-0.12973494,-0.25583135\C,0,0.83934701,-0.2908
 0527,-0.81114944\C,0,2.02559924,0.21486529,0.97909503\O,0,2.05223548,1
 .54354651,0.85211301\C,0,-1.43341366,0.90159044,-0.79623001\O,0,-0.778
 57701,1.09854649,0.45004554\H,0,-1.30253489,-2.1329011,-0.34966089\H,0
 ,-0.48177671,-1.74323887,1.16561946\H,0,-2.10135621,-1.10300485,0.8519

 Normal termination of Gaussian 16 at Wed Apr  9 18:27:43 2025.
