 Gaussian 16, Revision C.01,

 ----------------------------------------------------------------------
 #t hf aug-cc-pvdz symm=none int=(grid=ultrafine) guess=(read,tcheck) s
 table=(opt,rrhf)
 ----------------------------------------------------------------------
 -----
 title
 -----
 Symbolic Z-matrix:
 Charge =  0 Multiplicity = 1

 SCF Done:  E(RHF) =  -359.720670442     A.U. after   14 cycles
 Normal termination of Gaussian 16 at Wed Apr  9 18:55:41 2025.
 Gaussian 16:  ES64L-G16RevC.01  3-Jul-2019

 ----------------------------------------------------------------------
 #t hf aug-cc-pvdz iop(5/13=1,5/36=2,99/5=2) pseudo=read geom=check gue
 ss=(read,tcheck) scf=(maxcycle=1)
 ----------------------------------------------------------------------
 -----
 title
 -----
 Structure from the checkpoint file:  "Grambow2020_wb97xd3_008363_reverse_mol2.chk"
 Charge =  0 Multiplicity = 1

                         Standard orientation:
 ---------------------------------------------------------------------
 Center     Atomic      Atomic             Coordinates (Angstroms)
 Number     Number       Type             X           Y           Z
 ---------------------------------------------------------------------
      1          8           0        1.796149   -1.965686    0.001833
      2          6           0        1.178658   -0.780708   -0.009848
      3          6           0       -3.403707   -0.367517    0.028445
      4          7           0       -2.148592   -0.450757   -0.030072
      5          6           0        1.857928    0.372743    0.022239
      6          6           0        1.155235    1.646932    0.009933
      7          8           0       -0.048604    1.805090   -0.025270
      8          1           0        1.143790   -2.669084   -0.023677
      9          1           0        0.091767   -0.801577   -0.046278
     10          1           0       -3.952798    0.578658    0.060364
     11          1           0       -4.002161   -1.279836    0.048790
     12          1           0       -1.702929    0.470168   -0.041364
     13          1           0        2.940436    0.375736    0.059316
     14          1           0        1.812993    2.537296    0.036235
 ---------------------------------------------------------------------

 SCF Done:  E(RHF) =  -360.084274611     A.U. after    2 cycles

 The electronic state is 1-A.
 Alpha  occ. eigenvalues --  -20.60791 -20.52973 -15.49523 -11.33924 -11.33519
 Alpha  occ. eigenvalues --  -11.28756 -11.22910  -1.52858  -1.46408  -1.21165
 Alpha  occ. eigenvalues --   -1.07151  -0.90078  -0.85185  -0.78022  -0.77218
 Alpha  occ. eigenvalues --   -0.70975  -0.67218  -0.65213  -0.63230  -0.60436
 Alpha  occ. eigenvalues --   -0.60235  -0.54223  -0.53538  -0.47866  -0.45784
 Alpha  occ. eigenvalues --   -0.41770  -0.36231
 Alpha virt. eigenvalues --    0.03311   0.03935   0.04372   0.05506   0.05835
 Alpha virt. eigenvalues --    0.07225   0.07572   0.08463   0.10219   0.10310
 Alpha virt. eigenvalues --    0.11816   0.12902   0.13918   0.14564   0.15011

 Mulliken charges:
               1
     1  O   -1.465585
     2  C    1.371853
     3  C   -0.643991
     4  N    0.652855
     5  C    0.468590
     6  C    0.803051
     7  O   -1.345448
     8  H    0.432456
     9  H   -0.198572
    10  H    0.047989
    11  H   -0.039462
    12  H    0.051069
    13  H   -0.189973
    14  H    0.055168
 Sum of Mulliken charges =  -0.00000

 Dipole moment (field-independent basis, Debye):
    X=             -0.7405    Y=             -1.3177    Z=              0.1026  Tot=              1.5150

 Test job not archived.
 1\1\GINC-SE116\SP\RHF\Aug-CC-pVDZ\C4H7N1O2\OHZDE\09-Apr-2025\0\\#t hf
 aug-cc-pvdz iop(5/13=1,5/36=2,99/5=2) pseudo=read geom=check guess=(re
 ad,tcheck) scf=(maxcycle=1)\\title\\0,1\O,0,-0.94784218,-2.53184012,-0
 .75842242\C,0,-0.11556814,-1.53145426,-0.45485577\C,0,-1.58980567,2.71
 661648,0.52022401\N,0,-1.15496266,1.57583846,0.21167412\C,0,1.20749129
 ,-1.71428714,-0.36013984\C,0,2.08678979,-0.60399118,-0.02613009\O,0,1.
 7482605,0.54151903,0.19451802\H,0,-1.85023691,-2.20574377,-0.77676904\
 H,0,-0.57006375,-0.55754239,-0.28745109\H,0,-0.95108233,3.55565903,0.8

 Normal termination of Gaussian 16 at Wed Apr  9 18:55:45 2025.
