 Gaussian 16, Revision C.01,

 ----------------------------------------------------------------------
 #t hf aug-cc-pvdz symm=none int=(grid=ultrafine) guess=(read,tcheck) s
 table=(opt,rrhf)
 ----------------------------------------------------------------------
 -----
 title
 -----
 Symbolic Z-matrix:
 Charge =  0 Multiplicity = 1

 SCF Done:  E(RHF) =  -307.803335948     A.U. after   14 cycles

 1\1\GINC-SE048\Stability\RHF\Aug-CC-pVDZ\C6H10O1\OHZDE\09-Apr-2025\0\\
 #t hf aug-cc-pvdz symm=none int=(grid=ultrafine) guess=(read,tcheck) s
 table=(opt,rrhf)\\title\\0,1\C,0,-1.71317877,0.43309379,0.93029999\C,0
 ,-1.57639793,-1.05630496,0.90846615\C,0,-1.32518476,-1.7763417,-0.1762
 3599\C,0,2.03258808,-0.36920558,0.75121045\C,0,3.07775617,0.19738015,0
 .88165996\C,0,0.93118991,1.51841756,-1.64508793\O,0,0.02181293,0.92474
 451,-2.15105778\H,0,-2.69414847,0.7280482,1.31139398\H,0,-1.58735229,0
 .8531631,-0.06845214\H,0,-0.96974117,0.88173687,1.59642824\H,0,-1.6916

 Normal termination of Gaussian 16 at Wed Apr  9 19:17:13 2025.
 Gaussian 16:  ES64L-G16RevC.01  3-Jul-2019

 ----------------------------------------------------------------------
 #t hf aug-cc-pvdz iop(5/13=1,5/36=2,99/5=2) pseudo=read geom=check gue
 ss=(read,tcheck) scf=(maxcycle=1)
 ----------------------------------------------------------------------
 -----
 title
 -----
 Structure from the checkpoint file:  "Grambow2020_wb97xd3_009030_reverse_mol2.chk"
 Charge =  0 Multiplicity = 1

                         Standard orientation:
 ---------------------------------------------------------------------
 Center     Atomic      Atomic             Coordinates (Angstroms)
 Number     Number       Type             X           Y           Z
 ---------------------------------------------------------------------
      1          6           0       -1.733741    0.033669    1.272473
      2          6           0       -2.148052   -0.690909    0.031173
      3          6           0       -1.966658   -0.240845   -1.202796
      4          6           0        1.416916   -1.553292   -0.231336
      5          6           0        2.548426   -1.774227    0.086918
      6          6           0        1.579096    1.659200    0.183439
      7          8           0        0.635815    2.121562   -0.392636
      8          1           0       -2.594288    0.218833    1.920319
      9          1           0       -1.267766    0.989969    1.031324
     10          1           0       -1.026107   -0.565296    1.854025
     11          1           0       -2.628442   -1.656874    0.172705
     12          1           0       -1.493374    0.718040   -1.388814
     13          1           0       -2.292144   -0.811880   -2.064475
     14          1           0        0.404365   -1.352914   -0.513904
     15          1           0        3.555872   -1.979672    0.364521
     16          1           0        1.485667    1.192274    1.180871
     17          1           0        2.593773    1.673450   -0.254712
 ---------------------------------------------------------------------

 SCF Done:  E(RHF) =  -308.126420432     A.U. after    2 cycles

 The electronic state is 1-A.
 Alpha  occ. eigenvalues --  -20.56088 -11.34900 -11.25519 -11.25160 -11.24110
 Alpha  occ. eigenvalues --  -11.22750 -11.22504  -1.49128  -1.06898  -1.04074
 Alpha  occ. eigenvalues --   -0.93455  -0.87135  -0.77052  -0.75992  -0.69702
 Alpha  occ. eigenvalues --   -0.69400  -0.65525  -0.64809  -0.59236  -0.57205
 Alpha  occ. eigenvalues --   -0.53904  -0.52902  -0.49541  -0.43251  -0.42588
 Alpha  occ. eigenvalues --   -0.42365  -0.37012
 Alpha virt. eigenvalues --    0.02836   0.03903   0.04111   0.04580   0.05625
 Alpha virt. eigenvalues --    0.05795   0.06680   0.07510   0.07926   0.09332
 Alpha virt. eigenvalues --    0.10271   0.10901   0.11530   0.12222   0.13072

 Mulliken charges:
               1
     1  C   -0.588050
     2  C    0.431590
     3  C    0.087338
     4  C    0.625843
     5  C   -0.041110
     6  C    0.606243
     7  O   -0.820032
     8  H    0.188787
     9  H    0.099441
    10  H    0.185592
    11  H   -0.174321
    12  H   -0.126095
    13  H   -0.139013
    14  H   -0.275926
    15  H   -0.275459
    16  H    0.130121
    17  H    0.085050
 Sum of Mulliken charges =  -0.00000

 Dipole moment (field-independent basis, Debye):
    X=              1.8734    Y=             -0.8594    Z=              1.5050  Tot=              2.5521

 Test job not archived.
 1\1\GINC-SE048\SP\RHF\Aug-CC-pVDZ\C6H10O1\OHZDE\09-Apr-2025\0\\#t hf a
 ug-cc-pvdz iop(5/13=1,5/36=2,99/5=2) pseudo=read geom=check guess=(rea
 d,tcheck) scf=(maxcycle=1)\\title\\0,1\C,0,-1.71317877,0.43309379,0.93
 029999\C,0,-1.57639793,-1.05630496,0.90846615\C,0,-1.32518476,-1.77634
 17,-0.17623599\C,0,2.03258808,-0.36920558,0.75121045\C,0,3.07775617,0.
 19738015,0.88165996\C,0,0.93118991,1.51841756,-1.64508793\O,0,0.021812
 93,0.92474451,-2.15105778\H,0,-2.69414847,0.7280482,1.31139398\H,0,-1.
 58735229,0.8531631,-0.06845214\H,0,-0.96974117,0.88173687,1.59642824\H

 Normal termination of Gaussian 16 at Wed Apr  9 19:17:19 2025.
