 Gaussian 16, Revision C.01,

 ----------------------------------------------------------------------
 #t hf aug-cc-pvdz symm=none int=(grid=ultrafine) guess=(read,tcheck) s
 table=(opt,rrhf)
 ----------------------------------------------------------------------
 -----
 title
 -----
 Symbolic Z-matrix:
 Charge =  0 Multiplicity = 1

 SCF Done:  E(RHF) =  -270.615514394     A.U. after   14 cycles
 Normal termination of Gaussian 16 at Wed Apr  9 18:57:02 2025.
 Gaussian 16:  ES64L-G16RevC.01  3-Jul-2019

 ----------------------------------------------------------------------
 #t hf aug-cc-pvdz iop(5/13=1,5/36=2,99/5=2) pseudo=read geom=check gue
 ss=(read,tcheck) scf=(maxcycle=1)
 ----------------------------------------------------------------------
 -----
 title
 -----
 Structure from the checkpoint file:  "Grambow2020_wb97xd3_008379_forward_mol1.chk"
 Charge =  0 Multiplicity = 1

                         Standard orientation:
 ---------------------------------------------------------------------
 Center     Atomic      Atomic             Coordinates (Angstroms)
 Number     Number       Type             X           Y           Z
 ---------------------------------------------------------------------
      1          6           0       -2.344543    0.172498    0.004689
      2          6           0       -0.434406    0.070517   -0.022615
      3          6           0        0.223907   -0.770105   -1.089402
      4          6           0        1.329608   -0.614330    0.023629
      5          6           0        0.168857   -0.757918    1.082938
      6          6           0        1.512174    0.908015    0.017056
      7          6           0        0.280679    1.459356   -0.016628
      8          1           0       -2.613054    0.061162    1.048971
      9          1           0       -2.944880    0.954180   -0.474267
     10          1           0       -2.450472   -0.741691   -0.563610
     11          1           0        0.421438   -0.295189   -2.045988
     12          1           0       -0.159840   -1.789483   -1.183799
     13          1           0        2.162550   -1.313611    0.049640
     14          1           0        0.316726   -0.270184    2.042178
     15          1           0       -0.218917   -1.776064    1.169548
     16          1           0        2.472093    1.409240    0.035928
     17          1           0       -1.403305    0.953443   -0.076598
 ---------------------------------------------------------------------

 SCF Done:  E(RHF) =  -270.906397684     A.U. after    2 cycles

 The electronic state is 1-A.
 Alpha  occ. eigenvalues --  -11.32050 -11.30015 -11.25875 -11.25804 -11.25666
 Alpha  occ. eigenvalues --  -11.18926 -11.17079  -1.23258  -1.05284  -0.97306
 Alpha  occ. eigenvalues --   -0.93375  -0.88919  -0.76301  -0.72030  -0.67630
 Alpha  occ. eigenvalues --   -0.64031  -0.63626  -0.63239  -0.60137  -0.51920
 Alpha  occ. eigenvalues --   -0.51386  -0.49185  -0.47561  -0.45856  -0.31116
 Alpha  occ. eigenvalues --   -0.30554
 Alpha virt. eigenvalues --    0.02099   0.03028   0.03481   0.04351   0.05714
 Alpha virt. eigenvalues --    0.05929   0.06396   0.06848   0.07135   0.08868
 Alpha virt. eigenvalues --    0.11248   0.11882   0.12635   0.12999   0.13229

 Mulliken charges:
               1
     1  C   -0.809724
     2  C   -0.330423
     3  C    0.123511
     4  C   -0.056623
     5  C    0.142740
     6  C    0.325898
     7  C   -0.538790
     8  H    0.236751
     9  H    0.143532
    10  H    0.311053
    11  H   -0.003479
    12  H   -0.047069
    13  H   -0.221141
    14  H    0.012746
    15  H   -0.034358
    16  H   -0.158973
    17  H    0.904348
 Sum of Mulliken charges =  -0.00000

 Dipole moment (field-independent basis, Debye):
    X=             -3.3733    Y=             -4.9121    Z=             -0.0489  Tot=              5.9591

 Test job not archived.
 1\1\GINC-SE220\SP\RHF\Aug-CC-pVDZ\C7H10\OHZDE\09-Apr-2025\0\\#t hf aug
 -cc-pvdz iop(5/13=1,5/36=2,99/5=2) pseudo=read geom=check guess=(read,
 tcheck) scf=(maxcycle=1)\\title\\0,1\C,0,2.14031751,0.21826579,0.05331
 527\C,0,0.22740026,0.19565006,0.05147394\C,0,-0.47976224,-0.74695237,0
 .99459656\C,0,-1.56270137,-0.40113795,-0.09780174\C,0,-0.39450303,-0.4
 5607652,-1.15723116\C,0,-1.68204456,1.11397045,0.10496023\C,0,-0.42931
 869,1.60296972,0.22007357\H,0,2.41825924,0.23161045,-0.99434416\H,0,2.
 76594117,0.90490017,0.63465609\H,0,2.20044555,-0.76548415,0.49890182\H

 Normal termination of Gaussian 16 at Wed Apr  9 18:57:08 2025.
