 Gaussian 16, Revision C.01,

 ----------------------------------------------------------------------
 #t hf aug-cc-pvdz symm=none int=(grid=ultrafine) guess=(read,tcheck) s
 table=(opt,rrhf)
 ----------------------------------------------------------------------
 -----
 title
 -----
 Symbolic Z-matrix:
 Charge =  0 Multiplicity = 1

 SCF Done:  E(RHF) =  -343.576750933     A.U. after   15 cycles
 Normal termination of Gaussian 16 at Wed Apr  9 18:31:23 2025.
 Gaussian 16:  ES64L-G16RevC.01  3-Jul-2019

 ----------------------------------------------------------------------
 #t hf aug-cc-pvdz iop(5/13=1,5/36=2,99/5=2) pseudo=read geom=check gue
 ss=(read,tcheck) scf=(maxcycle=1)
 ----------------------------------------------------------------------
 -----
 title
 -----
 Structure from the checkpoint file:  "Grambow2020_wb97xd3_007677_reverse_mol2.chk"
 Charge =  0 Multiplicity = 1

                         Standard orientation:
 ---------------------------------------------------------------------
 Center     Atomic      Atomic             Coordinates (Angstroms)
 Number     Number       Type             X           Y           Z
 ---------------------------------------------------------------------
      1          6           0       -2.038854    0.858585    0.121109
      2          6           0       -1.459980   -0.272725    0.486059
      3          6           0       -0.464934   -1.002925   -0.335594
      4          8           0        0.180714   -0.315148   -1.390613
      5          6           0        0.988859   -0.757441   -0.283895
      6          6           0        1.555533    0.263124    0.640624
      7          8           0        1.285642    1.454307    0.218684
      8          1           0       -2.771405    1.342386    0.753721
      9          1           0       -1.805135    1.332706   -0.825424
     10          1           0        0.919122   -1.433797    2.801500
     11          1           0       -1.716965   -0.750271    1.426556
     12          1           0       -0.754701   -2.021634   -0.589853
     13          1           0        1.646154   -1.593924   -0.501160
     14          1           0        0.504724   -1.945450    3.155562
     15          1           0        0.763614    1.424999   -0.615273
 ---------------------------------------------------------------------

 SCF Done:  E(RHF) =  -343.926086004     A.U. after    2 cycles

 The electronic state is 1-A.
 Alpha  occ. eigenvalues --  -20.61734 -20.59141 -11.33107 -11.31236 -11.31139
 Alpha  occ. eigenvalues --  -11.26327 -11.25525  -1.55345  -1.51860  -1.08783
 Alpha  occ. eigenvalues --   -1.00435  -0.93000  -0.84104  -0.80185  -0.75455
 Alpha  occ. eigenvalues --   -0.71355  -0.66790  -0.63284  -0.61490  -0.58759
 Alpha  occ. eigenvalues --   -0.58215  -0.55299  -0.53867  -0.49079  -0.48156
 Alpha  occ. eigenvalues --   -0.39463  -0.37389
 Alpha virt. eigenvalues --    0.03250   0.03602   0.04243   0.04936   0.05866
 Alpha virt. eigenvalues --    0.07166   0.07818   0.08602   0.09228   0.09923
 Alpha virt. eigenvalues --    0.11023   0.12542   0.13042   0.13575   0.14061

 Mulliken charges:
               1
     1  C   -0.125764
     2  C    0.669890
     3  C    0.710610
     4  O   -1.396565
     5  C    0.627980
     6  C    0.430492
     7  O   -1.088606
     8  H   -0.092483
     9  H   -0.100445
    10  H    0.010532
    11  H   -0.130672
    12  H   -0.041903
    13  H   -0.036869
    14  H    0.015063
    15  H    0.548737
 Sum of Mulliken charges =  -0.00000

 Dipole moment (field-independent basis, Debye):
    X=             -2.1991    Y=             -1.1665    Z=             -1.2181  Tot=              2.7714

 Test job not archived.
 1\1\GINC-SE340\SP\RHF\Aug-CC-pVDZ\C5H8O2\OHZDE\09-Apr-2025\0\\#t hf au
 g-cc-pvdz iop(5/13=1,5/36=2,99/5=2) pseudo=read geom=check guess=(read
 ,tcheck) scf=(maxcycle=1)\\title\\0,1\C,0,2.02252292,-0.0427812,-0.673
 55229\C,0,1.17888163,0.36996386,0.25706919\C,0,-0.11470854,1.03661029,
 -0.02688542\O,0,-0.66657567,0.92342387,-1.32519031\C,0,-1.38627173,0.3
 1802176,-0.23474438\C,0,-1.4425928,-1.16773139,-0.15245225\O,0,-0.8775
 8456,-1.69912623,-1.18597822\H,0,2.96211959,-0.51037837,-0.41010584\H,
 0,1.80459413,0.08122958,-1.72828832\H,0,-1.04511034,-0.96482989,2.6322

 Normal termination of Gaussian 16 at Wed Apr  9 18:31:27 2025.
