 Gaussian 16, Revision C.01,

 ----------------------------------------------------------------------
 #t hf aug-cc-pvdz symm=none int=(grid=ultrafine) guess=(read,tcheck) s
 table=(opt,rrhf)
 ----------------------------------------------------------------------
 -----
 title
 -----
 Symbolic Z-matrix:
 Charge =  0 Multiplicity = 1

 SCF Done:  E(RHF) =  -325.099778067     A.U. after   13 cycles
 Normal termination of Gaussian 16 at Wed Apr  9 03:52:53 2025.
 Gaussian 16:  ES64L-G16RevC.01  3-Jul-2019

 ----------------------------------------------------------------------
 #t hf aug-cc-pvdz iop(5/13=1,5/36=2,99/5=2) pseudo=read geom=check gue
 ss=(read,tcheck) scf=(maxcycle=1)
 ----------------------------------------------------------------------
 -----
 title
 -----
 Structure from the checkpoint file:  "Grambow2020_wb97xd3_008239_reverse_mol2.chk"
 Charge =  0 Multiplicity = 1

                         Standard orientation:
 ---------------------------------------------------------------------
 Center     Atomic      Atomic             Coordinates (Angstroms)
 Number     Number       Type             X           Y           Z
 ---------------------------------------------------------------------
      1          6           0       -1.002201    1.488882   -1.021526
      2          6           0       -0.030425    1.869113    0.086343
      3          6           0        0.155229    0.779497    1.135391
      4          7           0        0.731806   -0.430521    0.602463
      5          6           0        1.674853   -0.788266   -0.037135
      6          8           0        2.553519   -1.249118   -0.653660
      7          6           0       -2.710665   -1.780147    0.016416
      8          1           0       -1.100768    2.296747   -1.747702
      9          1           0       -0.668045    0.598042   -1.556101
     10          1           0       -1.994759    1.278645   -0.616520
     11          1           0        0.946317    2.122995   -0.336974
     12          1           0       -0.385982    2.764645    0.604403
     13          1           0        0.788291    1.140874    1.949601
     14          1           0       -0.809492    0.512096    1.571165
     15          1           0       -1.629094   -1.653217    0.045932
     16          1           0       -3.076870   -1.556877   -0.984792
     17          1           0       -3.178416   -1.104212    0.731711
     18          1           0       -2.962718   -2.807619    0.274380
 ---------------------------------------------------------------------

 SCF Done:  E(RHF) =  -325.443466097     A.U. after    2 cycles

 The electronic state is 1-A.
 Alpha  occ. eigenvalues --  -20.58589 -15.52124 -11.40050 -11.29920 -11.24801
 Alpha  occ. eigenvalues --  -11.23268 -11.21765  -1.53448  -1.28063  -1.08634
 Alpha  occ. eigenvalues --   -0.97966  -0.94545  -0.85768  -0.73966  -0.71212
 Alpha  occ. eigenvalues --   -0.68680  -0.67014  -0.62747  -0.61565  -0.58094
 Alpha  occ. eigenvalues --   -0.55148  -0.55014  -0.54894  -0.52855  -0.52414
 Alpha  occ. eigenvalues --   -0.50402  -0.45347  -0.43882
 Alpha virt. eigenvalues --    0.03161   0.03630   0.03867   0.04226   0.05355
 Alpha virt. eigenvalues --    0.06083   0.06545   0.07377   0.07872   0.09449
 Alpha virt. eigenvalues --    0.09911   0.10857   0.11915   0.12951   0.13257

 Mulliken charges:
               1
     1  C   -0.345261
     2  C   -0.300339
     3  C   -0.599867
     4  N    0.954929
     5  C    0.217157
     6  O   -0.925283
     7  C   -0.222786
     8  H    0.096941
     9  H    0.193187
    10  H    0.197209
    11  H    0.145743
    12  H    0.145375
    13  H    0.085536
    14  H    0.112229
    15  H    0.020481
    16  H    0.098580
    17  H    0.088381
    18  H    0.037787
 Sum of Mulliken charges =  -0.00000

 Dipole moment (field-independent basis, Debye):
    X=             -1.3485    Y=              2.4161    Z=              0.9378  Tot=              2.9215

 Test job not archived.
 1\1\GINC-SE143\SP\RHF\Aug-CC-pVDZ\C5H11N1O1\OHZDE\09-Apr-2025\0\\#t hf
  aug-cc-pvdz iop(5/13=1,5/36=2,99/5=2) pseudo=read geom=check guess=(r
 ead,tcheck) scf=(maxcycle=1)\\title\\0,1\C,0,-1.30133924,-0.16606094,-
 0.91225977\C,0,-1.70105031,0.53458207,0.37833271\C,0,-0.59272039,0.566
 20739,1.42372074\N,0,0.5679422,1.31016946,0.99948224\C,0,0.85489905,2.
 38350839,0.56130001\O,0,1.2489443,3.39533538,0.13063135\C,0,2.08488269
 ,-1.85379356,-0.3058082\H,0,-2.12368371,-0.16186767,-1.62879624\H,0,-0
 .44611264,0.32245318,-1.38233087\H,0,-1.02561595,-1.20619263,-0.723833

 Normal termination of Gaussian 16 at Wed Apr  9 03:52:59 2025.
