 Gaussian 16, Revision C.01,

 ----------------------------------------------------------------------
 #t hf aug-cc-pvdz symm=none int=(grid=ultrafine) guess=(read,tcheck) s
 table=(opt,rrhf)
 ----------------------------------------------------------------------
 -----
 title
 -----
 Symbolic Z-matrix:
 Charge =  0 Multiplicity = 1

 SCF Done:  E(RHF) =  -273.225163907     A.U. after   12 cycles
 Normal termination of Gaussian 16 at Wed Apr  9 03:46:03 2025.
 Gaussian 16:  ES64L-G16RevC.01  3-Jul-2019

 ----------------------------------------------------------------------
 #t hf aug-cc-pvdz iop(5/13=1,5/36=2,99/5=2) pseudo=read geom=check gue
 ss=(read,tcheck) scf=(maxcycle=1)
 ----------------------------------------------------------------------
 -----
 title
 -----
 Structure from the checkpoint file:  "Grambow2020_wb97xd3_007785_forward_mol2.chk"
 Charge =  0 Multiplicity = 1

                         Standard orientation:
 ---------------------------------------------------------------------
 Center     Atomic      Atomic             Coordinates (Angstroms)
 Number     Number       Type             X           Y           Z
 ---------------------------------------------------------------------
      1          6           0       -1.407260   -1.231719   -0.545037
      2          6           0       -0.670305    0.000037   -0.010382
      3          6           0       -0.683092   -0.037873    1.518415
      4          6           0       -1.383727    1.270272   -0.482943
      5          6           0        0.737836   -0.000541   -0.596208
      6          6           0        1.889824   -0.752168   -0.003467
      7          6           0        1.889807    0.751153   -0.003829
      8          1           0       -1.445397   -1.221902   -1.637365
      9          1           0       -0.902867   -2.150394   -0.236423
     10          1           0       -2.435066   -1.266877   -0.174725
     11          1           0       -1.713587   -0.023563    1.880467
     12          1           0       -0.214301   -0.943731    1.907707
     13          1           0       -0.174192    0.824882    1.953233
     14          1           0       -1.405251    1.324803   -1.574383
     15          1           0       -2.416457    1.297530   -0.125697
     16          1           0       -0.873265    2.163163   -0.114263
     17          1           0        0.719255    0.000862   -1.682914
     18          1           0        1.747759   -1.247079    0.948461
     19          1           0        2.563808   -1.268315   -0.674463
     20          1           0        2.562317    1.267410   -0.676132
     21          1           0        1.748742    1.248250    0.947196
 ---------------------------------------------------------------------

 SCF Done:  E(RHF) =  -273.530897547     A.U. after    2 cycles

 The electronic state is 1-A.
 Alpha  occ. eigenvalues --  -11.23611 -11.22760 -11.22486 -11.22456 -11.21764
 Alpha  occ. eigenvalues --  -11.21565 -11.21540  -1.15553  -1.07470  -0.93272
 Alpha  occ. eigenvalues --   -0.92973  -0.84051  -0.81931  -0.73047  -0.67138
 Alpha  occ. eigenvalues --   -0.65283  -0.60481  -0.59677  -0.56178  -0.54705
 Alpha  occ. eigenvalues --   -0.53657  -0.52218  -0.50798  -0.48072  -0.47804
 Alpha  occ. eigenvalues --   -0.46181  -0.41622  -0.40868
 Alpha virt. eigenvalues --    0.03487   0.03511   0.03785   0.04129   0.05854
 Alpha virt. eigenvalues --    0.05940   0.06014   0.06351   0.06642   0.09017
 Alpha virt. eigenvalues --    0.09359   0.09654   0.09737   0.09988   0.13094

 Mulliken charges:
               1
     1  C    0.171751
     2  C   -3.042515
     3  C    0.136414
     4  C    0.171874
     5  C    1.108673
     6  C    0.174729
     7  C    0.185474
     8  H    0.205957
     9  H    0.227648
    10  H    0.188729
    11  H    0.162918
    12  H    0.217957
    13  H    0.206438
    14  H    0.202676
    15  H    0.188727
    16  H    0.228048
    17  H   -0.232511
    18  H   -0.118760
    19  H   -0.124459
    20  H   -0.131147
    21  H   -0.128622
 Sum of Mulliken charges =  -0.00000

 Dipole moment (field-independent basis, Debye):
    X=             -0.0573    Y=             -0.0022    Z=             -0.0411  Tot=              0.0705

 Test job not archived.
 1\1\GINC-SE166\SP\RHF\Aug-CC-pVDZ\C7H14\OHZDE\09-Apr-2025\0\\#t hf aug
 -cc-pvdz iop(5/13=1,5/36=2,99/5=2) pseudo=read geom=check guess=(read,
 tcheck) scf=(maxcycle=1)\\title\\0,1\C,0,-0.65810001,1.65551555,0.6418
 9192\C,0,-0.50721899,0.1929416,0.21259881\C,0,-1.05754032,0.03181121,-
 1.2051478\C,0,-1.30568321,-0.7055736,1.16176138\C,0,0.96615408,-0.1837
 9352,0.32789927\C,0,1.98086063,0.07133129,-0.74384892\C,0,1.5925824,-1
 .33781411,-0.39239206\H,0,-0.30283345,1.80208058,1.6651393\H,0,-0.0791
 0959,2.31343956,-0.01043069\H,0,-1.70377026,1.97137163,0.60235952\H,0,

 Normal termination of Gaussian 16 at Wed Apr  9 03:46:13 2025.
