 Gaussian 16, Revision C.01,

 ----------------------------------------------------------------------
 #t hf aug-cc-pvdz symm=none int=(grid=ultrafine) guess=(read,tcheck) s
 table=(opt,rrhf)
 ----------------------------------------------------------------------
 -----
 title
 -----
 Symbolic Z-matrix:
 Charge =  0 Multiplicity = 1

 SCF Done:  E(RHF) =  -353.320095792     A.U. after   17 cycles
 Normal termination of Gaussian 16 at Wed Apr  9 18:39:13 2025.
 Gaussian 16:  ES64L-G16RevC.01  3-Jul-2019

 ----------------------------------------------------------------------
 #t hf aug-cc-pvdz iop(5/13=1,5/36=2,99/5=2) pseudo=read geom=check gue
 ss=(read,tcheck) scf=(maxcycle=1)
 ----------------------------------------------------------------------
 -----
 title
 -----
 Structure from the checkpoint file:  "Grambow2020_wb97xd3_007940_reverse_mol1.chk"
 Charge =  0 Multiplicity = 1

                         Standard orientation:
 ---------------------------------------------------------------------
 Center     Atomic      Atomic             Coordinates (Angstroms)
 Number     Number       Type             X           Y           Z
 ---------------------------------------------------------------------
      1          8           0        2.069459   -0.148967   -0.444881
      2          6           0        0.886016   -0.148639    0.065361
      3          6           0        0.018234   -1.233648    0.335770
      4          7           0       -1.265569   -1.064126    0.018830
      5          7           0       -1.602832    0.130560   -0.524878
      6          6           0       -0.872430    1.117779   -0.098747
      7          7           0        0.316187    0.956901    0.636894
      8          1           0        2.469964    0.724552   -0.313960
      9          1           0       -0.104866   -0.237296    1.342228
     10          1           0       -1.246191    2.128190   -0.199448
 ---------------------------------------------------------------------

 SCF Done:  E(RHF) =  -353.665722558     A.U. after    2 cycles

 The electronic state is 1-A.
 Alpha  occ. eigenvalues --  -20.68327 -15.57762 -15.57219 -15.55512 -11.44379
 Alpha  occ. eigenvalues --  -11.34633 -11.27320  -1.62020  -1.40016  -1.27656
 Alpha  occ. eigenvalues --   -1.15789  -0.98606  -0.93475  -0.87020  -0.80153
 Alpha  occ. eigenvalues --   -0.74523  -0.71173  -0.66811  -0.63837  -0.61125
 Alpha  occ. eigenvalues --   -0.57463  -0.51028  -0.47323  -0.44952  -0.36729
 Alpha virt. eigenvalues --    0.01691   0.02642   0.04229   0.04744   0.07687
 Alpha virt. eigenvalues --    0.07761   0.08376   0.09207   0.09928   0.10894
 Alpha virt. eigenvalues --    0.11527   0.12389   0.13186   0.14785   0.15605

 Mulliken charges:
               1
     1  O   -1.187032
     2  C    0.850436
     3  C   -1.197528
     4  N    0.298388
     5  N    0.275732
     6  C   -0.564293
     7  N    0.308561
     8  H    0.276194
     9  H    0.961171
    10  H   -0.021628
 Sum of Mulliken charges =   0.00000

 Dipole moment (field-independent basis, Debye):
    X=              4.3171    Y=              4.1454    Z=              0.0223  Tot=              5.9852

 Test job not archived.
 1\1\GINC-SE229\SP\RHF\Aug-CC-pVDZ\C3H3N3O1\OHZDE\09-Apr-2025\0\\#t hf
 aug-cc-pvdz iop(5/13=1,5/36=2,99/5=2) pseudo=read geom=check guess=(re
 ad,tcheck) scf=(maxcycle=1)\\title\\0,1\O,0,1.91499237,-0.22529626,0.8
 4252214\C,0,0.86770478,0.14203274,0.18743254\C,0,0.32541859,1.43628175
 ,0.00235403\N,0,-0.99857959,1.54936315,0.1099685\N,0,-1.68380385,0.412
 05121,0.38131687\C,0,-1.13136096,-0.65553357,-0.11340162\N,0,0.1715214
 4,-0.69380746,-0.64339498\H,0,2.12567589,-1.14346825,0.61197266\H,0,0.
 15713364,0.65518347,-1.17339845\H,0,-1.73393231,-1.54443577,-0.2457936

 Normal termination of Gaussian 16 at Wed Apr  9 18:39:17 2025.
