 Gaussian 16, Revision C.01,

 ----------------------------------------------------------------------
 #t hf aug-cc-pvdz symm=none int=(grid=ultrafine) guess=(read,tcheck) s
 table=(opt,rrhf)
 ----------------------------------------------------------------------
 -----
 title
 -----
 Symbolic Z-matrix:
 Charge =  0 Multiplicity = 1

 SCF Done:  E(RHF) =  -324.986071510     A.U. after   15 cycles
 Normal termination of Gaussian 16 at Wed Apr  9 18:50:00 2025.
 Gaussian 16:  ES64L-G16RevC.01  3-Jul-2019

 ----------------------------------------------------------------------
 #t hf aug-cc-pvdz iop(5/13=1,5/36=2,99/5=2) pseudo=read geom=check gue
 ss=(read,tcheck) scf=(maxcycle=1)
 ----------------------------------------------------------------------
 -----
 title
 -----
 Structure from the checkpoint file:  "Grambow2020_wb97xd3_008097_forward_mol1.chk"
 Charge =  0 Multiplicity = 1

                         Standard orientation:
 ---------------------------------------------------------------------
 Center     Atomic      Atomic             Coordinates (Angstroms)
 Number     Number       Type             X           Y           Z
 ---------------------------------------------------------------------
      1          6           0        2.335744   -0.494598    0.217742
      2          6           0        1.717846    0.744175    0.040277
      3          7           0       -0.165706    0.618421   -0.261630
      4          6           0       -0.896562    1.834958   -0.014692
      5          6           0       -0.707966   -0.544338   -0.116667
      6          8           0        0.009148   -1.611973   -0.264197
      7          6           0       -2.149917   -0.752991    0.245361
      8          1           0        2.575154   -0.817145    1.224280
      9          1           0        2.978762   -0.866161   -0.572414
     10          1           0        1.056790   -1.288714   -0.118456
     11          1           0        1.889569    1.297221   -0.876557
     12          1           0        1.559404    1.387351    0.901577
     13          1           0       -0.233996    2.681539   -0.207620
     14          1           0       -1.755915    1.934302   -0.682418
     15          1           0       -1.251601    1.921680    1.018311
     16          1           0       -2.383141   -1.813672    0.197105
     17          1           0       -2.806671   -0.203087   -0.429626
     18          1           0       -2.336467   -0.389715    1.258675
 ---------------------------------------------------------------------

 SCF Done:  E(RHF) =  -325.331535455     A.U. after    2 cycles

 The electronic state is 1-A.
 Alpha  occ. eigenvalues --  -20.54310 -15.49680 -11.35700 -11.29043 -11.27125
 Alpha  occ. eigenvalues --  -11.25054 -11.16458  -1.48622  -1.23368  -1.03533
 Alpha  occ. eigenvalues --   -1.00661  -0.96750  -0.81628  -0.77652  -0.70975
 Alpha  occ. eigenvalues --   -0.66900  -0.66573  -0.62861  -0.59181  -0.58766
 Alpha  occ. eigenvalues --   -0.57746  -0.56908  -0.55412  -0.52127  -0.50155
 Alpha  occ. eigenvalues --   -0.49107  -0.41072  -0.30017
 Alpha virt. eigenvalues --    0.03107   0.03946   0.04216   0.04972   0.05627
 Alpha virt. eigenvalues --    0.05780   0.06152   0.06410   0.07633   0.09365
 Alpha virt. eigenvalues --    0.09506   0.10842   0.12676   0.13075   0.13971

 Mulliken charges:
               1
     1  C   -0.343637
     2  C    0.121167
     3  N    0.846849
     4  C   -0.407914
     5  C    0.048610
     6  O   -1.625626
     7  C   -0.393175
     8  H   -0.019132
     9  H    0.006105
    10  H    0.832030
    11  H   -0.020565
    12  H    0.007332
    13  H   -0.026640
    14  H    0.114334
    15  H    0.185133
    16  H    0.063457
    17  H    0.308430
    18  H    0.303241
 Sum of Mulliken charges =  -0.00000

 Dipole moment (field-independent basis, Debye):
    X=             -2.6492    Y=              2.2432    Z=              0.6339  Tot=              3.5287

 Test job not archived.
 1\1\GINC-SE173\SP\RHF\Aug-CC-pVDZ\C5H11N1O1\OHZDE\09-Apr-2025\0\\#t hf
  aug-cc-pvdz iop(5/13=1,5/36=2,99/5=2) pseudo=read geom=check guess=(r
 ead,tcheck) scf=(maxcycle=1)\\title\\0,1\C,0,-2.23375189,-0.00416332,-
 1.03576513\C,0,-1.79271805,-0.1954189,0.2744872\N,0,0.10423801,-0.3837
 9272,0.41872632\C,0,0.63352978,-0.14432865,1.73690679\C,0,0.79971159,-
 0.16162417,-0.64618011\O,0,0.25612337,-0.30709511,-1.81203292\C,0,2.23
 121654,0.29036983,-0.62835014\H,0,-2.48610779,0.99912956,-1.35855414\H
 ,0,-2.76526931,-0.81430939,-1.52262171\H,0,-0.83442811,-0.23458584,-1.

 Normal termination of Gaussian 16 at Wed Apr  9 18:50:06 2025.
