 Gaussian 16, Revision C.01,

 ----------------------------------------------------------------------
 #t hf aug-cc-pvdz symm=none int=(grid=ultrafine) guess=(read,tcheck) s
 table=(opt,rrhf)
 ----------------------------------------------------------------------
 -----
 title
 -----
 Symbolic Z-matrix:
 Charge =  0 Multiplicity = 1

 SCF Done:  E(RHF) =  -267.509522757     A.U. after   16 cycles
 Normal termination of Gaussian 16 at Wed Apr  9 03:20:56 2025.
 Gaussian 16:  ES64L-G16RevC.01  3-Jul-2019

 ----------------------------------------------------------------------
 #t hf aug-cc-pvdz iop(5/13=1,5/36=2,99/5=2) pseudo=read geom=check gue
 ss=(read,tcheck) scf=(maxcycle=1)
 ----------------------------------------------------------------------
 -----
 title
 -----
 Structure from the checkpoint file:  "Grambow2020_wb97xd3_006076_forward_mol1.chk"
 Charge =  0 Multiplicity = 1

                         Standard orientation:
 ---------------------------------------------------------------------
 Center     Atomic      Atomic             Coordinates (Angstroms)
 Number     Number       Type             X           Y           Z
 ---------------------------------------------------------------------
      1          8           0        1.004350   -0.255513    0.782053
      2          6           0        0.204534    1.146709   -0.039621
      3          6           0       -1.202677    0.706129    0.056068
      4          6           0       -1.094670   -0.848108   -0.075726
      5          6           0        0.382828   -1.139319   -0.209548
      6          6           0        1.042969    0.134067   -0.621814
      7          1           0        0.537974    2.156932    0.183603
      8          1           0       -1.740828    1.099173   -0.812497
      9          1           0       -1.699463    1.085141    0.951126
     10          1           0       -1.504713   -1.344174    0.805188
     11          1           0       -1.632495   -1.217160   -0.948922
     12          1           0        2.006822    0.267333   -1.091073
 ---------------------------------------------------------------------

 SCF Done:  E(RHF) =  -267.784199266     A.U. after    2 cycles

 The electronic state is 1-A.
 Alpha  occ. eigenvalues --  -20.61771 -11.35289 -11.30271 -11.26080 -11.23226
 Alpha  occ. eigenvalues --  -11.22802  -1.53404  -1.11529  -0.99651  -0.94303
 Alpha  occ. eigenvalues --   -0.81987  -0.78545  -0.72772  -0.64623  -0.62791
 Alpha  occ. eigenvalues --   -0.57524  -0.55706  -0.53100  -0.49923  -0.48106
 Alpha  occ. eigenvalues --   -0.44207  -0.30590
 Alpha virt. eigenvalues --    0.02400   0.03683   0.03851   0.04889   0.06032
 Alpha virt. eigenvalues --    0.06904   0.07483   0.09553   0.09901   0.12191
 Alpha virt. eigenvalues --    0.13050   0.14106   0.14710   0.15026   0.15626

 Mulliken charges:
               1
     1  O   -1.017598
     2  C    0.264147
     3  C   -0.408687
     4  C   -0.181686
     5  C   -0.286713
     6  C    1.043437
     7  H   -0.056599
     8  H    0.274931
     9  H    0.122201
    10  H    0.164241
    11  H    0.190498
    12  H   -0.108173
 Sum of Mulliken charges =  -0.00000

 Dipole moment (field-independent basis, Debye):
    X=             -1.4491    Y=              5.0052    Z=             -0.6581  Tot=              5.2521

 Test job not archived.
 1\1\GINC-SE074\SP\RHF\Aug-CC-pVDZ\C5H6O1\OHZDE\09-Apr-2025\0\\#t hf au
 g-cc-pvdz iop(5/13=1,5/36=2,99/5=2) pseudo=read geom=check guess=(read
 ,tcheck) scf=(maxcycle=1)\\title\\0,1\O,0,0.03197698,-1.43403041,-0.44
 865757\C,0,-0.28525821,-0.50254577,1.07212412\C,0,-0.8279203,0.73829,0
 .48106135\C,0,-0.0235758,0.87386323,-0.85285652\C,0,0.88814313,-0.3313
 1941,-0.89774873\C,0,0.9824165,-0.85926781,0.49496231\H,0,-0.72824429,
 -1.0093493,1.92563188\H,0,-0.56425474,1.57146574,1.14045006\H,0,-1.915
 80448,0.71857983,0.39334068\H,0,-0.69344501,0.87982677,-1.71394071\H,0

 Normal termination of Gaussian 16 at Wed Apr  9 03:21:00 2025.
