 Gaussian 16, Revision C.01,

 ----------------------------------------------------------------------
 #t hf aug-cc-pvdz symm=none int=(grid=ultrafine) guess=(read,tcheck) s
 table=(opt,rrhf)
 ----------------------------------------------------------------------
 -----
 title
 -----
 Symbolic Z-matrix:
 Charge =  0 Multiplicity = 1

 SCF Done:  E(RHF) =  -322.740092292     A.U. after   15 cycles
 Normal termination of Gaussian 16 at Wed Apr  9 17:51:56 2025.
 Gaussian 16:  ES64L-G16RevC.01  3-Jul-2019

 ----------------------------------------------------------------------
 #t hf aug-cc-pvdz iop(5/13=1,5/36=2,99/5=2) pseudo=read geom=check gue
 ss=(read,tcheck) scf=(maxcycle=1)
 ----------------------------------------------------------------------
 -----
 title
 -----
 Structure from the checkpoint file:  "Grambow2020_wb97xd3_006853_forward_mol2.chk"
 Charge =  0 Multiplicity = 1

                         Standard orientation:
 ---------------------------------------------------------------------
 Center     Atomic      Atomic             Coordinates (Angstroms)
 Number     Number       Type             X           Y           Z
 ---------------------------------------------------------------------
      1          6           0        2.520010   -0.443795    0.004240
      2          6           0        1.064530   -0.159254    0.001110
      3          6           0       -0.027695   -0.958901   -0.012236
      4          6           0       -1.169394   -0.091474   -0.007797
      5          7           0       -2.500408   -0.511515   -0.086441
      6          6           0       -0.674371    1.168620    0.008007
      7          8           0        0.693213    1.135417    0.007470
      8          1           0        3.002068   -0.026744   -0.882116
      9          1           0        2.685839   -1.520145    0.012610
     10          1           0        3.001482   -0.011773    0.883672
     11          1           0       -0.031893   -2.037635   -0.033584
     12          1           0       -2.683042   -1.347252    0.445952
     13          1           0       -3.165122    0.206200    0.153801
     14          1           0       -1.130657    2.143440    0.005049
 ---------------------------------------------------------------------

 SCF Done:  E(RHF) =  -323.074547631     A.U. after    2 cycles

 The electronic state is 1-A.
 Alpha  occ. eigenvalues --  -20.59150 -15.50576 -11.29529 -11.26602 -11.26285
 Alpha  occ. eigenvalues --  -11.24200 -11.22076  -1.53440  -1.21184  -1.07218
 Alpha  occ. eigenvalues --   -1.03757  -0.93123  -0.80669  -0.78728  -0.72319
 Alpha  occ. eigenvalues --   -0.68886  -0.64675  -0.63956  -0.58374  -0.56765
 Alpha  occ. eigenvalues --   -0.56337  -0.55883  -0.52882  -0.51557  -0.36648
 Alpha  occ. eigenvalues --   -0.30327
 Alpha virt. eigenvalues --    0.03093   0.03834   0.04389   0.05349   0.05765
 Alpha virt. eigenvalues --    0.06093   0.08280   0.10212   0.10865   0.11255
 Alpha virt. eigenvalues --    0.12461   0.13302   0.14433   0.14537   0.15836

 Mulliken charges:
               1
     1  C   -0.772823
     2  C    0.916935
     3  C    0.295289
     4  C   -1.083598
     5  N    0.658647
     6  C    1.246895
     7  O   -1.649496
     8  H    0.237012
     9  H    0.167144
    10  H    0.234714
    11  H   -0.203507
    12  H    0.096176
    13  H    0.037312
    14  H   -0.180700
 Sum of Mulliken charges =  -0.00000

 Dipole moment (field-independent basis, Debye):
    X=             -0.2512    Y=             -0.8157    Z=              1.1261  Tot=              1.4130

 Test job not archived.
 1\1\GINC-SE114\SP\RHF\Aug-CC-pVDZ\C5H7N1O1\OHZDE\09-Apr-2025\0\\#t hf
 aug-cc-pvdz iop(5/13=1,5/36=2,99/5=2) pseudo=read geom=check guess=(re
 ad,tcheck) scf=(maxcycle=1)\\title\\0,1\C,0,2.42148239,-0.00120271,0.0
 4789609\C,0,0.94420245,0.12233218,0.00572184\C,0,-0.05074337,-0.788254
 99,-0.11038657\C,0,-1.28179656,-0.05339883,-0.08986238\N,0,-2.55420992
 ,-0.60880022,-0.2532969\C,0,-0.93154673,1.24822017,0.03760451\O,0,0.43
 045497,1.36447664,0.09075304\H,0,2.88264773,0.53262036,-0.78534952\H,0
 ,2.70624913,-1.05050916,-0.01504572\H,0,2.82258234,0.41206741,0.975357

 Normal termination of Gaussian 16 at Wed Apr  9 17:52:01 2025.
