 Gaussian 16, Revision C.01,

 ----------------------------------------------------------------------
 #t hf aug-cc-pvdz symm=none int=(grid=ultrafine) guess=(read,tcheck) s
 table=(opt,rrhf)
 ----------------------------------------------------------------------
 -----
 title
 -----
 Symbolic Z-matrix:
 Charge =  0 Multiplicity = 1

 SCF Done:  E(RHF) =  -343.649519820     A.U. after   15 cycles
 Normal termination of Gaussian 16 at Wed Apr  9 04:04:54 2025.
 Gaussian 16:  ES64L-G16RevC.01  3-Jul-2019

 ----------------------------------------------------------------------
 #t hf aug-cc-pvdz iop(5/13=1,5/36=2,99/5=2) pseudo=read geom=check gue
 ss=(read,tcheck) scf=(maxcycle=1)
 ----------------------------------------------------------------------
 -----
 title
 -----
 Structure from the checkpoint file:  "Grambow2020_wb97xd3_009104_reverse_mol2.chk"
 Charge =  0 Multiplicity = 1

                         Standard orientation:
 ---------------------------------------------------------------------
 Center     Atomic      Atomic             Coordinates (Angstroms)
 Number     Number       Type             X           Y           Z
 ---------------------------------------------------------------------
      1          6           0       -0.133566    1.480434    0.365852
      2          6           0        1.200093    1.233633   -0.306874
      3          8           0        1.610575    0.003900   -0.265505
      4          6           0        0.916054   -1.099278    0.385949
      5          6           0       -0.422225   -1.428860   -0.238232
      6          8           0       -1.465362   -0.592590    0.181803
      7          6           0       -1.330364    0.743594   -0.245775
      8          1           0       -0.067373    1.231244    1.434332
      9          1           0       -0.324540    2.552035    0.301501
     10          1           0       -1.274812    0.785065   -1.343147
     11          1           0        0.805209   -0.876436    1.449068
     12          1           0        1.599071   -1.939682    0.268946
     13          1           0       -0.325333   -1.421819   -1.333634
     14          1           0       -0.702742   -2.438620    0.068356
     15          1           0       -2.251140    1.240592    0.058673
 ---------------------------------------------------------------------

 SCF Done:  E(RHF) =  -343.999758748     A.U. after    2 cycles

 The electronic state is 1-A.
 Alpha  occ. eigenvalues --  -20.60489 -20.55944 -11.31016 -11.30367 -11.30085
 Alpha  occ. eigenvalues --  -11.29812 -11.23885  -1.53102  -1.48443  -1.07920
 Alpha  occ. eigenvalues --   -1.02631  -0.94478  -0.84497  -0.77472  -0.71993
 Alpha  occ. eigenvalues --   -0.69067  -0.68244  -0.64535  -0.63208  -0.59314
 Alpha  occ. eigenvalues --   -0.55811  -0.54506  -0.53176  -0.50850  -0.48337
 Alpha  occ. eigenvalues --   -0.42971  -0.33970
 Alpha virt. eigenvalues --    0.03300   0.03764   0.03821   0.04905   0.05953
 Alpha virt. eigenvalues --    0.06012   0.06404   0.09093   0.09510   0.10213
 Alpha virt. eigenvalues --    0.11927   0.12690   0.13464   0.13849   0.14894

 Mulliken charges:
               1
     1  C   -0.427963
     2  C    0.403398
     3  O   -1.123442
     4  C    0.471611
     5  C    0.424147
     6  O   -1.292058
     7  C    0.472099
     8  H    0.307323
     9  H    0.100704
    10  H    0.210122
    11  H    0.251778
    12  H   -0.017306
    13  H    0.241318
    14  H    0.004372
    15  H   -0.026103
 Sum of Mulliken charges =  -0.00000

 Dipole moment (field-independent basis, Debye):
    X=             -1.5200    Y=             -2.0062    Z=              1.1149  Tot=              2.7529

 Test job not archived.
 1\1\GINC-SE099\SP\RHF\Aug-CC-pVDZ\C5H8O2\OHZDE\09-Apr-2025\0\\#t hf au
 g-cc-pvdz iop(5/13=1,5/36=2,99/5=2) pseudo=read geom=check guess=(read
 ,tcheck) scf=(maxcycle=1)\\title\\0,1\C,0,-1.46438396,0.09089445,0.467
 912\C,0,-1.42300601,0.90398969,-0.80852078\O,0,-0.2452303,1.33321553,-
 1.14177469\C,0,0.98022639,1.11917228,-0.38269989\C,0,1.39193404,-0.333
 75189,-0.28928917\O,0,0.71300178,-1.05298683,0.70351662\C,0,-0.6633192
 1,-1.21570928,0.4472008\H,0,-1.12736925,0.704344,1.31539447\H,0,-2.511
 00511,-0.15440697,0.65054215\H,0,-0.81022806,-1.72996313,-0.51352377\H

 Normal termination of Gaussian 16 at Wed Apr  9 04:05:00 2025.
