 Gaussian 16, Revision C.01,

 ----------------------------------------------------------------------
 #t hf aug-cc-pvdz symm=none int=(grid=ultrafine) guess=(read,tcheck) s
 table=(opt,rrhf)
 ----------------------------------------------------------------------
 -----
 title
 -----
 Symbolic Z-matrix:
 Charge =  0 Multiplicity = 1

 SCF Done:  E(RHF) =  -338.643266831     A.U. after   15 cycles
 Normal termination of Gaussian 16 at Wed Apr  9 03:28:15 2025.
 Gaussian 16:  ES64L-G16RevC.01  3-Jul-2019

 ----------------------------------------------------------------------
 #t hf aug-cc-pvdz iop(5/13=1,5/36=2,99/5=2) pseudo=read geom=check gue
 ss=(read,tcheck) scf=(maxcycle=1)
 ----------------------------------------------------------------------
 -----
 title
 -----
 Structure from the checkpoint file:  "Grambow2020_wb97xd3_006692_forward_mol1.chk"
 Charge =  0 Multiplicity = 1

                         Standard orientation:
 ---------------------------------------------------------------------
 Center     Atomic      Atomic             Coordinates (Angstroms)
 Number     Number       Type             X           Y           Z
 ---------------------------------------------------------------------
      1          6           0       -2.384712   -0.072933    0.318389
      2          6           0       -0.937392   -0.066501   -0.114824
      3          6           0       -0.207544    1.094938    0.144717
      4          7           0        1.158533    1.301056   -0.440456
      5          6           0        1.494961    0.246217    0.038994
      6          7           0        1.868654   -0.930718    0.395099
      7          8           0       -0.466238   -1.097553   -0.663192
      8          1           0       -2.560691   -0.921018    0.981721
      9          1           0       -2.684036    0.847892    0.819162
     10          1           0       -3.008092   -0.213682   -0.566177
     11          1           0       -0.557962    1.925911    0.735492
     12          1           0        1.114759   -1.594920    0.118811
     13          1           0        2.443733   -1.066461    1.210365
 ---------------------------------------------------------------------

 SCF Done:  E(RHF) =  -338.994587363     A.U. after    2 cycles

 The electronic state is 1-A.
 Alpha  occ. eigenvalues --  -20.47938 -15.59527 -15.57509 -11.40911 -11.30578
 Alpha  occ. eigenvalues --  -11.25194 -11.22311  -1.41839  -1.35220  -1.29180
 Alpha  occ. eigenvalues --   -1.02487  -0.93370  -0.88404  -0.81701  -0.76976
 Alpha  occ. eigenvalues --   -0.69445  -0.67045  -0.64813  -0.59223  -0.58118
 Alpha  occ. eigenvalues --   -0.55787  -0.53618  -0.51148  -0.47626  -0.39402
 Alpha  occ. eigenvalues --   -0.31206
 Alpha virt. eigenvalues --    0.01815   0.04389   0.04844   0.05911   0.06465
 Alpha virt. eigenvalues --    0.07086   0.07884   0.09428   0.11155   0.11590
 Alpha virt. eigenvalues --    0.11922   0.12294   0.12773   0.13287   0.14972

 Mulliken charges:
               1
     1  C   -0.398662
     2  C    1.462810
     3  C   -0.468282
     4  N    0.906138
     5  C   -1.557103
     6  N    0.742093
     7  O   -1.650705
     8  H    0.193096
     9  H    0.141391
    10  H    0.233538
    11  H   -0.137226
    12  H    0.333462
    13  H    0.199450
 Sum of Mulliken charges =  -0.00000

 Dipole moment (field-independent basis, Debye):
    X=              2.2430    Y=             -0.7195    Z=              3.8542  Tot=              4.5170

 Test job not archived.
 1\1\GINC-SE402\SP\RHF\Aug-CC-pVDZ\C4H6N2O1\OHZDE\09-Apr-2025\0\\#t hf
 aug-cc-pvdz iop(5/13=1,5/36=2,99/5=2) pseudo=read geom=check guess=(re
 ad,tcheck) scf=(maxcycle=1)\\title\\0,1\C,0,-1.9487324,0.53773511,-0.2
 1765077\C,0,-0.54574393,0.13910172,0.17625684\C,0,-0.13216003,-1.14538
 854,-0.18153497\N,0,1.14337741,-1.72772187,0.3522907\C,0,1.72944314,-0
 .75786449,-0.06200928\N,0,2.38315103,0.31158618,-0.34586446\O,0,0.1730
 0362,0.97721316,0.7818416\H,0,-1.91197881,1.44910135,-0.81622198\H,0,-
 2.47314368,-0.24024152,-0.77265704\H,0,-2.50990109,0.76430708,0.690438

 Normal termination of Gaussian 16 at Wed Apr  9 03:28:19 2025.
