 Gaussian 16, Revision C.01,

 ----------------------------------------------------------------------
 #t hf aug-cc-pvdz symm=none int=(grid=ultrafine) guess=(read,tcheck) s
 table=(opt,rrhf)
 ----------------------------------------------------------------------
 -----
 title
 -----
 Symbolic Z-matrix:
 Charge =  0 Multiplicity = 1

 SCF Done:  E(RHF) =  -322.505609262     A.U. after   16 cycles
 Normal termination of Gaussian 16 at Wed Apr  9 03:39:33 2025.
 Gaussian 16:  ES64L-G16RevC.01  3-Jul-2019

 ----------------------------------------------------------------------
 #t hf aug-cc-pvdz iop(5/13=1,5/36=2,99/5=2) pseudo=read geom=check gue
 ss=(read,tcheck) scf=(maxcycle=1)
 ----------------------------------------------------------------------
 -----
 title
 -----
 Structure from the checkpoint file:  "Grambow2020_wb97xd3_007374_reverse_mol1.chk"
 Charge =  0 Multiplicity = 1

                         Standard orientation:
 ---------------------------------------------------------------------
 Center     Atomic      Atomic             Coordinates (Angstroms)
 Number     Number       Type             X           Y           Z
 ---------------------------------------------------------------------
      1          6           0       -1.612480   -0.092094    0.617361
      2          6           0       -0.974365    0.711211   -0.437265
      3          6           0        0.278573    1.330248   -0.229069
      4          8           0        1.418070    0.659563    0.061643
      5          6           0        1.404476   -0.684302    0.128908
      6          7           0        0.421410   -1.440183   -0.074373
      7          6           0       -0.868808   -0.956084   -0.280835
      8          1           0       -0.711751    0.851233    1.713286
      9          1           0       -2.690965   -0.202288    0.507295
     10          1           0       -1.599275    1.208648   -1.170224
     11          1           0       -0.166280    1.502656    1.602016
     12          1           0        0.520748    2.248814   -0.751926
     13          1           0        2.398531   -1.071940    0.314858
     14          1           0       -1.409818   -1.586222   -0.982438
 ---------------------------------------------------------------------

 SCF Done:  E(RHF) =  -322.835209089     A.U. after    2 cycles

 The electronic state is 1-A.
 Alpha  occ. eigenvalues --  -20.63703 -15.51646 -11.36661 -11.36529 -11.31634
 Alpha  occ. eigenvalues --  -11.26794 -11.22500  -1.58101  -1.27197  -1.15654
 Alpha  occ. eigenvalues --   -1.00476  -0.95957  -0.84192  -0.78340  -0.71875
 Alpha  occ. eigenvalues --   -0.71148  -0.68209  -0.66195  -0.63364  -0.59182
 Alpha  occ. eigenvalues --   -0.55745  -0.52084  -0.50166  -0.43597  -0.38905
 Alpha  occ. eigenvalues --   -0.30182
 Alpha virt. eigenvalues --    0.02994   0.03768   0.03885   0.05277   0.05522
 Alpha virt. eigenvalues --    0.05651   0.07194   0.08358   0.09512   0.10135
 Alpha virt. eigenvalues --    0.11631   0.12104   0.12649   0.13663   0.13878

 Mulliken charges:
               1
     1  C   -0.168873
     2  C    0.229637
     3  C    0.805042
     4  O   -1.247856
     5  C    0.237510
     6  N    0.876236
     7  C   -0.519469
     8  H    0.181832
     9  H   -0.073414
    10  H   -0.162818
    11  H    0.091433
    12  H   -0.039423
    13  H   -0.054533
    14  H   -0.155303
 Sum of Mulliken charges =  -0.00000

 Dipole moment (field-independent basis, Debye):
    X=              0.7453    Y=              1.3250    Z=             -2.5864  Tot=              3.0001

 Test job not archived.
 1\1\GINC-SE045\SP\RHF\Aug-CC-pVDZ\C5H7N1O1\OHZDE\09-Apr-2025\0\\#t hf
 aug-cc-pvdz iop(5/13=1,5/36=2,99/5=2) pseudo=read geom=check guess=(re
 ad,tcheck) scf=(maxcycle=1)\\title\\0,1\C,0,-1.43721962,-0.34660958,0.
 20641899\C,0,-0.60567121,0.4884758,-0.67442491\C,0,0.51625066,1.187569
 74,-0.17546184\O,0,1.58538614,0.59293137,0.40431318\C,0,1.6361605,-0.7
 4857067,0.49638498\N,0,0.78207172,-1.56698375,0.0723208\C,0,-0.4425500
 7,-1.16757872,-0.45910839\H,0,-0.89658695,0.65975582,1.47021233\H,0,-2
 .44555092,-0.52610798,-0.16564988\H,0,-1.05674323,0.93999461,-1.550696

 Normal termination of Gaussian 16 at Wed Apr  9 03:39:39 2025.
