 Gaussian 16, Revision C.01,

 ----------------------------------------------------------------------
 #t hf aug-cc-pvdz symm=none int=(grid=ultrafine) guess=(read,tcheck) s
 table=(opt,rrhf)
 ----------------------------------------------------------------------
 -----
 title
 -----
 Symbolic Z-matrix:
 Charge =  0 Multiplicity = 1

 SCF Done:  E(RHF) =  -338.585474246     A.U. after   16 cycles
 Normal termination of Gaussian 16 at Wed Apr  9 03:40:44 2025.
 Gaussian 16:  ES64L-G16RevC.01  3-Jul-2019

 ----------------------------------------------------------------------
 #t hf aug-cc-pvdz iop(5/13=1,5/36=2,99/5=2) pseudo=read geom=check gue
 ss=(read,tcheck) scf=(maxcycle=1)
 ----------------------------------------------------------------------
 -----
 title
 -----
 Structure from the checkpoint file:  "Grambow2020_wb97xd3_007488_reverse_mol1.chk"
 Charge =  0 Multiplicity = 1

                         Standard orientation:
 ---------------------------------------------------------------------
 Center     Atomic      Atomic             Coordinates (Angstroms)
 Number     Number       Type             X           Y           Z
 ---------------------------------------------------------------------
      1          6           0       -2.562396   -0.082944    0.500705
      2          8           0       -1.586516   -0.297963   -0.521235
      3          6           0       -0.300543    0.197647   -0.227056
      4          6           0        0.118650   -1.120983    0.061315
      5          7           0        2.573273   -0.743198    0.055323
      6          6           0        2.742895    0.372256    0.246525
      7          7           0        0.081888    1.391876   -0.165376
      8          1           0       -2.178657   -0.428537    1.461639
      9          1           0       -3.438713   -0.661532    0.217687
     10          1           0       -2.823488    0.975981    0.555895
     11          1           0        0.351522   -1.696008   -0.837233
     12          1           0        2.875596    1.416966    0.423720
     13          1           0       -0.671896    2.040235   -0.370390
 ---------------------------------------------------------------------

 SCF Done:  E(RHF) =  -338.923783550     A.U. after    2 cycles

 The electronic state is 1-A.
 Alpha  occ. eigenvalues --  -20.59819 -15.53129 -15.48996 -11.35774 -11.30712
 Alpha  occ. eigenvalues --  -11.30081 -11.29155  -1.52011  -1.25581  -1.21930
 Alpha  occ. eigenvalues --   -1.03088  -0.92803  -0.81061  -0.77324  -0.73941
 Alpha  occ. eigenvalues --   -0.68175  -0.65518  -0.62605  -0.61423  -0.56778
 Alpha  occ. eigenvalues --   -0.53637  -0.53385  -0.50238  -0.47836  -0.46803
 Alpha  occ. eigenvalues --   -0.37750
 Alpha virt. eigenvalues --    0.03288   0.04093   0.04734   0.05300   0.06209
 Alpha virt. eigenvalues --    0.06794   0.08596   0.09136   0.10001   0.10553
 Alpha virt. eigenvalues --    0.11529   0.12072   0.13369   0.14453   0.14697

 Mulliken charges:
               1
     1  C    0.173104
     2  O   -1.341956
     3  C    0.006409
     4  C   -0.282593
     5  N    0.702610
     6  C   -0.801773
     7  N    0.793535
     8  H    0.216617
     9  H    0.008914
    10  H    0.121457
    11  H    0.149214
    12  H    0.123931
    13  H    0.130529
 Sum of Mulliken charges =  -0.00000

 Dipole moment (field-independent basis, Debye):
    X=             -1.7805    Y=              2.8487    Z=              0.1562  Tot=              3.3630

 Test job not archived.
 1\1\GINC-SE143\SP\RHF\Aug-CC-pVDZ\C4H6N2O1\OHZDE\09-Apr-2025\0\\#t hf
 aug-cc-pvdz iop(5/13=1,5/36=2,99/5=2) pseudo=read geom=check guess=(re
 ad,tcheck) scf=(maxcycle=1)\\title\\0,1\C,0,-2.19258873,-0.37732575,-0
 .20701912\O,0,-1.24426215,0.27339691,0.64161058\C,0,0.10547113,0.00569
 109,0.33755536\C,0,0.19833317,1.27730719,-0.27239066\N,0,2.67182016,1.
 4389525,-0.42622724\C,0,3.08240483,0.37160032,-0.38442845\N,0,0.747126
 62,-1.06093978,0.50131829\H,0,-1.94390704,-0.19459448,-1.25336963\H,0,
 -3.16343982,0.0530241,0.02759462\H,0,-2.20730117,-1.45003849,-0.003035

 Normal termination of Gaussian 16 at Wed Apr  9 03:40:48 2025.
