 Gaussian 16, Revision C.01,

 ----------------------------------------------------------------------
 #t hf aug-cc-pvdz symm=none int=(grid=ultrafine) guess=(read,tcheck) s
 table=(opt,rrhf)
 ----------------------------------------------------------------------
 -----
 title
 -----
 Symbolic Z-matrix:
 Charge =  0 Multiplicity = 1

 SCF Done:  E(RHF) =  -320.646303307     A.U. after   15 cycles
 Normal termination of Gaussian 16 at Wed Apr  9 16:11:41 2025.
 Gaussian 16:  ES64L-G16RevC.01  3-Jul-2019

 ----------------------------------------------------------------------
 #t hf aug-cc-pvdz iop(5/13=1,5/36=2,99/5=2) pseudo=read geom=check gue
 ss=(read,tcheck) scf=(maxcycle=1)
 ----------------------------------------------------------------------
 -----
 title
 -----
 Structure from the checkpoint file:  "Grambow2020_b97d3_007147_reverse_mol2.chk"
 Charge =  0 Multiplicity = 1

                         Standard orientation:
 ---------------------------------------------------------------------
 Center     Atomic      Atomic             Coordinates (Angstroms)
 Number     Number       Type             X           Y           Z
 ---------------------------------------------------------------------
      1          8           0        1.476596   -1.276652   -0.044058
      2          6           0        0.545699   -0.507228   -0.007561
      3          7           0        0.779988    0.912582    0.294094
      4          6           0        0.301471    2.019090   -0.265577
      5          6           0       -1.870227   -0.158428    0.216300
      6          8           0       -0.715973   -0.871735   -0.290047
      7          1           0        1.610415    0.998302    0.889816
      8          1           0       -1.602620    0.528633    1.025997
      9          1           0       -0.516737    1.685481   -0.947539
     10          1           0       -2.344141    0.395467   -0.601727
     11          1           0       -2.553467   -0.929466    0.588667
 ---------------------------------------------------------------------

 SCF Done:  E(RHF) =  -320.962059606     A.U. after    2 cycles

 The electronic state is 1-A.
 Alpha  occ. eigenvalues --  -20.62022 -20.55987 -15.58953 -11.45217 -11.33282
 Alpha  occ. eigenvalues --  -11.29783  -1.56698  -1.48049  -1.28229  -1.01052
 Alpha  occ. eigenvalues --   -0.94746  -0.85672  -0.76600  -0.70908  -0.69370
 Alpha  occ. eigenvalues --   -0.65700  -0.63239  -0.60601  -0.55787  -0.53421
 Alpha  occ. eigenvalues --   -0.49893  -0.47144  -0.39050
 Alpha virt. eigenvalues --    0.02902   0.04249   0.04424   0.05231   0.06275
 Alpha virt. eigenvalues --    0.07508   0.08946   0.10056   0.10840   0.12122
 Alpha virt. eigenvalues --    0.14019   0.14441   0.14744   0.15429   0.15827

 Mulliken charges:
               1
     1  O   -1.096705
     2  C    1.410759
     3  N    0.567577
     4  C   -0.628111
     5  C    0.206129
     6  O   -1.173133
     7  H    0.172881
     8  H    0.216314
     9  H    0.126022
    10  H    0.160811
    11  H    0.037457
 Sum of Mulliken charges =  -0.00000

 Dipole moment (field-independent basis, Debye):
    X=             -3.1595    Y=              0.4264    Z=              1.0907  Tot=              3.3696

 Test job not archived.
 1\1\GINC-SE114\SP\RHF\Aug-CC-pVDZ\C3H5N1O2\OHZDE\09-Apr-2025\0\\#t hf
 aug-cc-pvdz iop(5/13=1,5/36=2,99/5=2) pseudo=read geom=check guess=(re
 ad,tcheck) scf=(maxcycle=1)\\title\\0,1\O,0,2.4628428,0.07807104,-0.09
 11522\C,0,1.25671673,0.0524488,-0.0239355\N,0,0.57985483,-1.11663594,0
 .55645045\C,0,-0.42846245,-1.20891332,1.41746705\C,0,-0.89934761,0.912
 6733,-0.81125485\O,0,0.48090133,1.08038954,-0.40593934\H,0,1.15733662,
 -1.95051286,0.40477513\H,0,-1.1439437,-0.13753575,-1.00233153\H,0,-0.8
 4317789,-0.17694138,1.51168304\H,0,-1.55890213,1.31389988,-0.03371649\

 Normal termination of Gaussian 16 at Wed Apr  9 16:11:45 2025.
