 Gaussian 16, Revision C.01,

 ----------------------------------------------------------------------
 #t hf aug-cc-pvdz symm=none int=(grid=ultrafine) guess=(read,tcheck) s
 table=(opt,rrhf)
 ----------------------------------------------------------------------
 -----
 title
 -----
 Symbolic Z-matrix:
 Charge =  0 Multiplicity = 1

 SCF Done:  E(RHF) =  -245.651691727     A.U. after   15 cycles
 Normal termination of Gaussian 16 at Wed Apr  9 16:18:40 2025.
 Gaussian 16:  ES64L-G16RevC.01  3-Jul-2019

 ----------------------------------------------------------------------
 #t hf aug-cc-pvdz iop(5/13=1,5/36=2,99/5=2) pseudo=read geom=check gue
 ss=(read,tcheck) scf=(maxcycle=1)
 ----------------------------------------------------------------------
 -----
 title
 -----
 Structure from the checkpoint file:  "Grambow2020_b97d3_007203_forward_mol1.chk"
 Charge =  0 Multiplicity = 1

                         Standard orientation:
 ---------------------------------------------------------------------
 Center     Atomic      Atomic             Coordinates (Angstroms)
 Number     Number       Type             X           Y           Z
 ---------------------------------------------------------------------
      1          8           0       -1.589141   -0.558451    0.081505
      2          6           0       -1.057261    0.674104    0.029014
      3          6           0        0.388800    0.719553   -0.250696
      4          6           0        1.239689   -0.110095    0.690856
      5          7           0        1.068900   -0.520751   -0.688655
      6          1           0       -2.277050    0.372982    0.269134
      7          1           0        0.798257    1.655970   -0.627985
      8          1           0        2.221304    0.287629    0.953503
      9          1           0        0.717472   -0.651982    1.482813
     10          1           0        0.343484   -1.253105   -0.723969
 ---------------------------------------------------------------------

 SCF Done:  E(RHF) =  -245.905258271     A.U. after    2 cycles

 The electronic state is 1-A.
 Alpha  occ. eigenvalues --  -20.59505 -15.52495 -11.34383 -11.29536 -11.28541
 Alpha  occ. eigenvalues --   -1.50268  -1.28406  -0.96289  -0.89772  -0.79226
 Alpha  occ. eigenvalues --   -0.76305  -0.68860  -0.63582  -0.57777  -0.55543
 Alpha  occ. eigenvalues --   -0.53975  -0.51790  -0.43587  -0.37560
 Alpha virt. eigenvalues --    0.03776   0.04260   0.04657   0.05880   0.06080
 Alpha virt. eigenvalues --    0.07855   0.09980   0.10205   0.12060   0.12457
 Alpha virt. eigenvalues --    0.14180   0.14664   0.15725   0.16187   0.17555

 Mulliken charges:
               1
     1  O   -1.134720
     2  C    0.144573
     3  C   -0.040594
     4  C    0.064651
     5  N    0.322629
     6  H    0.588467
     7  H   -0.105813
     8  H   -0.025679
     9  H   -0.040086
    10  H    0.226572
 Sum of Mulliken charges =   0.00000

 Dipole moment (field-independent basis, Debye):
    X=             -0.1344    Y=              0.6885    Z=              1.4703  Tot=              1.6291

 Test job not archived.
 1\1\GINC-SE041\SP\RHF\Aug-CC-pVDZ\C3H5N1O1\OHZDE\09-Apr-2025\0\\#t hf
 aug-cc-pvdz iop(5/13=1,5/36=2,99/5=2) pseudo=read geom=check guess=(re
 ad,tcheck) scf=(maxcycle=1)\\title\\0,1\O,0,1.24714363,-0.349842,1.375
 17629\C,0,1.32306547,-0.41053466,0.03525261\C,0,0.22805092,0.26388823,
 -0.68411689\C,0,-1.16263173,-0.18529062,-0.28027466\N,0,-0.6925955,1.1
 3819905,0.0779122\H,0,2.13787722,-0.92673269,0.87539511\H,0,0.4021616,
 0.53366693,-1.72516651\H,0,-1.91825468,-0.22802863,-1.06636839\H,0,-1.
 22952848,-0.95934861,0.48777967\H,0,-0.37022745,1.11627799,1.05740956\

 Normal termination of Gaussian 16 at Wed Apr  9 16:18:43 2025.
