 Gaussian 16, Revision C.01,

 ----------------------------------------------------------------------
 #t hf aug-cc-pvdz symm=none int=(grid=ultrafine) guess=(read,tcheck) s
 table=(opt,rrhf)
 ----------------------------------------------------------------------
 -----
 title
 -----
 Symbolic Z-matrix:
 Charge =  0 Multiplicity = 1

 SCF Done:  E(RHF) =  -302.747615216     A.U. after   17 cycles
 Normal termination of Gaussian 16 at Wed Apr  9 19:13:07 2025.
 Gaussian 16:  ES64L-G16RevC.01  3-Jul-2019

 ----------------------------------------------------------------------
 #t hf aug-cc-pvdz iop(5/13=1,5/36=2,99/5=2) pseudo=read geom=check gue
 ss=(read,tcheck) scf=(maxcycle=1)
 ----------------------------------------------------------------------
 -----
 title
 -----
 Structure from the checkpoint file:  "Grambow2020_wb97xd3_008909_forward_mol1.chk"
 Charge =  0 Multiplicity = 1

                         Standard orientation:
 ---------------------------------------------------------------------
 Center     Atomic      Atomic             Coordinates (Angstroms)
 Number     Number       Type             X           Y           Z
 ---------------------------------------------------------------------
      1          6           0        2.006850   -0.560729   -0.163662
      2          7           0        0.611970   -0.511415   -0.536161
      3          6           0       -0.340489   -1.116379    0.520501
      4          6           0       -1.687719   -0.757794    0.209197
      5          6           0       -1.585712    0.405132   -0.492336
      6          6           0       -0.118428    0.575297   -0.184376
      7          7           0        0.366373    1.701759    0.362730
      8          1           0        2.196842   -0.275056    0.883533
      9          1           0        2.365833   -1.581199   -0.295354
     10          1           0        2.576432    0.096550   -0.823149
     11          1           0        0.114327   -1.379439    1.465245
     12          1           0       -2.574823   -1.328353    0.465586
     13          1           0       -2.137192    0.808674   -1.331201
     14          1           0        1.280462    1.711997    0.781553
     15          1           0       -0.317291    2.341263    0.731864
 ---------------------------------------------------------------------

 SCF Done:  E(RHF) =  -303.067734738     A.U. after    2 cycles

 The electronic state is 1-A.
 Alpha  occ. eigenvalues --  -15.54837 -15.52154 -11.36197 -11.27045 -11.25321
 Alpha  occ. eigenvalues --  -11.21904 -11.20120  -1.32514  -1.22214  -1.09596
 Alpha  occ. eigenvalues --   -0.95972  -0.90388  -0.81927  -0.79359  -0.75082
 Alpha  occ. eigenvalues --   -0.70973  -0.65190  -0.64265  -0.61579  -0.56032
 Alpha  occ. eigenvalues --   -0.54912  -0.53853  -0.51790  -0.46640  -0.37935
 Alpha  occ. eigenvalues --   -0.24148
 Alpha virt. eigenvalues --    0.02667   0.04329   0.04819   0.04865   0.05085
 Alpha virt. eigenvalues --    0.05638   0.06349   0.07891   0.10290   0.11148
 Alpha virt. eigenvalues --    0.11329   0.12282   0.13591   0.13851   0.15139

 Mulliken charges:
               1
     1  C   -0.351925
     2  N    0.790762
     3  C   -0.041974
     4  C    0.629618
     5  C    0.430894
     6  C   -2.569258
     7  N    0.878879
     8  H    0.204453
     9  H    0.046499
    10  H    0.044854
    11  H   -0.267656
    12  H   -0.036121
    13  H   -0.118603
    14  H    0.157613
    15  H    0.201964
 Sum of Mulliken charges =  -0.00000

 Dipole moment (field-independent basis, Debye):
    X=              2.0116    Y=              2.4179    Z=              1.8020  Tot=              3.6249

 Test job not archived.
 1\1\GINC-SE145\SP\RHF\Aug-CC-pVDZ\C5H8N2\OHZDE\09-Apr-2025\0\\#t hf au
 g-cc-pvdz iop(5/13=1,5/36=2,99/5=2) pseudo=read geom=check guess=(read
 ,tcheck) scf=(maxcycle=1)\\title\\0,1\C,0,-1.31416542,-1.14420806,0.82
 340511\N,0,-0.06954961,-0.4111307,0.80321818\C,0,0.91000883,-0.8699380
 6,-0.30116144\C,0,1.96039303,0.08880626,-0.43542115\C,0,1.41764329,1.2
 6265045,-0.00826192\C,0,0.01536941,0.70787471,0.04243361\N,0,-1.006035
 4,1.2996914,-0.59769101\H,0,-1.74895866,-1.30794035,-0.17582942\H,0,-1
 .13369529,-2.12319171,1.26679312\H,0,-2.03463192,-0.60837772,1.4440297

 Normal termination of Gaussian 16 at Wed Apr  9 19:13:12 2025.
