 Gaussian 16, Revision C.01,

 ----------------------------------------------------------------------
 #t hf aug-cc-pvdz symm=none int=(grid=ultrafine) guess=(read,tcheck) s
 table=(opt,rrhf)
 ----------------------------------------------------------------------
 -----
 title
 -----
 Symbolic Z-matrix:
 Charge =  0 Multiplicity = 1

 SCF Done:  E(RHF) =  -342.396128117     A.U. after   16 cycles
 Normal termination of Gaussian 16 at Wed Apr  9 19:04:51 2025.
 Gaussian 16:  ES64L-G16RevC.01  3-Jul-2019

 ----------------------------------------------------------------------
 #t hf aug-cc-pvdz iop(5/13=1,5/36=2,99/5=2) pseudo=read geom=check gue
 ss=(read,tcheck) scf=(maxcycle=1)
 ----------------------------------------------------------------------
 -----
 title
 -----
 Structure from the checkpoint file:  "Grambow2020_wb97xd3_008523_forward_mol1.chk"
 Charge =  0 Multiplicity = 1

                         Standard orientation:
 ---------------------------------------------------------------------
 Center     Atomic      Atomic             Coordinates (Angstroms)
 Number     Number       Type             X           Y           Z
 ---------------------------------------------------------------------
      1          8           0        2.173091    0.128207   -0.182435
      2          6           0        0.988066   -0.069623   -0.143436
      3          6           0        0.203998   -1.108104    0.548868
      4          8           0       -1.010131   -1.224018   -0.115257
      5          6           0       -1.289617   -0.027712   -0.560471
      6          6           0       -0.717418    1.258010    0.786420
      7          6           0       -0.135874    0.866394   -0.588147
      8          1           0       -0.390574   -0.011262    1.314900
      9          1           0        0.595178   -2.046099    0.913117
     10          1           0       -2.283620    0.140113   -0.948583
     11          1           0        0.024608    1.674764    1.471492
     12          1           0       -1.591255    1.902214    0.741679
     13          1           0        0.047047    1.592970   -1.370474
 ---------------------------------------------------------------------

 SCF Done:  E(RHF) =  -342.742496347     A.U. after    2 cycles

 The electronic state is 1-A.
 Alpha  occ. eigenvalues --  -20.64090 -20.53061 -11.38071 -11.34442 -11.28711
 Alpha  occ. eigenvalues --  -11.27696 -11.25737  -1.59253  -1.46975  -1.15854
 Alpha  occ. eigenvalues --   -1.02923  -0.90553  -0.84101  -0.80812  -0.75676
 Alpha  occ. eigenvalues --   -0.69729  -0.65588  -0.64013  -0.62154  -0.60626
 Alpha  occ. eigenvalues --   -0.57965  -0.53608  -0.50612  -0.45736  -0.39907
 Alpha  occ. eigenvalues --   -0.31907
 Alpha virt. eigenvalues --    0.02489   0.03808   0.04017   0.04359   0.06286
 Alpha virt. eigenvalues --    0.07350   0.07802   0.09405   0.09683   0.11822
 Alpha virt. eigenvalues --    0.12476   0.13342   0.13753   0.14307   0.14466

 Mulliken charges:
               1
     1  O   -1.466161
     2  C    1.426436
     3  C    0.216217
     4  O   -1.304610
     5  C    1.082633
     6  C   -0.430138
     7  C    0.018661
     8  H    0.815545
     9  H   -0.068000
    10  H   -0.080712
    11  H    0.007629
    12  H   -0.122392
    13  H   -0.095107
 Sum of Mulliken charges =  -0.00000

 Dipole moment (field-independent basis, Debye):
    X=             -3.8632    Y=              0.5447    Z=             -1.0405  Tot=              4.0377

 Test job not archived.
 1\1\GINC-SE226\SP\RHF\Aug-CC-pVDZ\C5H6O2\OHZDE\09-Apr-2025\0\\#t hf au
 g-cc-pvdz iop(5/13=1,5/36=2,99/5=2) pseudo=read geom=check guess=(read
 ,tcheck) scf=(maxcycle=1)\\title\\0,1\O,0,1.17781971,1.99182944,0.8046
 0607\C,0,0.7622966,1.0424007,0.19561741\C,0,1.43636584,-0.19038364,-0.
 24976284\O,0,0.70879983,-0.69931274,-1.31758563\C,0,-0.53776643,-0.385
 85164,-1.0824453\C,0,-0.84325882,-0.55464968,0.83400692\C,0,-0.6934956
 1,0.67266797,-0.08916871\H,0,0.51286023,-0.90016796,0.63721354\H,0,2.5
 0403877,-0.31728954,-0.34724411\H,0,-1.29323157,-0.84848274,-1.7005742

 Normal termination of Gaussian 16 at Wed Apr  9 19:04:55 2025.
