 Gaussian 16, Revision C.01,

 ----------------------------------------------------------------------
 #t hf aug-cc-pvdz symm=none int=(grid=ultrafine) guess=(read,tcheck) s
 table=(opt,rrhf)
 ----------------------------------------------------------------------
 -----
 title
 -----
 Symbolic Z-matrix:
 Charge =  0 Multiplicity = 1

 SCF Done:  E(RHF) =  -306.677197865     A.U. after   15 cycles
 Normal termination of Gaussian 16 at Wed Apr  9 19:19:08 2025.
 Gaussian 16:  ES64L-G16RevC.01  3-Jul-2019

 ----------------------------------------------------------------------
 #t hf aug-cc-pvdz iop(5/13=1,5/36=2,99/5=2) pseudo=read geom=check gue
 ss=(read,tcheck) scf=(maxcycle=1)
 ----------------------------------------------------------------------
 -----
 title
 -----
 Structure from the checkpoint file:  "Grambow2020_wb97xd3_009289_reverse_mol2.chk"
 Charge =  0 Multiplicity = 1

                         Standard orientation:
 ---------------------------------------------------------------------
 Center     Atomic      Atomic             Coordinates (Angstroms)
 Number     Number       Type             X           Y           Z
 ---------------------------------------------------------------------
      1          6           0       -2.211517   -0.288620   -0.021992
      2          6           0       -0.826062    0.293598   -0.008545
      3          6           0       -0.746621    1.789124    0.020511
      4          6           0        0.265909   -0.480498    0.000512
      5          8           0        0.259518   -1.848396    0.011498
      6          6           0        1.601948    0.038316   -0.004602
      7          6           0        2.724422    0.457184   -0.013550
      8          1           0       -2.878468    0.345875   -0.608872
      9          1           0       -2.632752   -0.345818    0.986770
     10          1           0       -2.265529   -1.286287   -0.465053
     11          1           0       -0.644842   -2.157098    0.099421
     12          1           0       -1.204427    2.215725   -0.877029
     13          1           0       -1.299202    2.184408    0.878472
     14          1           0        0.279583    2.145431    0.082767
     15          1           0        3.721019    0.830310   -0.022455
 ---------------------------------------------------------------------

 SCF Done:  E(RHF) =  -306.997261762     A.U. after    2 cycles

 The electronic state is 1-A.
 Alpha  occ. eigenvalues --  -20.57524 -11.31372 -11.24849 -11.24790 -11.24562
 Alpha  occ. eigenvalues --  -11.23978 -11.23358  -1.49167  -1.11167  -1.04173
 Alpha  occ. eigenvalues --   -0.96061  -0.94334  -0.82253  -0.73339  -0.69237
 Alpha  occ. eigenvalues --   -0.67471  -0.62141  -0.59145  -0.57051  -0.56328
 Alpha  occ. eigenvalues --   -0.55608  -0.53277  -0.51696  -0.43489  -0.41164
 Alpha  occ. eigenvalues --   -0.32188
 Alpha virt. eigenvalues --    0.03179   0.03766   0.04058   0.04410   0.05426
 Alpha virt. eigenvalues --    0.07009   0.07355   0.08837   0.09490   0.10181
 Alpha virt. eigenvalues --    0.11021   0.12801   0.13729   0.13820   0.14439

 Mulliken charges:
               1
     1  C   -0.494365
     2  C    0.135756
     3  C   -0.736508
     4  C    1.338017
     5  O   -1.674657
     6  C    0.279396
     7  C    0.054756
     8  H    0.151574
     9  H    0.272198
    10  H    0.105803
    11  H    0.330705
    12  H    0.243454
    13  H    0.259462
    14  H    0.152200
    15  H   -0.417790
 Sum of Mulliken charges =  -0.00000

 Dipole moment (field-independent basis, Debye):
    X=             -1.9846    Y=              0.8183    Z=              0.1363  Tot=              2.1510

 Test job not archived.
 1\1\GINC-SE174\SP\RHF\Aug-CC-pVDZ\C6H8O1\OHZDE\09-Apr-2025\0\\#t hf au
 g-cc-pvdz iop(5/13=1,5/36=2,99/5=2) pseudo=read geom=check guess=(read
 ,tcheck) scf=(maxcycle=1)\\title\\0,1\C,0,-1.49369299,0.48157941,-1.12
 204928\C,0,-0.42441027,0.11231271,-0.13264428\C,0,-0.83711634,-0.83559
 188,0.9512854\C,0,0.82390026,0.58522416,-0.23155296\O,0,1.27131754,1.4
 2279248,-1.21623804\C,0,1.864372,0.26971159,0.70228986\C,0,2.74291571,
 0.01881264,1.47733162\H,0,-2.46077874,0.54946847,-0.62008091\H,0,-1.59
 445321,-0.27605903,-1.90572145\H,0,-1.32964559,1.4468054,-1.6078327\H,

 Normal termination of Gaussian 16 at Wed Apr  9 19:19:13 2025.
