 Gaussian 16, Revision C.01,

 ----------------------------------------------------------------------
 #t hf aug-cc-pvdz symm=none int=(grid=ultrafine) guess=(read,tcheck) s
 table=(opt,rrhf)
 ----------------------------------------------------------------------
 -----
 title
 -----
 Symbolic Z-matrix:
 Charge =  0 Multiplicity = 1

 SCF Done:  E(RHF) =  -325.084331334     A.U. after   13 cycles
 Normal termination of Gaussian 16 at Wed Apr  9 18:50:01 2025.
 Gaussian 16:  ES64L-G16RevC.01  3-Jul-2019

 ----------------------------------------------------------------------
 #t hf aug-cc-pvdz iop(5/13=1,5/36=2,99/5=2) pseudo=read geom=check gue
 ss=(read,tcheck) scf=(maxcycle=1)
 ----------------------------------------------------------------------
 -----
 title
 -----
 Structure from the checkpoint file:  "Grambow2020_wb97xd3_008102_reverse_mol2.chk"
 Charge =  0 Multiplicity = 1

                         Standard orientation:
 ---------------------------------------------------------------------
 Center     Atomic      Atomic             Coordinates (Angstroms)
 Number     Number       Type             X           Y           Z
 ---------------------------------------------------------------------
      1          6           0        2.851387    0.018954    0.692879
      2          6           0        2.905850    0.014489   -0.629893
      3          7           0       -0.530036    0.685477   -0.081125
      4          6           0       -1.366701    1.858743    0.006767
      5          6           0       -0.943588   -0.606535   -0.024975
      6          8           0       -0.148865   -1.528913   -0.046229
      7          6           0       -2.435209   -0.833534    0.056651
      8          1           0        3.495024    0.656600    1.289027
      9          1           0        2.161809   -0.631731    1.219664
     10          1           0        0.471711    0.802533   -0.094384
     11          1           0        2.260378   -0.638804   -1.207062
     12          1           0        3.595264    0.649450   -1.175488
     13          1           0       -0.752298    2.736554   -0.185689
     14          1           0       -2.163490    1.843631   -0.739567
     15          1           0       -1.820679    1.977281    0.995314
     16          1           0       -2.617067   -1.902662    0.117684
     17          1           0       -2.939572   -0.431151   -0.824202
     18          1           0       -2.860337   -0.341439    0.933841
 ---------------------------------------------------------------------

 SCF Done:  E(RHF) =  -325.429753287     A.U. after    2 cycles

 The electronic state is 1-A.
 Alpha  occ. eigenvalues --  -20.49756 -15.51581 -11.35023 -11.28115 -11.24327
 Alpha  occ. eigenvalues --  -11.23298 -11.23152  -1.45008  -1.23705  -1.03368
 Alpha  occ. eigenvalues --   -1.01282  -0.96990  -0.80867  -0.78635  -0.69959
 Alpha  occ. eigenvalues --   -0.68259  -0.65631  -0.64482  -0.59357  -0.58903
 Alpha  occ. eigenvalues --   -0.58649  -0.56884  -0.56702  -0.52444  -0.50280
 Alpha  occ. eigenvalues --   -0.41621  -0.40743  -0.38186
 Alpha virt. eigenvalues --    0.03043   0.03986   0.04453   0.04649   0.05197
 Alpha virt. eigenvalues --    0.05915   0.06425   0.06786   0.07549   0.08547
 Alpha virt. eigenvalues --    0.09362   0.10512   0.11773   0.13128   0.13912

 Mulliken charges:
               1
     1  C    0.049881
     2  C    0.071891
     3  N    0.855325
     4  C   -0.465457
     5  C    0.375801
     6  O   -1.298549
     7  C   -0.545997
     8  H   -0.063775
     9  H   -0.020378
    10  H    0.214845
    11  H   -0.024403
    12  H   -0.063704
    13  H   -0.016284
    14  H    0.160540
    15  H    0.159298
    16  H    0.051270
    17  H    0.274744
    18  H    0.284953
 Sum of Mulliken charges =  -0.00000

 Dipole moment (field-independent basis, Debye):
    X=             -2.0568    Y=              3.3432    Z=              0.1578  Tot=              3.9284

 Test job not archived.
 1\1\GINC-SE115\SP\RHF\Aug-CC-pVDZ\C5H11N1O1\OHZDE\09-Apr-2025\0\\#t hf
  aug-cc-pvdz iop(5/13=1,5/36=2,99/5=2) pseudo=read geom=check guess=(r
 ead,tcheck) scf=(maxcycle=1)\\title\\0,1\C,0,-2.82286843,0.27311116,-0
 .90127123\C,0,-2.86601103,-0.92220054,-0.33375087\N,0,0.4115435,0.1269
 3368,0.5110219\C,0,1.04635202,0.77658257,1.63319023\C,0,1.02855992,-0.
 34740802,-0.60152654\O,0,0.3939859,-0.82575359,-1.5241957\C,0,2.536598
 98,-0.256144,-0.62627779\H,0,-3.56575694,1.03395665,-0.68800024\H,0,-2
 .04091742,0.51971876,-1.61130628\H,0,-0.5958053,0.08774817,0.47802865\

 Normal termination of Gaussian 16 at Wed Apr  9 18:50:08 2025.
