 Gaussian 16, Revision C.01,

 ----------------------------------------------------------------------
 #t hf aug-cc-pvdz symm=none int=(grid=ultrafine) guess=(read,tcheck) s
 table=(opt,rrhf)
 ----------------------------------------------------------------------
 -----
 title
 -----
 Symbolic Z-matrix:
 Charge =  0 Multiplicity = 1

 SCF Done:  E(RHF) =  -317.595456691     A.U. after   16 cycles
 Normal termination of Gaussian 16 at Wed Apr  9 19:14:45 2025.
 Gaussian 16:  ES64L-G16RevC.01  3-Jul-2019

 ----------------------------------------------------------------------
 #t hf aug-cc-pvdz iop(5/13=1,5/36=2,99/5=2) pseudo=read geom=check gue
 ss=(read,tcheck) scf=(maxcycle=1)
 ----------------------------------------------------------------------
 -----
 title
 -----
 Structure from the checkpoint file:  "Grambow2020_wb97xd3_008976_reverse_mol1.chk"
 Charge =  0 Multiplicity = 1

                         Standard orientation:
 ---------------------------------------------------------------------
 Center     Atomic      Atomic             Coordinates (Angstroms)
 Number     Number       Type             X           Y           Z
 ---------------------------------------------------------------------
      1          7           0        2.277626   -0.014843   -0.081023
      2          6           0        0.892864   -0.037852   -0.011170
      3          6           0        0.149343    1.164600   -0.014167
      4          7           0       -1.158923    1.251492    0.051775
      5          6           0       -1.863764    0.096852   -0.037451
      6          7           0       -1.181393   -1.086336   -0.075425
      7          6           0        0.154583   -1.195439    0.036576
      8          1           0        2.711575    0.832821    0.244310
      9          1           0        2.747841   -0.839076    0.253584
     10          1           0        0.698885    2.106593   -0.025056
     11          1           0       -2.307539   -1.135889    0.303705
     12          1           0        0.589919   -2.185607    0.113433
 ---------------------------------------------------------------------

 SCF Done:  E(RHF) =  -317.918755916     A.U. after    2 cycles

 The electronic state is 1-A.
 Alpha  occ. eigenvalues --  -15.54050 -15.53175 -15.50580 -11.30845 -11.30747
 Alpha  occ. eigenvalues --  -11.30346 -11.27520  -1.32155  -1.24306  -1.20771
 Alpha  occ. eigenvalues --   -1.06786  -0.94592  -0.90098  -0.80108  -0.76092
 Alpha  occ. eigenvalues --   -0.71433  -0.68992  -0.63578  -0.61941  -0.59648
 Alpha  occ. eigenvalues --   -0.54721  -0.47602  -0.45485  -0.37280  -0.35141
 Alpha virt. eigenvalues --    0.02131   0.03637   0.04342   0.04599   0.06178
 Alpha virt. eigenvalues --    0.07260   0.09362   0.09468   0.09894   0.10931
 Alpha virt. eigenvalues --    0.11466   0.12429   0.12843   0.13432   0.14082

 Mulliken charges:
               1
     1  N    0.675642
     2  C   -0.583564
     3  C   -0.538976
     4  N    0.771336
     5  C   -0.986622
     6  N    0.510859
     7  C   -0.198336
     8  H    0.038550
     9  H    0.046251
    10  H   -0.109058
    11  H    0.505906
    12  H   -0.131988
 Sum of Mulliken charges =  -0.00000

 Dipole moment (field-independent basis, Debye):
    X=              5.1816    Y=             -1.8570    Z=              1.5352  Tot=              5.7144

 Test job not archived.
 1\1\GINC-SE104\SP\RHF\Aug-CC-pVDZ\C4H5N3\OHZDE\09-Apr-2025\0\\#t hf au
 g-cc-pvdz iop(5/13=1,5/36=2,99/5=2) pseudo=read geom=check guess=(read
 ,tcheck) scf=(maxcycle=1)\\title\\0,1\N,0,-1.9769443,-0.04650359,0.158
 29413\C,0,-0.59306674,-0.00312298,0.08100349\C,0,0.09242113,1.2333151,
 0.08806377\N,0,1.39468511,1.38280436,0.01581497\C,0,2.15413687,0.26247
 974,0.09366848\N,0,1.52904205,-0.95206718,0.12738238\C,0,0.199164,-1.1
 2392598,0.0216936\H,0,-2.45252945,0.78159943,-0.15911924\H,0,-2.409278
 52,-0.89003596,-0.17929356\H,0,-0.50123753,2.14799247,0.10809481\H,0,2

 Normal termination of Gaussian 16 at Wed Apr  9 19:14:50 2025.
