 Gaussian 16, Revision C.01,

 ----------------------------------------------------------------------
 #t hf aug-cc-pvdz symm=none int=(grid=ultrafine) guess=(read,tcheck) s
 table=(opt,rrhf)
 ----------------------------------------------------------------------
 -----
 title
 -----
 Symbolic Z-matrix:
 Charge =  0 Multiplicity = 1

 SCF Done:  E(RHF) =  -358.533934340     A.U. after   15 cycles
 Normal termination of Gaussian 16 at Wed Apr  9 03:40:15 2025.
 Gaussian 16:  ES64L-G16RevC.01  3-Jul-2019

 ----------------------------------------------------------------------
 #t hf aug-cc-pvdz iop(5/13=1,5/36=2,99/5=2) pseudo=read geom=check gue
 ss=(read,tcheck) scf=(maxcycle=1)
 ----------------------------------------------------------------------
 -----
 title
 -----
 Structure from the checkpoint file:  "Grambow2020_wb97xd3_007447_forward_mol2.chk"
 Charge =  0 Multiplicity = 1

                         Standard orientation:
 ---------------------------------------------------------------------
 Center     Atomic      Atomic             Coordinates (Angstroms)
 Number     Number       Type             X           Y           Z
 ---------------------------------------------------------------------
      1          8           0       -2.458820   -0.453061   -0.053183
      2          6           0       -1.611478    0.659501    0.035901
      3          6           0       -0.159144    0.297545    0.003330
      4          7           0        0.189560   -0.954828    0.015493
      5          8           0        1.559500   -0.982367    0.005678
      6          6           0        2.009933    0.272262   -0.012699
      7          6           0        0.982507    1.145504   -0.014484
      8          1           0       -1.932548   -1.246754    0.085625
      9          1           0       -1.827888    1.337275   -0.796428
     10          1           0       -1.804638    1.216977    0.962117
     11          1           0        3.081741    0.389747   -0.024105
     12          1           0        1.020071    2.221104   -0.027905
 ---------------------------------------------------------------------

 SCF Done:  E(RHF) =  -358.895519542     A.U. after    2 cycles

 The electronic state is 1-A.
 Alpha  occ. eigenvalues --  -20.64288 -20.55036 -15.56681 -11.33425 -11.30858
 Alpha  occ. eigenvalues --  -11.29825 -11.25730  -1.59684  -1.46048  -1.20606
 Alpha  occ. eigenvalues --   -1.09523  -0.97925  -0.86967  -0.80686  -0.76951
 Alpha  occ. eigenvalues --   -0.69324  -0.67533  -0.64701  -0.64266  -0.61780
 Alpha  occ. eigenvalues --   -0.58122  -0.53178  -0.52091  -0.46588  -0.43149
 Alpha  occ. eigenvalues --   -0.40069
 Alpha virt. eigenvalues --    0.02819   0.03628   0.04826   0.05170   0.06561
 Alpha virt. eigenvalues --    0.08472   0.08642   0.09882   0.12151   0.12553
 Alpha virt. eigenvalues --    0.12873   0.13399   0.13951   0.14534   0.15477

 Mulliken charges:
               1
     1  O   -1.238804
     2  C    1.024199
     3  C   -1.477391
     4  N    1.551044
     5  O   -1.609805
     6  C    0.832522
     7  C    0.401366
     8  H    0.341782
     9  H    0.191921
    10  H    0.223472
    11  H   -0.070165
    12  H   -0.170141
 Sum of Mulliken charges =  -0.00000

 Dipole moment (field-independent basis, Debye):
    X=              2.5855    Y=              3.3849    Z=              0.2472  Tot=              4.2666

 Test job not archived.
 1\1\GINC-SE165\SP\RHF\Aug-CC-pVDZ\C4H5N1O2\OHZDE\09-Apr-2025\0\\#t hf
 aug-cc-pvdz iop(5/13=1,5/36=2,99/5=2) pseudo=read geom=check guess=(re
 ad,tcheck) scf=(maxcycle=1)\\title\\0,1\O,0,-2.38792974,0.6364614,-0.4
 0666861\C,0,-1.52556226,-0.35510158,0.07999805\C,0,-0.08065147,0.02718
 783,-0.00621209\N,0,0.25511225,1.13351667,-0.60075325\O,0,1.62239934,1
 .20836241,-0.55060499\C,0,2.08439138,0.12982807,0.08236365\C,0,1.06739
 81,-0.6710901,0.45973797\H,0,-1.8635761,1.28540657,-0.88635793\H,0,-1.
 77711725,-0.56150318,1.12551259\H,0,-1.66531582,-1.29253342,-0.4746711

 Normal termination of Gaussian 16 at Wed Apr  9 03:40:20 2025.
