 Gaussian 16, Revision C.01,

 ----------------------------------------------------------------------
 #t hf aug-cc-pvdz symm=none int=(grid=ultrafine) guess=(read,tcheck) s
 table=(opt,rrhf)
 ----------------------------------------------------------------------
 -----
 title
 -----
 Symbolic Z-matrix:
 Charge =  0 Multiplicity = 1

 SCF Done:  E(RHF) =  -321.481923749     A.U. after   16 cycles
 Normal termination of Gaussian 16 at Wed Apr  9 18:53:30 2025.
 Gaussian 16:  ES64L-G16RevC.01  3-Jul-2019

 ----------------------------------------------------------------------
 #t hf aug-cc-pvdz iop(5/13=1,5/36=2,99/5=2) pseudo=read geom=check gue
 ss=(read,tcheck) scf=(maxcycle=1)
 ----------------------------------------------------------------------
 -----
 title
 -----
 Structure from the checkpoint file:  "Grambow2020_wb97xd3_008190_reverse_mol2.chk"
 Charge =  0 Multiplicity = 1

                         Standard orientation:
 ---------------------------------------------------------------------
 Center     Atomic      Atomic             Coordinates (Angstroms)
 Number     Number       Type             X           Y           Z
 ---------------------------------------------------------------------
      1          8           0       -1.346385   -1.726753   -0.515778
      2          6           0       -0.539022   -1.246670    0.533939
      3          6           0        0.145667    0.064545    0.202202
      4          6           0       -0.652489    1.236270    0.057423
      5          6           0       -1.385086    2.179647   -0.059836
      6          6           0        1.444011    0.105646   -0.010726
      7          7           0        2.653440    0.136700   -0.076037
      8          1           0       -2.017671   -1.067270   -0.707727
      9          1           0       -1.127686   -1.109200    1.448516
     10          1           0        0.210002   -2.014530    0.725762
     11          1           0        3.072728   -0.017528   -0.988541
     12          1           0       -2.018849    3.029015   -0.157528
 ---------------------------------------------------------------------

 SCF Done:  E(RHF) =  -321.808561074     A.U. after    2 cycles

 The electronic state is 1-A.
 Alpha  occ. eigenvalues --  -20.55613 -15.54607 -11.34683 -11.30946 -11.27471
 Alpha  occ. eigenvalues --  -11.26146 -11.24834  -1.46178  -1.27829  -1.11540
 Alpha  occ. eigenvalues --   -1.02297  -0.92580  -0.83435  -0.78114  -0.72454
 Alpha  occ. eigenvalues --   -0.69696  -0.66078  -0.62200  -0.60194  -0.54776
 Alpha  occ. eigenvalues --   -0.52174  -0.46889  -0.46004  -0.41777  -0.34756
 Alpha virt. eigenvalues --    0.03084   0.03571   0.04612   0.05486   0.06072
 Alpha virt. eigenvalues --    0.08775   0.09329   0.09956   0.10963   0.11201
 Alpha virt. eigenvalues --    0.11915   0.12263   0.13170   0.13626   0.14533

 Mulliken charges:
               1
     1  O   -1.086220
     2  C    0.488177
     3  C    1.408892
     4  C    0.311971
     5  C    0.098868
     6  C   -2.629727
     7  N    1.058784
     8  H    0.311902
     9  H    0.193437
    10  H    0.046234
    11  H    0.196783
    12  H   -0.399101
 Sum of Mulliken charges =  -0.00000

 Dipole moment (field-independent basis, Debye):
    X=             -0.6584    Y=              0.6967    Z=             -0.6444  Tot=              1.1550

 Test job not archived.
 1\1\GINC-SE162\SP\RHF\Aug-CC-pVDZ\C5H5N1O1\OHZDE\09-Apr-2025\0\\#t hf
 aug-cc-pvdz iop(5/13=1,5/36=2,99/5=2) pseudo=read geom=check guess=(re
 ad,tcheck) scf=(maxcycle=1)\\title\\0,1\O,0,-2.06853219,-0.11895298,-0
 .54559041\C,0,-1.17619384,-0.5390557,0.46012601\C,0,0.26575403,-0.1801
 2914,0.15997687\C,0,0.64466548,1.1936805,0.16511909\C,0,0.89163556,2.3
 6811133,0.17639355\C,0,1.13443244,-1.11533199,-0.16176682\N,0,1.938665
 62,-2.00580373,-0.32974586\H,0,-1.99910151,0.8349314,-0.63317337\H,0,-
 1.44733998,-0.10503241,1.4296507\H,0,-1.27820267,-1.62148749,0.5334587

 Normal termination of Gaussian 16 at Wed Apr  9 18:53:34 2025.
