 Gaussian 16, Revision C.01,

 ----------------------------------------------------------------------
 #t hf aug-cc-pvdz symm=none int=(grid=ultrafine) guess=(read,tcheck) s
 table=(opt,rrhf)
 ----------------------------------------------------------------------
 -----
 title
 -----
 Symbolic Z-matrix:
 Charge =  0 Multiplicity = 1

 SCF Done:  E(RHF) =  -342.444801504     A.U. after   17 cycles
 Normal termination of Gaussian 16 at Wed Apr  9 19:16:58 2025.
 Gaussian 16:  ES64L-G16RevC.01  3-Jul-2019

 ----------------------------------------------------------------------
 #t hf aug-cc-pvdz iop(5/13=1,5/36=2,99/5=2) pseudo=read geom=check gue
 ss=(read,tcheck) scf=(maxcycle=1)
 ----------------------------------------------------------------------
 -----
 title
 -----
 Structure from the checkpoint file:  "Grambow2020_wb97xd3_009061_reverse_mol1.chk"
 Charge =  0 Multiplicity = 1

                         Standard orientation:
 ---------------------------------------------------------------------
 Center     Atomic      Atomic             Coordinates (Angstroms)
 Number     Number       Type             X           Y           Z
 ---------------------------------------------------------------------
      1          8           0        2.372364   -0.472586   -0.106915
      2          6           0        1.220089   -0.187702    0.044751
      3          6           0        0.692998    1.246372    0.203983
      4          6           0       -0.703980    1.144002   -0.204903
      5          6           0       -1.189402   -0.221274   -0.328475
      6          8           0       -2.338791   -0.400958    0.256158
      7          6           0        0.027871   -1.111899    0.103719
      8          1           0        1.285545    2.023901   -0.280376
      9          1           0        0.707882    1.480367    1.283620
     10          1           0       -1.164014   -0.292276   -1.480300
     11          1           0       -1.403704    1.969947   -0.279462
     12          1           0        0.163170   -2.007236   -0.495739
     13          1           0       -0.142917   -1.403344    1.143865
 ---------------------------------------------------------------------

 SCF Done:  E(RHF) =  -342.790492696     A.U. after    2 cycles

 The electronic state is 1-A.
 Alpha  occ. eigenvalues --  -20.57114 -20.43223 -11.39875 -11.37479 -11.31721
 Alpha  occ. eigenvalues --  -11.30716 -11.25784  -1.51031  -1.35712  -1.19052
 Alpha  occ. eigenvalues --   -1.03094  -0.98015  -0.82423  -0.78872  -0.73183
 Alpha  occ. eigenvalues --   -0.69651  -0.66360  -0.64427  -0.62534  -0.58917
 Alpha  occ. eigenvalues --   -0.57646  -0.52899  -0.51446  -0.44365  -0.34825
 Alpha  occ. eigenvalues --   -0.34188
 Alpha virt. eigenvalues --   -0.01910   0.01616   0.03033   0.04030   0.04540
 Alpha virt. eigenvalues --    0.05898   0.06456   0.08587   0.09503   0.10379
 Alpha virt. eigenvalues --    0.11489   0.12831   0.13471   0.14055   0.14439

 Mulliken charges:
               1
     1  O   -1.329690
     2  C    1.409073
     3  C   -0.542041
     4  C    0.028051
     5  C    0.951625
     6  O   -1.548253
     7  C   -0.441884
     8  H    0.157338
     9  H    0.458894
    10  H    0.466484
    11  H   -0.042131
    12  H    0.158410
    13  H    0.274124
 Sum of Mulliken charges =  -0.00000

 Dipole moment (field-independent basis, Debye):
    X=              3.0196    Y=              4.7698    Z=             -0.7223  Tot=              5.6913

 Test job not archived.
 1\1\GINC-SE232\SP\RHF\Aug-CC-pVDZ\C5H6O2\OHZDE\09-Apr-2025\0\\#t hf au
 g-cc-pvdz iop(5/13=1,5/36=2,99/5=2) pseudo=read geom=check guess=(read
 ,tcheck) scf=(maxcycle=1)\\title\\0,1\O,0,0.54430819,-2.42072297,-0.21
 477848\C,0,0.30484816,-1.24830945,-0.2173185\C,0,-1.10141912,-0.648758
 52,-0.3679777\C,0,-0.97530799,0.67352143,0.23607889\C,0,0.39671862,1.0
 8365203,0.48949627\O,0,0.64315754,2.29471296,0.0798919\C,0,1.26875528,
 -0.09631135,-0.06637966\H,0,-1.92151481,-1.27157409,-0.00768541\H,0,-1
 .27990445,-0.50566091,-1.44883745\H,0,0.40750009,0.89711412,1.6285634\

 Normal termination of Gaussian 16 at Wed Apr  9 19:17:03 2025.
