 Gaussian 16, Revision C.01,

 ----------------------------------------------------------------------
 #t hf aug-cc-pvdz symm=none int=(grid=ultrafine) guess=(read,tcheck) s
 table=(opt,rrhf)
 ----------------------------------------------------------------------
 -----
 title
 -----
 Symbolic Z-matrix:
 Charge =  0 Multiplicity = 1

 SCF Done:  E(RHF) =  -338.672720244     A.U. after   14 cycles
 Normal termination of Gaussian 16 at Wed Apr  9 03:53:03 2025.
 Gaussian 16:  ES64L-G16RevC.01  3-Jul-2019

 ----------------------------------------------------------------------
 #t hf aug-cc-pvdz iop(5/13=1,5/36=2,99/5=2) pseudo=read geom=check gue
 ss=(read,tcheck) scf=(maxcycle=1)
 ----------------------------------------------------------------------
 -----
 title
 -----
 Structure from the checkpoint file:  "Grambow2020_wb97xd3_008313_reverse_mol2.chk"
 Charge =  0 Multiplicity = 1

                         Standard orientation:
 ---------------------------------------------------------------------
 Center     Atomic      Atomic             Coordinates (Angstroms)
 Number     Number       Type             X           Y           Z
 ---------------------------------------------------------------------
      1          6           0        2.469284    0.231165    0.008443
      2          8           0        1.355907   -0.541584   -0.388838
      3          6           0        0.208568   -0.258510    0.316059
      4          6           0       -0.905730   -1.265725    0.093159
      5          7           0       -1.923715   -0.448588   -0.081562
      6          6           0       -1.550101    0.932336   -0.102108
      7          7           0       -0.319160    1.105491    0.078224
      8          1           0        2.295255    1.296982   -0.159742
      9          1           0        3.312852   -0.101179   -0.593363
     10          1           0        2.696249    0.067419    1.069246
     11          1           0        0.378448   -0.305236    1.411975
     12          1           0       -2.870457   -0.765653   -0.221968
     13          1           0       -2.291599    1.706428   -0.265391
 ---------------------------------------------------------------------

 SCF Done:  E(RHF) =  -339.014499848     A.U. after    2 cycles

 The electronic state is 1-A.
 Alpha  occ. eigenvalues --  -20.55431 -15.57280 -15.50895 -11.33681 -11.32100
 Alpha  occ. eigenvalues --  -11.27959 -11.27163  -1.48639  -1.34750  -1.20490
 Alpha  occ. eigenvalues --   -1.02381  -0.93196  -0.85990  -0.84661  -0.76747
 Alpha  occ. eigenvalues --   -0.69772  -0.67673  -0.65498  -0.60828  -0.58726
 Alpha  occ. eigenvalues --   -0.54345  -0.52368  -0.49483  -0.45053  -0.43284
 Alpha  occ. eigenvalues --   -0.38446
 Alpha virt. eigenvalues --    0.02660   0.04576   0.04642   0.05263   0.06321
 Alpha virt. eigenvalues --    0.06441   0.07241   0.08873   0.09588   0.11161
 Alpha virt. eigenvalues --    0.12102   0.13355   0.13684   0.14229   0.15016

 Mulliken charges:
               1
     1  C    0.089773
     2  O   -1.433358
     3  C    0.841673
     4  C   -0.746137
     5  N    0.565178
     6  C   -0.627140
     7  N    0.696261
     8  H    0.222007
     9  H   -0.013490
    10  H    0.180022
    11  H    0.221195
    12  H    0.025359
    13  H   -0.021341
 Sum of Mulliken charges =  -0.00000

 Dipole moment (field-independent basis, Debye):
    X=             -2.4934    Y=              1.8861    Z=              0.5744  Tot=              3.1787

 Test job not archived.
 1\1\GINC-SE187\SP\RHF\Aug-CC-pVDZ\C4H6N2O1\OHZDE\09-Apr-2025\0\\#t hf
 aug-cc-pvdz iop(5/13=1,5/36=2,99/5=2) pseudo=read geom=check guess=(re
 ad,tcheck) scf=(maxcycle=1)\\title\\0,1\C,0,2.22683809,0.09063747,-0.4
 6733219\O,0,1.04516734,-0.62904183,-0.75070468\C,0,0.02890113,-0.39585
 69,0.14719577\C,0,-1.13289002,-1.36469202,0.01518506\N,0,-2.14353802,-
 0.52225878,0.07375945\C,0,-1.7410003,0.85005298,0.11479142\N,0,-0.4928
 1723,0.99060876,0.11427512\H,0,2.05727528,1.16938516,-0.51304401\H,0,2
 .9577808,-0.19700688,-1.22046785\H,0,2.61104488,-0.17064145,0.52652177

 Normal termination of Gaussian 16 at Wed Apr  9 03:53:08 2025.
