 Gaussian 16, Revision C.01,

 ----------------------------------------------------------------------
 #t hf aug-cc-pvdz symm=none int=(grid=ultrafine) guess=(read,tcheck) s
 table=(opt,rrhf)
 ----------------------------------------------------------------------
 -----
 title
 -----
 Symbolic Z-matrix:
 Charge =  0 Multiplicity = 1

 SCF Done:  E(RHF) =  -305.312556644     A.U. after   17 cycles
 Normal termination of Gaussian 16 at Wed Apr  9 18:44:46 2025.
 Gaussian 16:  ES64L-G16RevC.01  3-Jul-2019

 ----------------------------------------------------------------------
 #t hf aug-cc-pvdz iop(5/13=1,5/36=2,99/5=2) pseudo=read geom=check gue
 ss=(read,tcheck) scf=(maxcycle=1)
 ----------------------------------------------------------------------
 -----
 title
 -----
 Structure from the checkpoint file:  "Grambow2020_wb97xd3_008024_reverse_mol1.chk"
 Charge =  0 Multiplicity = 1

                         Standard orientation:
 ---------------------------------------------------------------------
 Center     Atomic      Atomic             Coordinates (Angstroms)
 Number     Number       Type             X           Y           Z
 ---------------------------------------------------------------------
      1          8           0        2.493816    0.238243   -0.043314
      2          6           0        1.454455   -0.649337   -0.337406
      3          6           0        0.239631   -0.279355    0.513579
      4          6           0       -0.199005    1.164275    0.192527
      5          6           0       -1.471398    1.020358   -0.170217
      6          6           0       -1.068165   -0.768973    0.115543
      7          6           0       -2.275976   -0.654509   -0.101043
      8          1           0        2.096894    1.121592   -0.049668
      9          1           0        1.171738   -0.613290   -1.397907
     10          1           0        1.803858   -1.657836   -0.108778
     11          1           0        0.430522   -0.450695    1.573199
     12          1           0       -2.233642    1.603165   -0.665179
     13          1           0       -3.297153   -0.903637   -0.283051
 ---------------------------------------------------------------------

 SCF Done:  E(RHF) =  -305.623779555     A.U. after    2 cycles

 The electronic state is 1-A.
 Alpha  occ. eigenvalues --  -20.53901 -11.34974 -11.31052 -11.29710 -11.28775
 Alpha  occ. eigenvalues --  -11.28198 -11.21742  -1.44966  -1.21212  -1.05836
 Alpha  occ. eigenvalues --   -0.97561  -0.88782  -0.78892  -0.73858  -0.70464
 Alpha  occ. eigenvalues --   -0.70237  -0.62313  -0.60689  -0.57513  -0.54053
 Alpha  occ. eigenvalues --   -0.50237  -0.48095  -0.43695  -0.36359  -0.32293
 Alpha virt. eigenvalues --    0.02045   0.03145   0.04499   0.04593   0.06090
 Alpha virt. eigenvalues --    0.06564   0.07831   0.08157   0.09119   0.11628
 Alpha virt. eigenvalues --    0.11843   0.12260   0.13243   0.13576   0.14219

 Mulliken charges:
               1
     1  O   -1.197220
     2  C    0.995938
     3  C   -1.084855
     4  C   -0.198552
     5  C    0.234809
     6  C    0.987430
     7  C   -0.005371
     8  H    0.412622
     9  H    0.125140
    10  H    0.105266
    11  H    0.147693
    12  H   -0.098035
    13  H   -0.424864
 Sum of Mulliken charges =  -0.00000

 Dipole moment (field-independent basis, Debye):
    X=             -4.5937    Y=             -3.3777    Z=             -0.5047  Tot=              5.7241

 Test job not archived.
 1\1\GINC-SE105\SP\RHF\Aug-CC-pVDZ\C6H6O1\OHZDE\09-Apr-2025\0\\#t hf au
 g-cc-pvdz iop(5/13=1,5/36=2,99/5=2) pseudo=read geom=check guess=(read
 ,tcheck) scf=(maxcycle=1)\\title\\0,1\O,0,2.28064292,-1.13171644,-0.12
 348705\C,0,1.62406547,-0.04308788,0.45819639\C,0,0.34583488,0.23661745
 ,-0.33221554\C,0,-0.56861962,-1.00518803,-0.29707917\C,0,-1.70413899,-
 0.53058464,0.20950316\C,0,-0.70069387,1.0291713,0.28836993\C,0,-1.8685
 9934,1.28204435,0.5898173\H,0,1.59834109,-1.8022967,-0.27408323\H,0,1.
 36051689,-0.23529155,1.50676181\H,0,2.30305889,0.81090726,0.42528711\H

 Normal termination of Gaussian 16 at Wed Apr  9 18:44:50 2025.
