 Gaussian 16, Revision C.01,

 ----------------------------------------------------------------------
 #t hf aug-cc-pvdz symm=none int=(grid=ultrafine) guess=(read,tcheck) s
 table=(opt,rrhf)
 ----------------------------------------------------------------------
 -----
 title
 -----
 Symbolic Z-matrix:
 Charge =  0 Multiplicity = 1

 SCF Done:  E(RHF) =  -305.666624976     A.U. after   17 cycles
 Normal termination of Gaussian 16 at Wed Apr  9 16:01:56 2025.
 Gaussian 16:  ES64L-G16RevC.01  3-Jul-2019

 ----------------------------------------------------------------------
 #t hf aug-cc-pvdz iop(5/13=1,5/36=2,99/5=2) pseudo=read geom=check gue
 ss=(read,tcheck) scf=(maxcycle=1)
 ----------------------------------------------------------------------
 -----
 title
 -----
 Structure from the checkpoint file:  "Grambow2020_b97d3_007091_forward_mol1.chk"
 Charge =  0 Multiplicity = 1

                         Standard orientation:
 ---------------------------------------------------------------------
 Center     Atomic      Atomic             Coordinates (Angstroms)
 Number     Number       Type             X           Y           Z
 ---------------------------------------------------------------------
      1          6           0        1.540455    1.444745    0.290720
      2          6           0       -0.988878    0.179284   -0.285749
      3          6           0       -2.425210    0.423241    0.019164
      4          8           0       -0.456826   -0.933290    0.266313
      5          6           0        0.858700   -1.172688    0.118252
      6          8           0        1.587211   -0.353418   -0.505534
      7          1           0        1.169935    2.129235   -0.468445
      8          1           0        1.001022    1.455686    1.236238
      9          1           0        2.619567    1.357233    0.360890
     10          1           0       -0.499965    0.557450   -1.176155
     11          1           0       -3.112702   -0.216532   -0.569772
     12          1           0       -2.679623    1.466322   -0.215334
     13          1           0       -2.648328    0.245484    1.081398
     14          1           0        1.196605   -1.948713    0.810630
 ---------------------------------------------------------------------

 SCF Done:  E(RHF) =  -305.978943217     A.U. after    2 cycles

 The electronic state is 1-A.
 Alpha  occ. eigenvalues --  -20.63479 -20.57180 -11.35895 -11.31341 -11.27153
 Alpha  occ. eigenvalues --  -11.23192  -1.56300  -1.45026  -1.02589  -0.94986
 Alpha  occ. eigenvalues --   -0.90188  -0.78081  -0.73575  -0.68785  -0.64706
 Alpha  occ. eigenvalues --   -0.61373  -0.60389  -0.58132  -0.55780  -0.55296
 Alpha  occ. eigenvalues --   -0.51295  -0.48521  -0.47358  -0.21598
 Alpha virt. eigenvalues --    0.02807   0.04014   0.04267   0.04685   0.05804
 Alpha virt. eigenvalues --    0.06385   0.07075   0.07243   0.08946   0.09980
 Alpha virt. eigenvalues --    0.11307   0.12932   0.13984   0.15152   0.15578

 Mulliken charges:
               1
     1  C   -0.253704
     2  C    0.778769
     3  C   -0.780038
     4  O   -1.158715
     5  C    1.398848
     6  O   -0.967393
     7  H    0.166209
     8  H    0.213115
     9  H    0.089873
    10  H   -0.071885
    11  H    0.202797
    12  H    0.179699
    13  H    0.153982
    14  H    0.048443
 Sum of Mulliken charges =  -0.00000

 Dipole moment (field-independent basis, Debye):
    X=              0.2747    Y=              1.1107    Z=              1.1001  Tot=              1.5873

 Test job not archived.
 1\1\GINC-SE087\SP\RHF\Aug-CC-pVDZ\C4H8O2\OHZDE\09-Apr-2025\0\\#t hf au
 g-cc-pvdz iop(5/13=1,5/36=2,99/5=2) pseudo=read geom=check guess=(read
 ,tcheck) scf=(maxcycle=1)\\title\\0,1\C,0,0.73810774,1.91841179,-0.318
 37851\C,0,-0.54073388,-0.66530034,-0.17615295\C,0,-1.8325575,-1.217405
 54,0.31568853\O,0,0.55993941,-1.07418247,0.49243168\C,0,1.75476958,-0.
 54568898,0.17162258\O,0,1.8383611,0.33892103,-0.7236533\H,0,0.0195896,
 2.032724,-1.1263432\H,0,0.31457766,1.87142656,0.6833838\H,0,1.65617857
 ,2.48763675,-0.41934449\H,0,-0.3895453,-0.33110123,-1.19611417\H,0,-2.

 Normal termination of Gaussian 16 at Wed Apr  9 16:02:00 2025.
