 Gaussian 16, Revision C.01,

 ----------------------------------------------------------------------
 #t hf aug-cc-pvdz symm=none int=(grid=ultrafine) guess=(read,tcheck) s
 table=(opt,rrhf)
 ----------------------------------------------------------------------
 -----
 title
 -----
 Symbolic Z-matrix:
 Charge =  0 Multiplicity = 1

 SCF Done:  E(RHF) =  -338.697405322     A.U. after   15 cycles
 Normal termination of Gaussian 16 at Wed Apr  9 17:51:31 2025.
 Gaussian 16:  ES64L-G16RevC.01  3-Jul-2019

 ----------------------------------------------------------------------
 #t hf aug-cc-pvdz iop(5/13=1,5/36=2,99/5=2) pseudo=read geom=check gue
 ss=(read,tcheck) scf=(maxcycle=1)
 ----------------------------------------------------------------------
 -----
 title
 -----
 Structure from the checkpoint file:  "Grambow2020_wb97xd3_006849_reverse_mol2.chk"
 Charge =  0 Multiplicity = 1

                         Standard orientation:
 ---------------------------------------------------------------------
 Center     Atomic      Atomic             Coordinates (Angstroms)
 Number     Number       Type             X           Y           Z
 ---------------------------------------------------------------------
      1          7           0        2.364684   -0.562930   -0.030869
      2          6           0        1.049552   -0.239782    0.007807
      3          6           0        0.655821    1.224951    0.018623
      4          7           0       -0.779479    1.113759   -0.093052
      5          6           0       -1.065927   -0.210166   -0.023385
      6          8           0       -2.351505   -0.523671    0.031981
      7          6           0       -0.006519   -1.116822   -0.020070
      8          1           0        3.073108    0.100213    0.222174
      9          1           0        2.588243   -1.538523    0.056349
     10          1           0        0.948712    1.721609    0.949109
     11          1           0       -1.414121    1.817937    0.240417
     12          1           0       -2.367755   -1.489107    0.067936
     13          1           0        1.089857    1.772354   -0.822230
 ---------------------------------------------------------------------

 SCF Done:  E(RHF) =  -339.044160493     A.U. after    2 cycles

 The electronic state is 1-A.
 Alpha  occ. eigenvalues --  -20.59756 -15.53174 -15.51850 -11.35761 -11.29430
 Alpha  occ. eigenvalues --  -11.28999 -11.14639  -1.53038  -1.28903  -1.22495
 Alpha  occ. eigenvalues --   -1.03688  -0.99146  -0.83910  -0.82448  -0.76516
 Alpha  occ. eigenvalues --   -0.74401  -0.68971  -0.67167  -0.63936  -0.59483
 Alpha  occ. eigenvalues --   -0.58998  -0.54102  -0.52384  -0.46628  -0.31842
 Alpha  occ. eigenvalues --   -0.31654
 Alpha virt. eigenvalues --    0.02718   0.03631   0.04753   0.05265   0.05671
 Alpha virt. eigenvalues --    0.06978   0.08589   0.11200   0.11329   0.11763
 Alpha virt. eigenvalues --    0.12368   0.12928   0.14093   0.14358   0.16140

 Mulliken charges:
               1
     1  N    0.767609
     2  C   -0.648361
     3  C   -0.152443
     4  N    0.783859
     5  C    0.898785
     6  O   -1.519617
     7  C   -0.789686
     8  H   -0.015386
     9  H    0.053851
    10  H    0.113151
    11  H    0.016209
    12  H    0.360589
    13  H    0.131438
 Sum of Mulliken charges =  -0.00000

 Dipole moment (field-independent basis, Debye):
    X=              1.4253    Y=              3.6832    Z=              1.2548  Tot=              4.1439

 Test job not archived.
 1\1\GINC-SE041\SP\RHF\Aug-CC-pVDZ\C4H6N2O1\OHZDE\09-Apr-2025\0\\#t hf
 aug-cc-pvdz iop(5/13=1,5/36=2,99/5=2) pseudo=read geom=check guess=(re
 ad,tcheck) scf=(maxcycle=1)\\title\\0,1\N,0,-2.00368712,0.90028897,-0.
 08120685\C,0,-0.73175882,0.44681821,0.02858533\C,0,-0.35829386,-0.8567
 6999,-0.65094697\N,0,1.06656533,-0.87764021,-0.41800316\C,0,1.33765083
 ,0.18327432,0.38240638\O,0,2.58054927,0.26858215,0.83183754\C,0,0.3089
 3637,1.08307116,0.65898149\H,0,-2.75423689,0.29095063,-0.34773284\H,0,
 -2.23567786,1.71610071,0.45730983\H,0,-0.85318317,-1.71681509,-0.18870

 Normal termination of Gaussian 16 at Wed Apr  9 17:51:36 2025.
