 Gaussian 16, Revision C.01,

 ----------------------------------------------------------------------
 #t hf aug-cc-pvdz symm=none int=(grid=ultrafine) guess=(read,tcheck) s
 table=(opt,rrhf)
 ----------------------------------------------------------------------
 -----
 title
 -----
 Symbolic Z-matrix:
 Charge =  0 Multiplicity = 1

 SCF Done:  E(RHF) =  -338.722566940     A.U. after   15 cycles
 Normal termination of Gaussian 16 at Wed Apr  9 19:05:49 2025.
 Gaussian 16:  ES64L-G16RevC.01  3-Jul-2019

 ----------------------------------------------------------------------
 #t hf aug-cc-pvdz iop(5/13=1,5/36=2,99/5=2) pseudo=read geom=check gue
 ss=(read,tcheck) scf=(maxcycle=1)
 ----------------------------------------------------------------------
 -----
 title
 -----
 Structure from the checkpoint file:  "Grambow2020_wb97xd3_008550_forward_mol2.chk"
 Charge =  0 Multiplicity = 1

                         Standard orientation:
 ---------------------------------------------------------------------
 Center     Atomic      Atomic             Coordinates (Angstroms)
 Number     Number       Type             X           Y           Z
 ---------------------------------------------------------------------
      1          6           0       -2.539828   -0.371548    0.005986
      2          6           0       -1.079930   -0.073025    0.002004
      3          7           0       -0.672787    1.163753    0.003608
      4          8           0        0.721908    1.096692   -0.001295
      5          6           0        1.093820   -0.179050   -0.008565
      6          7           0        2.440058   -0.409132   -0.069786
      7          6           0        0.002966   -0.991611   -0.004082
      8          1           0       -3.108795    0.556372   -0.014113
      9          1           0       -2.811662   -0.970328   -0.864834
     10          1           0       -2.815942   -0.935411    0.898583
     11          1           0        2.742227   -1.306389    0.265062
     12          1           0        3.015681    0.358395    0.233596
     13          1           0       -0.029837   -2.067112   -0.016746
 ---------------------------------------------------------------------

 SCF Done:  E(RHF) =  -339.069390057     A.U. after    2 cycles

 The electronic state is 1-A.
 Alpha  occ. eigenvalues --  -20.61396 -15.53776 -15.53415 -11.35551 -11.28055
 Alpha  occ. eigenvalues --  -11.24205 -11.22106  -1.56971  -1.24957  -1.18019
 Alpha  occ. eigenvalues --   -1.05035  -0.98873  -0.84961  -0.81191  -0.74569
 Alpha  occ. eigenvalues --   -0.71952  -0.67575  -0.65539  -0.59087  -0.58861
 Alpha  occ. eigenvalues --   -0.56169  -0.54803  -0.53554  -0.50015  -0.41993
 Alpha  occ. eigenvalues --   -0.35205
 Alpha virt. eigenvalues --    0.02550   0.04012   0.04353   0.05426   0.06095
 Alpha virt. eigenvalues --    0.07360   0.08697   0.11101   0.11890   0.12228
 Alpha virt. eigenvalues --    0.12569   0.13707   0.14196   0.15086   0.16183

 Mulliken charges:
               1
     1  C   -0.120578
     2  C   -1.090513
     3  N    1.248568
     4  O   -1.651054
     5  C   -0.245145
     6  N    0.782407
     7  C    0.458179
     8  H    0.123098
     9  H    0.247618
    10  H    0.250643
    11  H    0.157347
    12  H    0.041629
    13  H   -0.202199
 Sum of Mulliken charges =  -0.00000

 Dipole moment (field-independent basis, Debye):
    X=              1.5015    Y=             -3.6950    Z=              0.9725  Tot=              4.1053

 Test job not archived.
 1\1\GINC-SE224\SP\RHF\Aug-CC-pVDZ\C4H6N2O1\OHZDE\09-Apr-2025\0\\#t hf
 aug-cc-pvdz iop(5/13=1,5/36=2,99/5=2) pseudo=read geom=check guess=(re
 ad,tcheck) scf=(maxcycle=1)\\title\\0,1\C,0,-2.29140228,0.25121095,-0.
 08254727\C,0,-0.84955065,-0.10273825,-0.20989392\N,0,-0.47537069,-0.98
 300726,-1.09335565\O,0,0.91058175,-1.08267969,-0.95589421\C,0,1.310272
 14,-0.25919235,0.00743608\N,0,2.64557475,-0.28414597,0.2996454\C,0,0.2
 4751172,0.40679722,0.53396838\H,0,-2.88141454,-0.33589694,-0.7842258\H
 ,0,-2.64756855,0.05259152,0.92960566\H,0,-2.44833618,1.31103882,-0.290

 Normal termination of Gaussian 16 at Wed Apr  9 19:05:53 2025.
