 Gaussian 16, Revision C.01,

 ----------------------------------------------------------------------
 #t hf aug-cc-pvdz symm=none int=(grid=ultrafine) guess=(read,tcheck) s
 table=(opt,rrhf)
 ----------------------------------------------------------------------
 -----
 title
 -----
 Symbolic Z-matrix:
 Charge =  0 Multiplicity = 1

 SCF Done:  E(RHF) =  -322.769988224     A.U. after   14 cycles
 Normal termination of Gaussian 16 at Wed Apr  9 03:45:35 2025.
 Gaussian 16:  ES64L-G16RevC.01  3-Jul-2019

 ----------------------------------------------------------------------
 #t hf aug-cc-pvdz iop(5/13=1,5/36=2,99/5=2) pseudo=read geom=check gue
 ss=(read,tcheck) scf=(maxcycle=1)
 ----------------------------------------------------------------------
 -----
 title
 -----
 Structure from the checkpoint file:  "Grambow2020_wb97xd3_007795_reverse_mol2.chk"
 Charge =  0 Multiplicity = 1

                         Standard orientation:
 ---------------------------------------------------------------------
 Center     Atomic      Atomic             Coordinates (Angstroms)
 Number     Number       Type             X           Y           Z
 ---------------------------------------------------------------------
      1          6           0       -2.444096   -0.493949   -0.080139
      2          6           0       -1.168887   -0.162025    0.021131
      3          6           0       -0.649368    1.264075    0.063945
      4          7           0        0.781486    1.091952   -0.044064
      5          6           0        1.229973   -0.191740   -0.013096
      6          8           0        2.386816   -0.537454   -0.053317
      7          6           0        0.010371   -1.094622    0.089005
      8          1           0       -2.758973   -1.529969   -0.110207
      9          1           0       -3.222193    0.258855   -0.137426
     10          1           0       -0.926016    1.756389    1.002514
     11          1           0       -1.050632    1.858405   -0.761123
     12          1           0        1.435299    1.854347   -0.062863
     13          1           0        0.062040   -1.641170    1.033508
     14          1           0        0.027578   -1.831325   -0.714496
 ---------------------------------------------------------------------

 SCF Done:  E(RHF) =  -323.102768695     A.U. after    2 cycles

 The electronic state is 1-A.
 Alpha  occ. eigenvalues --  -20.50556 -15.52850 -11.35484 -11.29154 -11.26545
 Alpha  occ. eigenvalues --  -11.25391 -11.24156  -1.45837  -1.26962  -1.09910
 Alpha  occ. eigenvalues --   -1.00948  -0.95377  -0.83280  -0.76377  -0.71734
 Alpha  occ. eigenvalues --   -0.68026  -0.64845  -0.63129  -0.60679  -0.60286
 Alpha  occ. eigenvalues --   -0.58440  -0.54199  -0.51001  -0.42154  -0.41634
 Alpha  occ. eigenvalues --   -0.37718
 Alpha virt. eigenvalues --    0.03009   0.03573   0.04142   0.04338   0.05762
 Alpha virt. eigenvalues --    0.05939   0.07100   0.08343   0.09914   0.11164
 Alpha virt. eigenvalues --    0.12077   0.13239   0.13825   0.14356   0.14945

 Mulliken charges:
               1
     1  C    0.214011
     2  C    0.699836
     3  C   -0.546091
     4  N    0.627448
     5  C    0.843731
     6  O   -1.353730
     7  C   -1.065639
     8  H   -0.136310
     9  H   -0.152083
    10  H    0.148841
    11  H    0.116358
    12  H    0.050444
    13  H    0.306957
    14  H    0.246228
 Sum of Mulliken charges =   0.00000

 Dipole moment (field-independent basis, Debye):
    X=             -3.6223    Y=              1.6748    Z=              0.2626  Tot=              3.9994

 Test job not archived.
 1\1\GINC-SE060\SP\RHF\Aug-CC-pVDZ\C5H7N1O1\OHZDE\09-Apr-2025\0\\#t hf
 aug-cc-pvdz iop(5/13=1,5/36=2,99/5=2) pseudo=read geom=check guess=(re
 ad,tcheck) scf=(maxcycle=1)\\title\\0,1\C,0,-1.84587947,0.52344615,-0.
 74551502\C,0,-0.67773586,0.16839885,-0.23958069\C,0,0.19948449,1.06396
 269,0.61712442\N,0,1.42734363,0.30933131,0.724495\C,0,1.40395502,-0.94
 292218,0.19413902\O,0,2.31393992,-1.73717728,0.21667505\C,0,0.02664831
 ,-1.14970965,-0.41685571\H,0,-2.42939664,-0.15622275,-1.35456876\H,0,-
 2.26295534,1.50865935,-0.56992317\H,0,-0.25393966,1.23709237,1.5990873

 Normal termination of Gaussian 16 at Wed Apr  9 03:45:40 2025.
