 Gaussian 16, Revision C.01,

 ----------------------------------------------------------------------
 #t hf aug-cc-pvdz symm=none int=(grid=ultrafine) guess=(read,tcheck) s
 table=(opt,rrhf)
 ----------------------------------------------------------------------
 -----
 title
 -----
 Symbolic Z-matrix:
 Charge =  0 Multiplicity = 1

 SCF Done:  E(RHF) =  -268.659256747     A.U. after   17 cycles
 Normal termination of Gaussian 16 at Wed Apr  9 03:21:07 2025.
 Gaussian 16:  ES64L-G16RevC.01  3-Jul-2019

 ----------------------------------------------------------------------
 #t hf aug-cc-pvdz iop(5/13=1,5/36=2,99/5=2) pseudo=read geom=check gue
 ss=(read,tcheck) scf=(maxcycle=1)
 ----------------------------------------------------------------------
 -----
 title
 -----
 Structure from the checkpoint file:  "Grambow2020_wb97xd3_006052_forward_mol1.chk"
 Charge =  0 Multiplicity = 1

                         Standard orientation:
 ---------------------------------------------------------------------
 Center     Atomic      Atomic             Coordinates (Angstroms)
 Number     Number       Type             X           Y           Z
 ---------------------------------------------------------------------
      1          6           0       -2.337131   -0.794425    0.050798
      2          8           0       -1.887287    0.493634   -0.280859
      3          6           0       -0.612434    0.782612    0.239940
      4          6           0        0.484874   -0.045204   -0.274240
      5          6           0        1.724234   -0.183895    0.025905
      6          6           0        3.100604   -0.218983   -0.101907
      7          1           0       -2.430414   -0.916741    1.139497
      8          1           0       -3.318323   -0.920550   -0.404345
      9          1           0       -1.657889   -1.565063   -0.331473
     10          1           0       -0.420642    1.829392   -0.014902
     11          1           0       -0.637692    0.712336    1.341318
     12          1           0        3.694003   -0.809841    0.583012
     13          1           0        3.623414    0.410894   -0.814774
     14          1           0        2.084957    0.069866    1.105559
 ---------------------------------------------------------------------

 SCF Done:  E(RHF) =  -268.940204210     A.U. after    2 cycles

 The electronic state is 1-A.
 Alpha  occ. eigenvalues --  -20.53543 -11.30055 -11.29919 -11.26777 -11.26280
 Alpha  occ. eigenvalues --  -11.24259  -1.45962  -1.11461  -1.01502  -0.93674
 Alpha  occ. eigenvalues --   -0.86531  -0.73673  -0.68010  -0.66462  -0.65870
 Alpha  occ. eigenvalues --   -0.64030  -0.57463  -0.55426  -0.54199  -0.47775
 Alpha  occ. eigenvalues --   -0.42010  -0.39661  -0.30232
 Alpha virt. eigenvalues --    0.02293   0.03905   0.04133   0.04674   0.04971
 Alpha virt. eigenvalues --    0.05913   0.06688   0.06825   0.08613   0.10394
 Alpha virt. eigenvalues --    0.11779   0.13065   0.13163   0.13630   0.13929

 Mulliken charges:
               1
     1  C    0.158615
     2  O   -1.235042
     3  C    0.410034
     4  C   -0.545506
     5  C    0.420633
     6  C   -0.023525
     7  H    0.159924
     8  H   -0.028713
     9  H    0.229580
    10  H    0.097757
    11  H    0.200901
    12  H   -0.076386
    13  H   -0.047339
    14  H    0.279067
 Sum of Mulliken charges =  -0.00000

 Dipole moment (field-independent basis, Debye):
    X=              2.5674    Y=              0.2674    Z=              2.0804  Tot=              3.3153

 Test job not archived.
 1\1\GINC-SE044\SP\RHF\Aug-CC-pVDZ\C5H8O1\OHZDE\09-Apr-2025\0\\#t hf au
 g-cc-pvdz iop(5/13=1,5/36=2,99/5=2) pseudo=read geom=check guess=(read
 ,tcheck) scf=(maxcycle=1)\\title\\0,1\C,0,-2.50713531,0.0370258,0.1105
 1356\O,0,-1.81383858,-1.08818515,-0.36350075\C,0,-0.56369582,-0.768470
 93,-0.92467475\C,0,0.41942416,-0.19586075,0.00233015\C,0,1.58247857,0.
 32851089,-0.13061455\C,0,2.93831753,0.55016846,0.02600977\H,0,-2.72305
 672,0.74478895,-0.7027387\H,0,-3.44765281,-0.31674819,0.53012212\H,0,-
 1.93672624,0.55920647,0.88726528\H,0,-0.17208227,-1.7082201,-1.3259061

 Normal termination of Gaussian 16 at Wed Apr  9 03:21:11 2025.
