 Gaussian 16, Revision C.01,

 ----------------------------------------------------------------------
 #t hf aug-cc-pvdz symm=none int=(grid=ultrafine) guess=(read,tcheck) s
 table=(opt,rrhf)
 ----------------------------------------------------------------------
 -----
 title
 -----
 Symbolic Z-matrix:
 Charge =  0 Multiplicity = 1

 SCF Done:  E(RHF) =  -335.394068827     A.U. after   19 cycles
 Normal termination of Gaussian 16 at Wed Apr  9 15:44:36 2025.
 Gaussian 16:  ES64L-G16RevC.01  3-Jul-2019

 ----------------------------------------------------------------------
 #t hf aug-cc-pvdz iop(5/13=1,5/36=2,99/5=2) pseudo=read geom=check gue
 ss=(read,tcheck) scf=(maxcycle=1)
 ----------------------------------------------------------------------
 -----
 title
 -----
 Structure from the checkpoint file:  "Grambow2020_b97d3_006740_forward_mol1.chk"
 Charge =  0 Multiplicity = 1

                         Standard orientation:
 ---------------------------------------------------------------------
 Center     Atomic      Atomic             Coordinates (Angstroms)
 Number     Number       Type             X           Y           Z
 ---------------------------------------------------------------------
      1          8           0       -2.315057    0.032424   -0.110017
      2          6           0       -1.287407   -0.027251    0.417409
      3          7           0        0.330832    1.269631   -0.209216
      4          6           0        1.436537    0.625997    0.008335
      5          7           0        1.416029   -0.790991    0.120053
      6          8           0        0.330371   -1.314048   -0.189047
      7          1           0        0.378514    2.251446    0.094727
      8          1           0        2.376168    1.058591    0.367463
 ---------------------------------------------------------------------

 SCF Done:  E(RHF) =  -335.707924899     A.U. after    2 cycles

 The electronic state is 1-A.
 Alpha  occ. eigenvalues --  -20.65493 -20.60246 -15.65862 -15.57163 -11.35704
 Alpha  occ. eigenvalues --  -11.34657  -1.59303  -1.54324  -1.27060  -1.10236
 Alpha  occ. eigenvalues --   -0.85929  -0.79643  -0.78115  -0.73975  -0.66560
 Alpha  occ. eigenvalues --   -0.65291  -0.60876  -0.58550  -0.55713  -0.51633
 Alpha  occ. eigenvalues --   -0.47949  -0.42226
 Alpha virt. eigenvalues --   -0.01791   0.02554   0.04604   0.07939   0.08393
 Alpha virt. eigenvalues --    0.09472   0.10319   0.10535   0.11642   0.13075
 Alpha virt. eigenvalues --    0.14258   0.15646   0.16742   0.18358   0.18562

 Mulliken charges:
               1
     1  O   -0.727528
     2  C    0.733332
     3  N    0.531870
     4  C   -0.790175
     5  N    1.033859
     6  O   -0.923241
     7  H    0.125911
     8  H    0.015973
 Sum of Mulliken charges =  -0.00000

 Dipole moment (field-independent basis, Debye):
    X=              2.7135    Y=              2.7185    Z=              0.5288  Tot=              3.8772

 Test job not archived.
 1\1\GINC-SE141\SP\RHF\Aug-CC-pVDZ\C2H2N2O2\OHZDE\09-Apr-2025\0\\#t hf
 aug-cc-pvdz iop(5/13=1,5/36=2,99/5=2) pseudo=read geom=check guess=(re
 ad,tcheck) scf=(maxcycle=1)\\title\\0,1\O,0,2.66369155,0.25379225,0.31
 865036\C,0,1.66854112,-0.12382493,-0.13399265\N,0,-0.18716891,0.897093
 83,0.32133624\C,0,-1.1280543,0.00396032,0.28633201\N,0,-0.80019378,-1.
 37049118,0.44172906\O,0,0.37643719,-1.58114429,0.78661921\H,0,-0.45083
 156,1.76813955,-0.15863852\H,0,-2.1429563,0.14919745,-0.09824171\\Vers
 ion=ES64L-G16RevC.01\State=1-A\HF=-335.7079249\RMSD=1.382e-02\Dipole=-

 Normal termination of Gaussian 16 at Wed Apr  9 15:44:38 2025.
