 Gaussian 16, Revision C.01,

 ----------------------------------------------------------------------
 #t hf aug-cc-pvdz symm=none int=(grid=ultrafine) guess=(read,tcheck) s
 table=(opt,rrhf)
 ----------------------------------------------------------------------
 -----
 title
 -----
 Symbolic Z-matrix:
 Charge =  0 Multiplicity = 1

 SCF Done:  E(RHF) =  -346.080100882     A.U. after   12 cycles

 1\1\GINC-SE104\Stability\RHF\Aug-CC-pVDZ\C5H12O2\OHZDE\09-Apr-2025\0\\
 #t hf aug-cc-pvdz symm=none int=(grid=ultrafine) guess=(read,tcheck) s
 table=(opt,rrhf)\\title\\0,1\C,0,-1.72398646,-0.47573491,1.38002953\O,
 0,-0.39444696,-0.35095003,0.94027859\C,0,-0.22246391,0.43307924,-0.237
 33955\C,0,-0.45265292,1.91166585,0.03454657\C,0,1.17778316,0.1606937,-
 0.76661018\C,0,1.46338404,-1.31086583,-1.03997445\O,0,1.65542745,-2.06
 639176,0.1341773\H,0,-2.11596879,0.46513586,1.77999431\H,0,-1.73323817
 ,-1.21955507,2.17559918\H,0,-2.38037913,-0.8145417,0.56868457\H,0,-0.9

 Normal termination of Gaussian 16 at Wed Apr  9 18:43:55 2025.
 Gaussian 16:  ES64L-G16RevC.01  3-Jul-2019

 ----------------------------------------------------------------------
 #t hf aug-cc-pvdz iop(5/13=1,5/36=2,99/5=2) pseudo=read geom=check gue
 ss=(read,tcheck) scf=(maxcycle=1)
 ----------------------------------------------------------------------
 -----
 title
 -----
 Structure from the checkpoint file:  "Grambow2020_wb97xd3_008009_forward_mol2.chk"
 Charge =  0 Multiplicity = 1

                         Standard orientation:
 ---------------------------------------------------------------------
 Center     Atomic      Atomic             Coordinates (Angstroms)
 Number     Number       Type             X           Y           Z
 ---------------------------------------------------------------------
      1          6           0       -1.696606    1.563202    0.197967
      2          8           0       -0.643828    0.767019   -0.286159
      3          6           0       -0.570169   -0.539428    0.278497
      4          6           0       -1.699840   -1.429160   -0.216830
      5          6           0        0.798260   -1.108819   -0.065316
      6          6           0        1.964907   -0.244304    0.396561
      7          8           0        2.142362    0.913325   -0.387492
      8          1           0       -2.673789    1.207481   -0.144722
      9          1           0       -1.542472    2.571185   -0.184783
     10          1           0       -1.698001    1.595545    1.294723
     11          1           0       -0.642157   -0.436853    1.373115
     12          1           0       -1.667119   -1.503759   -1.305580
     13          1           0       -2.678938   -1.047386    0.075291
     14          1           0       -1.600770   -2.431995    0.202214
     15          1           0        0.870316   -1.254425   -1.147811
     16          1           0        0.876060   -2.094982    0.401843
     17          1           0        1.828585    0.017589    1.457377
     18          1           0        2.894064   -0.813318    0.322941
     19          1           0        1.266630    1.299227   -0.500677
 ---------------------------------------------------------------------

 SCF Done:  E(RHF) =  -346.448333491     A.U. after    2 cycles

 The electronic state is 1-A.
 Alpha  occ. eigenvalues --  -20.55466 -20.52103 -11.29400 -11.28893 -11.27246
 Alpha  occ. eigenvalues --  -11.23190 -11.22911  -1.47702  -1.42788  -1.07931
 Alpha  occ. eigenvalues --   -0.98386  -0.94477  -0.85860  -0.80430  -0.69892
 Alpha  occ. eigenvalues --   -0.67979  -0.65579  -0.64488  -0.60736  -0.59340
 Alpha  occ. eigenvalues --   -0.57787  -0.55868  -0.54999  -0.51649  -0.50421
 Alpha  occ. eigenvalues --   -0.49828  -0.45757  -0.42255  -0.41916
 Alpha virt. eigenvalues --    0.03283   0.03557   0.03726   0.04536   0.05822
 Alpha virt. eigenvalues --    0.06147   0.06532   0.06879   0.07539   0.09223
 Alpha virt. eigenvalues --    0.09393   0.10040   0.12705   0.13654   0.13954

 Mulliken charges:
               1
     1  C    0.192784
     2  O   -1.496813
     3  C    0.615586
     4  C   -0.410863
     5  C   -0.429206
     6  C    0.830201
     7  O   -1.253505
     8  H    0.140791
     9  H   -0.034704
    10  H    0.185779
    11  H    0.140544
    12  H    0.229352
    13  H    0.089118
    14  H    0.195036
    15  H    0.165724
    16  H    0.173992
    17  H    0.143782
    18  H    0.060554
    19  H    0.461851
 Sum of Mulliken charges =   0.00000

 Dipole moment (field-independent basis, Debye):
    X=             -2.8796    Y=             -1.2000    Z=              1.4171  Tot=              3.4264

 Test job not archived.
 1\1\GINC-SE104\SP\RHF\Aug-CC-pVDZ\C5H12O2\OHZDE\09-Apr-2025\0\\#t hf a
 ug-cc-pvdz iop(5/13=1,5/36=2,99/5=2) pseudo=read geom=check guess=(rea
 d,tcheck) scf=(maxcycle=1)\\title\\0,1\C,0,-1.72398646,-0.47573491,1.3
 8002953\O,0,-0.39444696,-0.35095003,0.94027859\C,0,-0.22246391,0.43307
 924,-0.23733955\C,0,-0.45265292,1.91166585,0.03454657\C,0,1.17778316,0
 .1606937,-0.76661018\C,0,1.46338404,-1.31086583,-1.03997445\O,0,1.6554
 2745,-2.06639176,0.1341773\H,0,-2.11596879,0.46513586,1.77999431\H,0,-
 1.73323817,-1.21955507,2.17559918\H,0,-2.38037913,-0.8145417,0.5686845

 Normal termination of Gaussian 16 at Wed Apr  9 18:44:02 2025.
