 Gaussian 16, Revision C.01,

 ----------------------------------------------------------------------
 #t hf aug-cc-pvdz symm=none int=(grid=ultrafine) guess=(read,tcheck) s
 table=(opt,rrhf)
 ----------------------------------------------------------------------
 -----
 title
 -----
 Symbolic Z-matrix:
 Charge =  0 Multiplicity = 1

 SCF Done:  E(RHF) =  -394.324016762     A.U. after   17 cycles
 Normal termination of Gaussian 16 at Wed Apr  9 18:13:53 2025.
 Gaussian 16:  ES64L-G16RevC.01  3-Jul-2019

 ----------------------------------------------------------------------
 #t hf aug-cc-pvdz iop(5/13=1,5/36=2,99/5=2) pseudo=read geom=check gue
 ss=(read,tcheck) scf=(maxcycle=1)
 ----------------------------------------------------------------------
 -----
 title
 -----
 Structure from the checkpoint file:  "Grambow2020_wb97xd3_007204_forward_mol1.chk"
 Charge =  0 Multiplicity = 1

                         Standard orientation:
 ---------------------------------------------------------------------
 Center     Atomic      Atomic             Coordinates (Angstroms)
 Number     Number       Type             X           Y           Z
 ---------------------------------------------------------------------
      1          7           0       -1.122473    1.571663   -0.382249
      2          6           0       -0.371394    0.782126    0.135018
      3          8           0        1.141517    0.930954    0.335762
      4          6           0        1.727781   -0.138121   -0.101807
      5          8           0        1.132726   -1.167859   -0.400851
      6          6           0       -0.728197   -0.600326    0.483842
      7          8           0       -1.809717   -0.990694   -0.055243
      8          1           0       -2.098216   -0.177400   -0.571879
      9          1           0        2.817016   -0.054366   -0.184091
     10          1           0       -0.346832   -1.211149    1.292043
 ---------------------------------------------------------------------

 SCF Done:  E(RHF) =  -394.703555209     A.U. after    2 cycles

 The electronic state is 1-A.
 Alpha  occ. eigenvalues --  -20.66766 -20.61733 -20.58115 -15.47519 -11.44211
 Alpha  occ. eigenvalues --  -11.42693 -11.32739  -1.61275  -1.58300  -1.48126
 Alpha  occ. eigenvalues --   -1.20980  -1.01377  -0.90395  -0.86334  -0.76462
 Alpha  occ. eigenvalues --   -0.75779  -0.74327  -0.67735  -0.65304  -0.63567
 Alpha  occ. eigenvalues --   -0.57659  -0.57212  -0.51052  -0.49233  -0.45887
 Alpha  occ. eigenvalues --   -0.40534
 Alpha virt. eigenvalues --    0.02706   0.03637   0.04352   0.05215   0.08013
 Alpha virt. eigenvalues --    0.08392   0.09572   0.10299   0.11494   0.12163
 Alpha virt. eigenvalues --    0.13562   0.14132   0.14466   0.15852   0.16099

 Mulliken charges:
               1
     1  N    0.832078
     2  C   -0.827415
     3  O   -1.183140
     4  C    1.372454
     5  O   -0.975040
     6  C    1.325928
     7  O   -1.196254
     8  H    0.477403
     9  H    0.109426
    10  H    0.064560
 Sum of Mulliken charges =  -0.00000

 Dipole moment (field-independent basis, Debye):
    X=              1.7063    Y=             -3.6207    Z=              2.0725  Tot=              4.5073

 Test job not archived.
 1\1\GINC-SE045\SP\RHF\Aug-CC-pVDZ\C3H3N1O3\OHZDE\09-Apr-2025\0\\#t hf
 aug-cc-pvdz iop(5/13=1,5/36=2,99/5=2) pseudo=read geom=check guess=(re
 ad,tcheck) scf=(maxcycle=1)\\title\\0,1\N,0,-0.47459492,1.3661396,-1.4
 9112718\C,0,-0.08245393,0.86095942,-0.46835024\O,0,1.3660408,0.7618869
 7,0.02499885\C,0,1.60993088,-0.46553569,0.35973091\O,0,0.74352246,-1.3
 2590599,0.47364485\C,0,-0.90795178,0.02962663,0.41911884\O,0,-1.996042
 54,-0.34805904,-0.115762\H,0,-1.94618939,0.0754229,-1.02667813\H,0,2.6
 6846807,-0.68261163,0.5402725\H,0,-0.83409065,-0.08902517,1.49252361\\

 Normal termination of Gaussian 16 at Wed Apr  9 18:13:57 2025.
