 Gaussian 16, Revision C.01,

 ----------------------------------------------------------------------
 #t hf aug-cc-pvdz symm=none int=(grid=ultrafine) guess=(read,tcheck) s
 table=(opt,rrhf)
 ----------------------------------------------------------------------
 -----
 title
 -----
 Symbolic Z-matrix:
 Charge =  0 Multiplicity = 1

 SCF Done:  E(RHF) =  -320.590690383     A.U. after   16 cycles
 Normal termination of Gaussian 16 at Wed Apr  9 16:06:41 2025.
 Gaussian 16:  ES64L-G16RevC.01  3-Jul-2019

 ----------------------------------------------------------------------
 #t hf aug-cc-pvdz iop(5/13=1,5/36=2,99/5=2) pseudo=read geom=check gue
 ss=(read,tcheck) scf=(maxcycle=1)
 ----------------------------------------------------------------------
 -----
 title
 -----
 Structure from the checkpoint file:  "Grambow2020_b97d3_007125_forward_mol1.chk"
 Charge =  0 Multiplicity = 1

                         Standard orientation:
 ---------------------------------------------------------------------
 Center     Atomic      Atomic             Coordinates (Angstroms)
 Number     Number       Type             X           Y           Z
 ---------------------------------------------------------------------
      1          6           0        2.419950    0.218302    0.022141
      2          7           0        0.386240    1.059768   -0.027604
      3          6           0       -0.062346   -0.159524   -0.018027
      4          8           0        0.752046   -1.137832   -0.015745
      5          6           0       -1.559929   -0.467534    0.003344
      6          8           0       -2.418800    0.393279    0.015320
      7          1           0        2.816391   -0.669054   -0.461986
      8          1           0        2.630720    1.152594   -0.484650
      9          1           0        2.489744    0.235708    1.105575
     10          1           0       -0.296199    1.825073   -0.013513
     11          1           0       -1.796358   -1.553735    0.006459
 ---------------------------------------------------------------------

 SCF Done:  E(RHF) =  -320.906114953     A.U. after    2 cycles

 The electronic state is 1-A.
 Alpha  occ. eigenvalues --  -20.56846 -20.52068 -15.48394 -11.38233 -11.35618
 Alpha  occ. eigenvalues --  -11.34359  -1.48731  -1.44406  -1.17881  -0.99289
 Alpha  occ. eigenvalues --   -0.91680  -0.77947  -0.72581  -0.68810  -0.66049
 Alpha  occ. eigenvalues --   -0.65570  -0.60068  -0.58559  -0.51648  -0.50794
 Alpha  occ. eigenvalues --   -0.44638  -0.41304  -0.40277
 Alpha virt. eigenvalues --    0.01447   0.04345   0.04855   0.04978   0.05885
 Alpha virt. eigenvalues --    0.06843   0.07216   0.10007   0.11365   0.11996
 Alpha virt. eigenvalues --    0.13386   0.13816   0.14512   0.15402   0.15986

 Mulliken charges:
               1
     1  C   -0.209587
     2  N    0.598684
     3  C    0.135968
     4  O   -1.395489
     5  C    1.088039
     6  O   -1.137044
     7  H    0.244238
     8  H    0.210408
     9  H    0.252599
    10  H    0.036986
    11  H    0.175198
 Sum of Mulliken charges =  -0.00000

 Dipole moment (field-independent basis, Debye):
    X=              4.0395    Y=              0.0427    Z=              0.1612  Tot=              4.0429

 Test job not archived.
 1\1\GINC-SE232\SP\RHF\Aug-CC-pVDZ\C3H5N1O2\OHZDE\09-Apr-2025\0\\#t hf
 aug-cc-pvdz iop(5/13=1,5/36=2,99/5=2) pseudo=read geom=check guess=(re
 ad,tcheck) scf=(maxcycle=1)\\title\\0,1\C,0,-1.47357202,1.2544974,0.09
 141733\N,0,0.65842909,0.72863948,-0.0653066\C,0,0.30369847,-0.51822449
 ,0.02123577\O,0,-0.92376082,-0.82265595,0.1661173\C,0,1.32413485,-1.65
 420927,-0.05833082\O,0,2.51698132,-1.47128494,-0.20819008\H,0,-2.25961
 766,0.79795542,0.68525853\H,0,-1.0411579,2.15410385,0.51318581\H,0,-1.
 63611064,1.26003294,-0.98215357\H,0,1.65337131,0.93918364,-0.19711729\

 Normal termination of Gaussian 16 at Wed Apr  9 16:06:45 2025.
