 Gaussian 16, Revision C.01,

 ----------------------------------------------------------------------
 #t hf aug-cc-pvdz symm=none int=(grid=ultrafine) guess=(read,tcheck) s
 table=(opt,rrhf)
 ----------------------------------------------------------------------
 -----
 title
 -----
 Symbolic Z-matrix:
 Charge =  0 Multiplicity = 1

 SCF Done:  E(RHF) =  -318.890291934     A.U. after   15 cycles
 Normal termination of Gaussian 16 at Wed Apr  9 18:40:34 2025.
 Gaussian 16:  ES64L-G16RevC.01  3-Jul-2019

 ----------------------------------------------------------------------
 #t hf aug-cc-pvdz iop(5/13=1,5/36=2,99/5=2) pseudo=read geom=check gue
 ss=(read,tcheck) scf=(maxcycle=1)
 ----------------------------------------------------------------------
 -----
 title
 -----
 Structure from the checkpoint file:  "Grambow2020_wb97xd3_007955_forward_mol2.chk"
 Charge =  0 Multiplicity = 1

                         Standard orientation:
 ---------------------------------------------------------------------
 Center     Atomic      Atomic             Coordinates (Angstroms)
 Number     Number       Type             X           Y           Z
 ---------------------------------------------------------------------
      1          6           0       -2.492985   -0.238229    0.541168
      2          6           0       -1.595184    0.355244   -0.543085
      3          6           0       -0.141587    0.177275   -0.251545
      4          6           0        0.816636    1.097782    0.072839
      5          7           0        1.934662    0.361929    0.240869
      6          7           0        1.700344   -0.929759    0.036940
      7          7           0        0.451191   -1.048788   -0.259350
      8          1           0       -3.546218   -0.127850    0.276708
      9          1           0       -2.281865   -1.299812    0.673283
     10          1           0       -2.330494    0.259583    1.499352
     11          1           0       -1.816428   -0.119716   -1.501937
     12          1           0       -1.805708    1.420623   -0.663709
     13          1           0        0.793855    2.167943    0.189109
     14          1           0        2.862194    0.663123    0.481719
 ---------------------------------------------------------------------

 SCF Done:  E(RHF) =  -319.222290370     A.U. after    2 cycles

 The electronic state is 1-A.
 Alpha  occ. eigenvalues --  -15.59611 -15.57662 -15.52748 -11.28349 -11.25904
 Alpha  occ. eigenvalues --  -11.24177 -11.22481  -1.43970  -1.21983  -1.12085
 Alpha  occ. eigenvalues --   -1.03232  -0.90629  -0.89756  -0.84539  -0.77128
 Alpha  occ. eigenvalues --   -0.68735  -0.67145  -0.62912  -0.60873  -0.56943
 Alpha  occ. eigenvalues --   -0.54115  -0.51172  -0.50840  -0.47897  -0.46066
 Alpha  occ. eigenvalues --   -0.37326
 Alpha virt. eigenvalues --    0.02698   0.03820   0.04059   0.04663   0.06291
 Alpha virt. eigenvalues --    0.06487   0.07590   0.09266   0.10745   0.11424
 Alpha virt. eigenvalues --    0.11639   0.12819   0.13577   0.14149   0.14936

 Mulliken charges:
               1
     1  C   -0.322639
     2  C   -0.172344
     3  C    0.030289
     4  C   -0.603998
     5  N    0.545604
     6  N   -0.273336
     7  N    0.244223
     8  H    0.097929
     9  H    0.218654
    10  H    0.163321
    11  H    0.181805
    12  H    0.129826
    13  H   -0.243619
    14  H    0.004285
 Sum of Mulliken charges =   0.00000

 Dipole moment (field-independent basis, Debye):
    X=              0.0709    Y=              4.6492    Z=              0.5997  Tot=              4.6883

 Test job not archived.
 1\1\GINC-SE192\SP\RHF\Aug-CC-pVDZ\C4H7N3\OHZDE\09-Apr-2025\0\\#t hf au
 g-cc-pvdz iop(5/13=1,5/36=2,99/5=2) pseudo=read geom=check guess=(read
 ,tcheck) scf=(maxcycle=1)\\title\\0,1\C,0,-1.92932028,0.72733471,0.127
 43226\C,0,-1.1023129,-0.52770314,-0.14606209\C,0,0.35384198,-0.3296420
 2,0.11850873\C,0,1.41348499,-0.2837103,-0.7450862\N,0,2.47799477,-0.06
 29415,0.05352225\N,0,2.11754181,0.02377859,1.32925883\N,0,0.83890583,-
 0.13508044,1.37610023\H,0,-2.99144847,0.53576055,-0.03567832\H,0,-1.79
 444241,1.05671369,1.15811283\H,0,-1.62792233,1.54537622,-0.53006545\H,

 Normal termination of Gaussian 16 at Wed Apr  9 18:40:38 2025.
