 Gaussian 16, Revision C.01,

 ----------------------------------------------------------------------
 #t hf aug-cc-pvdz symm=none int=(grid=ultrafine) guess=(read,tcheck) s
 table=(opt,rrhf)
 ----------------------------------------------------------------------
 -----
 title
 -----
 Symbolic Z-matrix:
 Charge =  0 Multiplicity = 1

 SCF Done:  E(RHF) =  -304.523502877     A.U. after   16 cycles
 Normal termination of Gaussian 16 at Wed Apr  9 15:56:41 2025.
 Gaussian 16:  ES64L-G16RevC.01  3-Jul-2019

 ----------------------------------------------------------------------
 #t hf aug-cc-pvdz iop(5/13=1,5/36=2,99/5=2) pseudo=read geom=check gue
 ss=(read,tcheck) scf=(maxcycle=1)
 ----------------------------------------------------------------------
 -----
 title
 -----
 Structure from the checkpoint file:  "Grambow2020_b97d3_007027_reverse_mol1.chk"
 Charge =  0 Multiplicity = 1

                         Standard orientation:
 ---------------------------------------------------------------------
 Center     Atomic      Atomic             Coordinates (Angstroms)
 Number     Number       Type             X           Y           Z
 ---------------------------------------------------------------------
      1          8           0       -1.557800   -1.435188    0.019357
      2          6           0       -1.117246    0.443973   -0.631809
      3          6           0       -0.782729    1.322365    0.500732
      4          6           0        0.326939    0.740529   -0.372037
      5          6           0        1.220709   -0.270583    0.276982
      6          8           0        2.367291   -0.490255   -0.062308
      7          1           0       -2.281662   -1.186010    0.633998
      8          1           0       -1.747331   -0.672783   -0.854205
      9          1           0       -1.053550    2.377773    0.416384
     10          1           0       -0.828304    0.929459    1.520852
     11          1           0        0.816955    1.344891   -1.137867
     12          1           0        0.731922   -0.807485    1.121243
 ---------------------------------------------------------------------

 SCF Done:  E(RHF) =  -304.831394599     A.U. after    2 cycles

 The electronic state is 1-A.
 Alpha  occ. eigenvalues --  -20.56867 -20.55256 -11.35764 -11.33675 -11.29171
 Alpha  occ. eigenvalues --  -11.28299  -1.47539  -1.41842  -1.20165  -0.93657
 Alpha  occ. eigenvalues --   -0.84568  -0.79575  -0.72243  -0.68351  -0.65364
 Alpha  occ. eigenvalues --   -0.61894  -0.59456  -0.56819  -0.52866  -0.49239
 Alpha  occ. eigenvalues --   -0.47854  -0.42710  -0.38777
 Alpha virt. eigenvalues --    0.02690   0.03370   0.04310   0.04825   0.05198
 Alpha virt. eigenvalues --    0.06668   0.07372   0.09428   0.10505   0.11622
 Alpha virt. eigenvalues --    0.12241   0.13015   0.14528   0.14967   0.15529

 Mulliken charges:
               1
     1  O   -1.119040
     2  C   -0.085016
     3  C    0.162634
     4  C    0.397293
     5  C    0.718522
     6  O   -1.124818
     7  H    0.428952
     8  H    0.668777
     9  H   -0.062845
    10  H   -0.049288
    11  H   -0.137773
    12  H    0.202601
 Sum of Mulliken charges =  -0.00000

 Dipole moment (field-independent basis, Debye):
    X=             -3.1873    Y=              2.9685    Z=              1.7291  Tot=              4.6862

 Test job not archived.
 1\1\GINC-SE009\SP\RHF\Aug-CC-pVDZ\C4H6O2\OHZDE\09-Apr-2025\0\\#t hf au
 g-cc-pvdz iop(5/13=1,5/36=2,99/5=2) pseudo=read geom=check guess=(read
 ,tcheck) scf=(maxcycle=1)\\title\\0,1\O,0,-1.82015583,0.61983762,0.707
 15376\C,0,-0.75636494,-0.62535754,-0.50412206\C,0,0.28227006,0.1198216
 9,-1.23355326\C,0,0.65488184,-0.71952076,-0.01359886\C,0,1.10543348,0.
 03506292,1.19883882\O,0,1.84314386,-0.41706017,2.0528829\H,0,-2.111774
 42,1.24858046,0.01181951\H,0,-1.87685445,-0.39386382,0.11597755\H,0,0.
 53763828,-0.22549536,-2.23848573\H,0,0.36604143,1.20230575,-1.09824914

 Normal termination of Gaussian 16 at Wed Apr  9 15:56:45 2025.
