 Gaussian 16, Revision C.01,

 ----------------------------------------------------------------------
 #t hf aug-cc-pvdz symm=none int=(grid=ultrafine) guess=(read,tcheck) s
 table=(opt,rrhf)
 ----------------------------------------------------------------------
 -----
 title
 -----
 Symbolic Z-matrix:
 Charge =  0 Multiplicity = 1

 SCF Done:  E(RHF) =  -269.824387534     A.U. after   15 cycles

 1\1\GINC-SE168\Stability\RHF\Aug-CC-pVDZ\C5H10O1\OHZDE\09-Apr-2025\0\\
 #t hf aug-cc-pvdz symm=none int=(grid=ultrafine) guess=(read,tcheck) s
 table=(opt,rrhf)\\title\\0,1\C,0,-1.40847828,-1.14925348,-0.10076996\C
 ,0,-0.76659501,-0.00910872,0.61833561\C,0,-1.27252862,1.32403104,0.176
 7718\C,0,1.40929955,-0.16546347,0.75271287\C,0,2.20824924,-0.08176528,
 -0.47873258\O,0,0.83014877,0.0589752,-0.81541296\H,0,-1.60226461,-0.98
 562373,-1.17867191\H,0,-2.39140031,-1.27019608,0.39512581\H,0,-0.87073
 346,-2.09811348,0.03190457\H,0,-1.47023453,1.42500027,-0.90818699\H,0,

 Normal termination of Gaussian 16 at Wed Apr  9 15:48:58 2025.
 Gaussian 16:  ES64L-G16RevC.01  3-Jul-2019

 ----------------------------------------------------------------------
 #t hf aug-cc-pvdz iop(5/13=1,5/36=2,99/5=2) pseudo=read geom=check gue
 ss=(read,tcheck) scf=(maxcycle=1)
 ----------------------------------------------------------------------
 -----
 title
 -----
 Structure from the checkpoint file:  "Grambow2020_b97d3_006767_forward_mol1.chk"
 Charge =  0 Multiplicity = 1

                         Standard orientation:
 ---------------------------------------------------------------------
 Center     Atomic      Atomic             Coordinates (Angstroms)
 Number     Number       Type             X           Y           Z
 ---------------------------------------------------------------------
      1          6           0        1.462610    1.252740   -0.118090
      2          6           0        0.962185    0.001860    0.525287
      3          6           0        1.491154   -1.239610   -0.112799
      4          6           0       -1.193122   -0.000547    0.888146
      5          6           0       -2.110317   -0.002998   -0.260998
      6          8           0       -0.769204   -0.015666   -0.744298
      7          1           0        1.551618    1.219642   -1.221350
      8          1           0        2.483813    1.383713    0.290155
      9          1           0        0.890774    2.144306    0.173838
     10          1           0        1.579909   -1.209530   -1.216264
     11          1           0        0.942801   -2.143929    0.184499
     12          1           0        2.515337   -1.341499    0.296653
     13          1           0       -1.063818    0.928392    1.435555
     14          1           0       -1.070126   -0.923113    1.447400
     15          1           0       -2.669605    0.915785   -0.489126
     16          1           0       -2.682127   -0.917109   -0.476261
 ---------------------------------------------------------------------

 SCF Done:  E(RHF) =  -270.109624429     A.U. after    2 cycles

 The electronic state is 1-A.
 Alpha  occ. eigenvalues --  -20.55942 -11.32156 -11.29290 -11.24755 -11.21956
 Alpha  occ. eigenvalues --  -11.21938  -1.43624  -1.04252  -0.97942  -0.92620
 Alpha  occ. eigenvalues --   -0.85531  -0.71375  -0.69620  -0.65313  -0.59304
 Alpha  occ. eigenvalues --   -0.58467  -0.56518  -0.54604  -0.53195  -0.52032
 Alpha  occ. eigenvalues --   -0.48918  -0.45598  -0.43954  -0.30198
 Alpha virt. eigenvalues --    0.03483   0.03939   0.04116   0.04641   0.06121
 Alpha virt. eigenvalues --    0.06292   0.06830   0.06914   0.08964   0.09424
 Alpha virt. eigenvalues --    0.09891   0.11560   0.13153   0.13906   0.15031

 Mulliken charges:
               1
     1  C   -0.262170
     2  C   -0.695303
     3  C   -0.262983
     4  C    0.220350
     5  C    0.608120
     6  O   -0.987748
     7  H    0.202064
     8  H    0.230979
     9  H    0.147872
    10  H    0.200246
    11  H    0.149469
    12  H    0.234726
    13  H    0.056451
    14  H    0.051600
    15  H    0.053148
    16  H    0.053179
 Sum of Mulliken charges =  -0.00000

 Dipole moment (field-independent basis, Debye):
    X=             -1.4556    Y=              0.0246    Z=              0.7637  Tot=              1.6439

 Test job not archived.
 1\1\GINC-SE168\SP\RHF\Aug-CC-pVDZ\C5H10O1\OHZDE\09-Apr-2025\0\\#t hf a
 ug-cc-pvdz iop(5/13=1,5/36=2,99/5=2) pseudo=read geom=check guess=(rea
 d,tcheck) scf=(maxcycle=1)\\title\\0,1\C,0,-1.40847828,-1.14925348,-0.
 10076996\C,0,-0.76659501,-0.00910872,0.61833561\C,0,-1.27252862,1.3240
 3104,0.1767718\C,0,1.40929955,-0.16546347,0.75271287\C,0,2.20824924,-0
 .08176528,-0.47873258\O,0,0.83014877,0.0589752,-0.81541296\H,0,-1.6022
 6461,-0.98562373,-1.17867191\H,0,-2.39140031,-1.27019608,0.39512581\H,
 0,-0.87073346,-2.09811348,0.03190457\H,0,-1.47023453,1.42500027,-0.908

 Normal termination of Gaussian 16 at Wed Apr  9 15:49:03 2025.
