 Gaussian 16, Revision C.01,

 ----------------------------------------------------------------------
 #t hf aug-cc-pvdz symm=none int=(grid=ultrafine) guess=(read,tcheck) s
 table=(opt,rrhf)
 ----------------------------------------------------------------------
 -----
 title
 -----
 Symbolic Z-matrix:
 Charge =  0 Multiplicity = 1

 SCF Done:  E(RHF) =  -286.652467014     A.U. after   19 cycles
 Normal termination of Gaussian 16 at Wed Apr  9 18:43:56 2025.
 Gaussian 16:  ES64L-G16RevC.01  3-Jul-2019

 ----------------------------------------------------------------------
 #t hf aug-cc-pvdz iop(5/13=1,5/36=2,99/5=2) pseudo=read geom=check gue
 ss=(read,tcheck) scf=(maxcycle=1)
 ----------------------------------------------------------------------
 -----
 title
 -----
 Structure from the checkpoint file:  "Grambow2020_wb97xd3_008001_forward_mol1.chk"
 Charge =  0 Multiplicity = 1

                         Standard orientation:
 ---------------------------------------------------------------------
 Center     Atomic      Atomic             Coordinates (Angstroms)
 Number     Number       Type             X           Y           Z
 ---------------------------------------------------------------------
      1          6           0        2.140142   -1.143881   -0.061349
      2          6           0        1.325530    0.072080   -0.018932
      3          6           0        1.135734    1.320817    0.111070
      4          6           0       -0.320617    1.653395    0.053723
      5          6           0       -0.390912    0.197646   -0.337644
      6          6           0       -1.241099   -0.790336    0.537237
      7          7           0       -2.376356   -0.614141   -0.229658
      8          1           0        1.803975   -1.860603    0.689321
      9          1           0        3.177675   -0.883969    0.148673
     10          1           0        2.087374   -1.618990   -1.041877
     11          1           0       -0.619317    2.380576   -0.695855
     12          1           0       -0.753167    1.887724    1.022742
     13          1           0       -0.475431    0.045924   -1.412424
     14          1           0       -1.297137   -0.379369    1.550283
     15          1           0       -0.763157   -1.778398    0.570757
     16          1           0       -2.418991   -1.352243   -0.928646
 ---------------------------------------------------------------------

 SCF Done:  E(RHF) =  -286.952614820     A.U. after    2 cycles

 The electronic state is 1-A.
 Alpha  occ. eigenvalues --  -15.42317 -11.31333 -11.30968 -11.29021 -11.28941
 Alpha  occ. eigenvalues --  -11.28473 -11.26767  -1.21688  -1.13443  -1.05494
 Alpha  occ. eigenvalues --   -0.94235  -0.89627  -0.81815  -0.70682  -0.67543
 Alpha  occ. eigenvalues --   -0.66178  -0.63144  -0.61811  -0.60637  -0.59291
 Alpha  occ. eigenvalues --   -0.54508  -0.53142  -0.48643  -0.41616  -0.40952
 Alpha  occ. eigenvalues --   -0.28494
 Alpha virt. eigenvalues --    0.00848   0.02792   0.03644   0.04361   0.04938
 Alpha virt. eigenvalues --    0.05468   0.06007   0.06764   0.07938   0.08240
 Alpha virt. eigenvalues --    0.09787   0.11294   0.12499   0.12576   0.13417

 Mulliken charges:
               1
     1  C   -0.462649
     2  C    0.704295
     3  C   -0.519745
     4  C   -0.031061
     5  C   -0.431307
     6  C   -0.643274
     7  N    0.188198
     8  H    0.251361
     9  H    0.217182
    10  H    0.273758
    11  H    0.098111
    12  H    0.164934
    13  H    0.021519
    14  H    0.053778
    15  H   -0.015023
    16  H    0.129922
 Sum of Mulliken charges =  -0.00000

 Dipole moment (field-independent basis, Debye):
    X=              5.9580    Y=             -0.2574    Z=             -0.1104  Tot=              5.9646

 Test job not archived.
 1\1\GINC-SE226\SP\RHF\Aug-CC-pVDZ\C6H9N1\OHZDE\09-Apr-2025\0\\#t hf au
 g-cc-pvdz iop(5/13=1,5/36=2,99/5=2) pseudo=read geom=check guess=(read
 ,tcheck) scf=(maxcycle=1)\\title\\0,1\C,0,1.49583942,0.97117489,1.6021
 7583\C,0,1.18377815,-0.09166473,0.644605\C,0,1.46429056,-1.07425941,-0
 .109111\C,0,0.26497674,-1.51988331,-0.88236313\C,0,-0.4004959,-0.53396
 286,0.04630334\C,0,-1.17820134,0.68638652,-0.56219301\N,0,-2.38287124,
 0.01067641,-0.57515197\H,0,1.21878607,1.9468847,1.2003827\H,0,2.568134
 2,0.96945437,1.79792427\H,0,0.96548879,0.82102635,2.54352223\H,0,-0.01

 Normal termination of Gaussian 16 at Wed Apr  9 18:44:02 2025.
