 Gaussian 16, Revision C.01,

 ----------------------------------------------------------------------
 #t hf aug-cc-pvdz symm=none int=(grid=ultrafine) guess=(read,tcheck) s
 table=(opt,rrhf)
 ----------------------------------------------------------------------
 -----
 title
 -----
 Symbolic Z-matrix:
 Charge =  0 Multiplicity = 1

 SCF Done:  E(RHF) =  -306.632376690     A.U. after   16 cycles
 Normal termination of Gaussian 16 at Wed Apr  9 19:09:00 2025.
 Gaussian 16:  ES64L-G16RevC.01  3-Jul-2019

 ----------------------------------------------------------------------
 #t hf aug-cc-pvdz iop(5/13=1,5/36=2,99/5=2) pseudo=read geom=check gue
 ss=(read,tcheck) scf=(maxcycle=1)
 ----------------------------------------------------------------------
 -----
 title
 -----
 Structure from the checkpoint file:  "Grambow2020_wb97xd3_008795_reverse_mol1.chk"
 Charge =  0 Multiplicity = 1

                         Standard orientation:
 ---------------------------------------------------------------------
 Center     Atomic      Atomic             Coordinates (Angstroms)
 Number     Number       Type             X           Y           Z
 ---------------------------------------------------------------------
      1          8           0        2.325882   -0.024202    0.051824
      2          6           0        1.125216   -0.026939   -0.030185
      3          6           0        0.296928   -1.265890   -0.238226
      4          6           0       -1.098971   -1.113978    0.359248
      5          6           0       -1.792038    0.142726   -0.168752
      6          6           0       -1.026390    1.433536   -0.110457
      7          6           0        0.353877    1.282049    0.029318
      8          1           0        0.222169   -1.403598   -1.324464
      9          1           0        0.843538   -2.123358    0.155326
     10          1           0       -1.697858   -2.002452    0.148189
     11          1           0       -1.021408   -1.050184    1.450504
     12          1           0       -2.000906    0.033964   -1.243588
     13          1           0       -2.774231    0.270723    0.290031
     14          1           0       -0.333095    1.600608    1.031692
     15          1           0        1.003005    2.158880    0.032049
 ---------------------------------------------------------------------

 SCF Done:  E(RHF) =  -306.949261066     A.U. after    2 cycles

 The electronic state is 1-A.
 Alpha  occ. eigenvalues --  -20.55737 -11.35451 -11.29440 -11.25746 -11.25643
 Alpha  occ. eigenvalues --  -11.25348 -11.24758  -1.49357  -1.16122  -1.06679
 Alpha  occ. eigenvalues --   -1.00140  -0.86854  -0.84018  -0.72994  -0.69241
 Alpha  occ. eigenvalues --   -0.65254  -0.64376  -0.60225  -0.59081  -0.58640
 Alpha  occ. eigenvalues --   -0.53964  -0.51254  -0.50026  -0.48346  -0.44685
 Alpha  occ. eigenvalues --   -0.34168
 Alpha virt. eigenvalues --    0.03051   0.03378   0.03972   0.04026   0.05920
 Alpha virt. eigenvalues --    0.06738   0.06803   0.07083   0.07552   0.09249
 Alpha virt. eigenvalues --    0.11218   0.12578   0.13726   0.14054   0.14123

 Mulliken charges:
               1
     1  O   -1.357408
     2  C    1.091837
     3  C   -0.308967
     4  C   -0.252379
     5  C   -0.268745
     6  C   -0.918181
     7  C    0.481354
     8  H    0.285339
     9  H    0.151791
    10  H    0.138235
    11  H    0.134448
    12  H    0.279964
    13  H    0.149700
    14  H    0.460791
    15  H   -0.067780
 Sum of Mulliken charges =   0.00000

 Dipole moment (field-independent basis, Debye):
    X=             -1.5955    Y=             -2.0430    Z=              0.4038  Tot=              2.6234

 Test job not archived.
 1\1\GINC-SE116\SP\RHF\Aug-CC-pVDZ\C6H8O1\OHZDE\09-Apr-2025\0\\#t hf au
 g-cc-pvdz iop(5/13=1,5/36=2,99/5=2) pseudo=read geom=check guess=(read
 ,tcheck) scf=(maxcycle=1)\\title\\0,1\O,0,0.86998313,-2.53420422,0.504
 34737\C,0,0.52984102,-1.41889097,0.20650248\C,0,-0.88730437,-1.0263352
 ,-0.11277919\C,0,-1.15093589,0.43992129,0.2176373\C,0,-0.12901646,1.35
 179203,-0.46251071\C,0,1.32379497,1.00569798,-0.30324912\C,0,1.5654326
 9,-0.3118576,0.08826498\H,0,-1.01399647,-1.1920265,-1.1902586\H,0,-1.5
 6454146,-1.71191532,0.39736436\H,0,-2.16707492,0.71481859,-0.07303497\

 Normal termination of Gaussian 16 at Wed Apr  9 19:09:05 2025.
