 Gaussian 16, Revision C.01,

 ----------------------------------------------------------------------
 #t hf aug-cc-pvdz symm=none int=(grid=ultrafine) guess=(read,tcheck) s
 table=(opt,rrhf)
 ----------------------------------------------------------------------
 -----
 title
 -----
 Symbolic Z-matrix:
 Charge =  0 Multiplicity = 1

 SCF Done:  E(RHF) =  -295.649932516     A.U. after   20 cycles
 Normal termination of Gaussian 16 at Wed Apr  9 15:49:37 2025.
 Gaussian 16:  ES64L-G16RevC.01  3-Jul-2019

 ----------------------------------------------------------------------
 #t hf aug-cc-pvdz iop(5/13=1,5/36=2,99/5=2) pseudo=read geom=check gue
 ss=(read,tcheck) scf=(maxcycle=1)
 ----------------------------------------------------------------------
 -----
 title
 -----
 Structure from the checkpoint file:  "Grambow2020_b97d3_006789_forward_mol1.chk"
 Charge =  0 Multiplicity = 1

                         Standard orientation:
 ---------------------------------------------------------------------
 Center     Atomic      Atomic             Coordinates (Angstroms)
 Number     Number       Type             X           Y           Z
 ---------------------------------------------------------------------
      1          7           0        0.127858    1.727996    0.174715
      2          6           0        0.023448    0.344724   -0.049173
      3          7           0       -1.058129   -0.303586   -0.122383
      4          7           0       -2.173820   -0.881247   -0.034196
      5          6           0        2.022737   -1.056586    0.327280
      6          7           0        1.260011   -0.288428   -0.298325
      7          1           0        0.990530    2.108345   -0.215482
      8          1           0       -0.683369    2.251695   -0.148925
      9          1           0       -2.643191   -0.555946    0.847539
     10          1           0        2.967481   -1.316064   -0.190451
 ---------------------------------------------------------------------

 SCF Done:  E(RHF) =  -295.934542581     A.U. after    2 cycles

 The electronic state is 1-A.
 Alpha  occ. eigenvalues --  -15.63293 -15.62084 -15.55994 -15.53051 -11.41386
 Alpha  occ. eigenvalues --  -11.24596  -1.40589  -1.29286  -1.21022  -1.14728
 Alpha  occ. eigenvalues --   -0.92910  -0.86409  -0.78887  -0.73574  -0.70939
 Alpha  occ. eigenvalues --   -0.65137  -0.64223  -0.55969  -0.52703  -0.51100
 Alpha  occ. eigenvalues --   -0.45970  -0.27996
 Alpha virt. eigenvalues --   -0.02546   0.01846   0.04134   0.05177   0.06160
 Alpha virt. eigenvalues --    0.09340   0.09529   0.10667   0.10713   0.12459
 Alpha virt. eigenvalues --    0.13106   0.13877   0.13935   0.16395   0.16931

 Mulliken charges:
               1
     1  N    0.337330
     2  C   -1.362232
     3  N   -0.277908
     4  N    0.651879
     5  C   -0.505304
     6  N    0.528166
     7  H    0.170441
     8  H    0.130480
     9  H    0.242665
    10  H    0.084482
 Sum of Mulliken charges =  -0.00000

 Dipole moment (field-independent basis, Debye):
    X=             -2.0667    Y=              3.7735    Z=             -0.4977  Tot=              4.3311

 Test job not archived.
 1\1\GINC-SE092\SP\RHF\Aug-CC-pVDZ\C2H4N4\OHZDE\09-Apr-2025\0\\#t hf au
 g-cc-pvdz iop(5/13=1,5/36=2,99/5=2) pseudo=read geom=check guess=(read
 ,tcheck) scf=(maxcycle=1)\\title\\0,1\N,0,1.52243262,-0.0917513,-0.324
 75311\C,0,0.1711589,-0.06924462,0.05998395\N,0,-0.54518288,-1.0880361,
 0.27068279\N,0,-1.21316436,-2.15482526,0.31536448\C,0,-1.10698565,2.01
 807921,-0.2746285\N,0,-0.33147667,1.22672855,0.30463829\H,0,2.01112472
 ,0.75492253,-0.03244059\H,0,2.01668654,-0.92631601,-0.01441787\H,0,-1.
 03076707,-2.69365438,-0.56780054\H,0,-1.23049114,3.00612339,0.2116131\

 Normal termination of Gaussian 16 at Wed Apr  9 15:49:40 2025.
