 Gaussian 16, Revision C.01,

 ----------------------------------------------------------------------
 #t hf aug-cc-pvdz symm=none int=(grid=ultrafine) guess=(read,tcheck) s
 table=(opt,rrhf)
 ----------------------------------------------------------------------
 -----
 title
 -----
 Symbolic Z-matrix:
 Charge =  0 Multiplicity = 1

 SCF Done:  E(RHF) =  -358.437673410     A.U. after   16 cycles
 Normal termination of Gaussian 16 at Wed Apr  9 17:39:18 2025.
 Gaussian 16:  ES64L-G16RevC.01  3-Jul-2019

 ----------------------------------------------------------------------
 #t hf aug-cc-pvdz iop(5/13=1,5/36=2,99/5=2) pseudo=read geom=check gue
 ss=(read,tcheck) scf=(maxcycle=1)
 ----------------------------------------------------------------------
 -----
 title
 -----
 Structure from the checkpoint file:  "Grambow2020_wb97xd3_006756_reverse_mol2.chk"
 Charge =  0 Multiplicity = 1

                         Standard orientation:
 ---------------------------------------------------------------------
 Center     Atomic      Atomic             Coordinates (Angstroms)
 Number     Number       Type             X           Y           Z
 ---------------------------------------------------------------------
      1          8           0        1.469499   -1.588756   -0.048402
      2          6           0        1.565239   -0.377129    0.033265
      3          6           0        0.481513    0.558734   -0.007087
      4          8           0        0.671519    1.912901    0.114653
      5          7           0       -0.769271    0.135912   -0.052374
      6          6           0       -2.040655    0.293660   -0.059661
      7          6           0       -1.564903   -1.091200    0.053081
      8          1           0        2.550908    0.116641    0.148498
      9          1           0        0.863328    2.297056   -0.744522
     10          1           0       -2.755663    1.074106    0.115278
     11          1           0       -1.506354   -1.595130    1.015387
     12          1           0       -1.542628   -1.741611   -0.815624
 ---------------------------------------------------------------------

 SCF Done:  E(RHF) =  -358.800054913     A.U. after    2 cycles

 The electronic state is 1-A.
 Alpha  occ. eigenvalues --  -20.58056 -20.50546 -15.63121 -11.32519 -11.32380
 Alpha  occ. eigenvalues --  -11.30711 -11.30527  -1.49508  -1.44051  -1.38879
 Alpha  occ. eigenvalues --   -1.10668  -0.93840  -0.89155  -0.79926  -0.75674
 Alpha  occ. eigenvalues --   -0.71734  -0.69928  -0.64386  -0.62077  -0.60454
 Alpha  occ. eigenvalues --   -0.54726  -0.53887  -0.51092  -0.50300  -0.40149
 Alpha  occ. eigenvalues --   -0.28255
 Alpha virt. eigenvalues --    0.02892   0.03902   0.04451   0.04531   0.05797
 Alpha virt. eigenvalues --    0.05933   0.08461   0.10283   0.10461   0.10656
 Alpha virt. eigenvalues --    0.12615   0.13745   0.14372   0.14606   0.16057

 Mulliken charges:
               1
     1  O   -1.288424
     2  C    1.070769
     3  C    0.551926
     4  O   -1.342975
     5  N    1.084045
     6  C   -0.384804
     7  C    0.167365
     8  H    0.127249
     9  H    0.207809
    10  H   -0.167324
    11  H   -0.041506
    12  H    0.015871
 Sum of Mulliken charges =  -0.00000

 Dipole moment (field-independent basis, Debye):
    X=             -3.1383    Y=              2.1550    Z=             -0.8649  Tot=              3.9039

 Test job not archived.
 1\1\GINC-SE229\SP\RHF\Aug-CC-pVDZ\C4H5N1O2\OHZDE\09-Apr-2025\0\\#t hf
 aug-cc-pvdz iop(5/13=1,5/36=2,99/5=2) pseudo=read geom=check guess=(re
 ad,tcheck) scf=(maxcycle=1)\\title\\0,1\O,0,1.592913,1.37714102,0.9806
 7299\C,0,1.71967293,0.22284872,0.61268333\C,0,0.68849351,-0.60391926,0
 .06036631\O,0,0.91855797,-1.89276901,-0.35270309\N,0,-0.5133772,-0.109
 47512,-0.1769546\C,0,-1.71779222,-0.16318069,-0.61037806\C,0,-1.242319
 25,1.16264575,-0.1944488\H,0,2.69376074,-0.30122231,0.68432671\H,0,0.8
 2598205,-2.49738316,0.38785089\H,0,-2.33177679,-0.81427643,-1.20201337

 Normal termination of Gaussian 16 at Wed Apr  9 17:39:22 2025.
