 Gaussian 16, Revision C.01,

 ----------------------------------------------------------------------
 #t hf aug-cc-pvdz symm=none int=(grid=ultrafine) guess=(read,tcheck) s
 table=(opt,rrhf)
 ----------------------------------------------------------------------
 -----
 title
 -----
 Symbolic Z-matrix:
 Charge =  0 Multiplicity = 1

 SCF Done:  E(RHF) =  -305.740341802     A.U. after   15 cycles
 Normal termination of Gaussian 16 at Wed Apr  9 03:06:22 2025.
 Gaussian 16:  ES64L-G16RevC.01  3-Jul-2019

 ----------------------------------------------------------------------
 #t hf aug-cc-pvdz iop(5/13=1,5/36=2,99/5=2) pseudo=read geom=check gue
 ss=(read,tcheck) scf=(maxcycle=1)
 ----------------------------------------------------------------------
 -----
 title
 -----
 Structure from the checkpoint file:  "Grambow2020_b97d3_006515_reverse_mol2.chk"
 Charge =  0 Multiplicity = 1

                         Standard orientation:
 ---------------------------------------------------------------------
 Center     Atomic      Atomic             Coordinates (Angstroms)
 Number     Number       Type             X           Y           Z
 ---------------------------------------------------------------------
      1          8           0        1.981270    1.018714   -0.106087
      2          6           0        1.825284   -0.374827    0.108068
      3          6           0        0.391363   -0.719415    0.483597
      4          6           0       -2.215067    0.881615    0.515493
      5          6           0       -1.795148   -0.247842   -0.287194
      6          8           0       -0.424310   -0.331371   -0.632573
      7          1           0        1.196173    1.283935   -0.625059
      8          1           0        2.111902   -0.966075   -0.783095
      9          1           0        2.496475   -0.655932    0.931503
     10          1           0        0.274215   -1.799394    0.693482
     11          1           0       -3.307990    0.713199    0.682535
     12          1           0        0.087593   -0.142783    1.374926
     13          1           0       -2.338458    0.086220   -1.218134
     14          1           0       -2.214182   -1.255092   -0.066664
 ---------------------------------------------------------------------

 SCF Done:  E(RHF) =  -306.053666382     A.U. after    2 cycles

 The electronic state is 1-A.
 Alpha  occ. eigenvalues --  -20.56213 -20.53935 -11.31795 -11.29589 -11.29522
 Alpha  occ. eigenvalues --  -11.28543  -1.47918  -1.43354  -1.06266  -0.99443
 Alpha  occ. eigenvalues --   -0.85142  -0.79164  -0.70525  -0.68724  -0.65164
 Alpha  occ. eigenvalues --   -0.64004  -0.60784  -0.57845  -0.55049  -0.50142
 Alpha  occ. eigenvalues --   -0.49300  -0.44768  -0.43323  -0.38965
 Alpha virt. eigenvalues --    0.02923   0.03636   0.03906   0.04913   0.05019
 Alpha virt. eigenvalues --    0.06000   0.06895   0.06972   0.08775   0.11550
 Alpha virt. eigenvalues --    0.11854   0.12587   0.13673   0.14515   0.15423

 Mulliken charges:
               1
     1  O   -1.166498
     2  C    0.523781
     3  C    0.337787
     4  C   -0.307988
     5  C    0.449752
     6  O   -1.351764
     7  H    0.400102
     8  H    0.142766
     9  H    0.109175
    10  H    0.096826
    11  H    0.103806
    12  H    0.266812
    13  H    0.183704
    14  H    0.211740
 Sum of Mulliken charges =  -0.00000

 Dipole moment (field-independent basis, Debye):
    X=             -2.9153    Y=             -3.0821    Z=             -0.0470  Tot=              4.2427

 Test job not archived.
 1\1\GINC-SE040\SP\RHF\Aug-CC-pVDZ\C4H8O2\OHZDE\09-Apr-2025\0\\#t hf au
 g-cc-pvdz iop(5/13=1,5/36=2,99/5=2) pseudo=read geom=check guess=(read
 ,tcheck) scf=(maxcycle=1)\\title\\0,1\O,0,-2.28944207,0.40626569,-0.68
 694061\C,0,-1.89201726,-0.50525538,0.32465773\C,0,-0.3887815,-0.740677
 31,0.29725243\C,0,1.91856712,0.58519193,-1.21139118\C,0,1.59563134,0.5
 4379045,0.1993933\O,0,0.22538386,0.53100844,0.5567718\H,0,-1.61913633,
 1.11773369,-0.66336516\H,0,-2.17920801,-0.15479329,1.3349026\H,0,-2.41
 405333,-1.45318143,0.1336659\H,0,-0.07954518,-1.48360545,1.05656764\H,

 Normal termination of Gaussian 16 at Wed Apr  9 03:06:26 2025.
