 Gaussian 16, Revision C.01,

 ----------------------------------------------------------------------
 #t hf aug-cc-pvdz symm=none int=(grid=ultrafine) guess=(read,tcheck) s
 table=(opt,rrhf)
 ----------------------------------------------------------------------
 -----
 title
 -----
 Symbolic Z-matrix:
 Charge =  0 Multiplicity = 1

 SCF Done:  E(RHF) =  -286.775646945     A.U. after   13 cycles
 Normal termination of Gaussian 16 at Wed Apr  9 18:26:32 2025.
 Gaussian 16:  ES64L-G16RevC.01  3-Jul-2019

 ----------------------------------------------------------------------
 #t hf aug-cc-pvdz iop(5/13=1,5/36=2,99/5=2) pseudo=read geom=check gue
 ss=(read,tcheck) scf=(maxcycle=1)
 ----------------------------------------------------------------------
 -----
 title
 -----
 Structure from the checkpoint file:  "Grambow2020_wb97xd3_007556_reverse_mol2.chk"
 Charge =  0 Multiplicity = 1

                         Standard orientation:
 ---------------------------------------------------------------------
 Center     Atomic      Atomic             Coordinates (Angstroms)
 Number     Number       Type             X           Y           Z
 ---------------------------------------------------------------------
      1          6           0       -2.434440    0.667070    1.119705
      2          6           0       -1.812717   -0.044593    0.206997
      3          6           0        1.692066    1.241993   -0.529272
      4          6           0        2.348810    0.271291    0.030615
      5          6           0        2.997615   -0.706834    0.591963
      6          6           0       -1.106544   -1.219946   -0.250359
      7          7           0       -1.452606   -0.073819   -1.138976
      8          1           0       -2.468523    0.328437    2.145853
      9          1           0       -2.914172    1.603661    0.866408
     10          1           0        2.832931   -0.960153    1.632875
     11          1           0        2.081652    2.253282   -0.511745
     12          1           0        0.738472    1.063703   -1.017767
     13          1           0        3.725199   -1.287182    0.036960
     14          1           0       -0.044014   -1.338824   -0.069847
     15          1           0       -1.671014   -2.140959   -0.355805
     16          1           0       -2.221029   -0.259125   -1.771995
 ---------------------------------------------------------------------

 SCF Done:  E(RHF) =  -287.083840862     A.U. after    2 cycles

 The electronic state is 1-A.
 Alpha  occ. eigenvalues --  -15.51790 -11.28419 -11.27853 -11.26161 -11.23968
 Alpha  occ. eigenvalues --  -11.23495 -11.23005  -1.29407  -1.07096  -1.00806
 Alpha  occ. eigenvalues --   -0.95752  -0.91934  -0.78955  -0.71423  -0.69495
 Alpha  occ. eigenvalues --   -0.66178  -0.63393  -0.62053  -0.61124  -0.60418
 Alpha  occ. eigenvalues --   -0.53774  -0.52007  -0.45514  -0.38029  -0.37923
 Alpha  occ. eigenvalues --   -0.36563
 Alpha virt. eigenvalues --    0.03402   0.03827   0.04070   0.04422   0.05268
 Alpha virt. eigenvalues --    0.05738   0.06302   0.07376   0.08927   0.09710
 Alpha virt. eigenvalues --    0.10813   0.10922   0.12347   0.12957   0.13812

 Mulliken charges:
               1
     1  C    0.054357
     2  C   -0.380945
     3  C    0.190687
     4  C    0.030482
     5  C   -0.096919
     6  C   -0.107760
     7  N    0.602298
     8  H   -0.077722
     9  H   -0.137797
    10  H   -0.050771
    11  H   -0.063181
    12  H    0.045969
    13  H   -0.042192
    14  H   -0.091635
    15  H   -0.085569
    16  H    0.210696
 Sum of Mulliken charges =  -0.00000

 Dipole moment (field-independent basis, Debye):
    X=             -1.1724    Y=             -1.3339    Z=              0.1582  Tot=              1.7829

 Test job not archived.
 1\1\GINC-SE104\SP\RHF\Aug-CC-pVDZ\C6H9N1\OHZDE\09-Apr-2025\0\\#t hf au
 g-cc-pvdz iop(5/13=1,5/36=2,99/5=2) pseudo=read geom=check guess=(read
 ,tcheck) scf=(maxcycle=1)\\title\\0,1\C,0,-1.83912438,0.93011201,2.033
 70274\C,0,-1.55018054,-0.02026035,1.17385177\C,0,1.06466137,1.04609166
 ,-1.37691094\C,0,2.04334361,0.31925457,-0.92865032\C,0,3.01674734,-0.4
 1433736,-0.47354882\C,0,-0.9199453,-1.26338394,0.79076347\N,0,-1.78707
 477,-0.4676219,-0.1245805\H,0,-1.38510467,0.93465065,3.01485392\H,0,-2
 .52576406,1.72619668,1.7762549\H,0,3.34640729,-0.32726092,0.55530082\H

 Normal termination of Gaussian 16 at Wed Apr  9 18:26:37 2025.
