 Gaussian 16, Revision C.01,

 ----------------------------------------------------------------------
 #t hf aug-cc-pvdz symm=none int=(grid=ultrafine) guess=(read,tcheck) s
 table=(opt,rrhf)
 ----------------------------------------------------------------------
 -----
 title
 -----
 Symbolic Z-matrix:
 Charge =  0 Multiplicity = 1

 SCF Done:  E(RHF) =  -286.765730830     A.U. after   16 cycles
 Normal termination of Gaussian 16 at Wed Apr  9 18:42:44 2025.
 Gaussian 16:  ES64L-G16RevC.01  3-Jul-2019

 ----------------------------------------------------------------------
 #t hf aug-cc-pvdz iop(5/13=1,5/36=2,99/5=2) pseudo=read geom=check gue
 ss=(read,tcheck) scf=(maxcycle=1)
 ----------------------------------------------------------------------
 -----
 title
 -----
 Structure from the checkpoint file:  "Grambow2020_wb97xd3_007991_reverse_mol2.chk"
 Charge =  0 Multiplicity = 1

                         Standard orientation:
 ---------------------------------------------------------------------
 Center     Atomic      Atomic             Coordinates (Angstroms)
 Number     Number       Type             X           Y           Z
 ---------------------------------------------------------------------
      1          6           0        2.174734   -0.988583    0.252161
      2          6           0        1.431316    0.274893   -0.070125
      3          6           0        1.789505    1.476003    0.253891
      4          6           0        0.124074    0.256822   -0.851843
      5          6           0       -0.973038   -0.471318   -0.117260
      6          6           0       -1.773717    0.213356    0.913803
      7          7           0       -2.330728   -0.032007   -0.415169
      8          1           0        1.575061   -1.628374    0.902137
      9          1           0        3.116483   -0.776836    0.756117
     10          1           0        2.388222   -1.538357   -0.667010
     11          1           0        0.313329   -0.210757   -1.823008
     12          1           0       -0.216947    1.275273   -1.054406
     13          1           0       -0.816565   -1.537839    0.019603
     14          1           0       -1.563722    1.253498    1.136836
     15          1           0       -2.140912   -0.369098    1.751020
     16          1           0       -2.977104   -0.810497   -0.398866
 ---------------------------------------------------------------------

 SCF Done:  E(RHF) =  -287.070416052     A.U. after    2 cycles

 The electronic state is 1-A.
 Alpha  occ. eigenvalues --  -15.50635 -11.27804 -11.27562 -11.26636 -11.26049
 Alpha  occ. eigenvalues --  -11.26010 -11.24076  -1.27871  -1.12053  -0.99186
 Alpha  occ. eigenvalues --   -0.94289  -0.90060  -0.81322  -0.74699  -0.67973
 Alpha  occ. eigenvalues --   -0.65237  -0.62097  -0.59514  -0.58024  -0.55353
 Alpha  occ. eigenvalues --   -0.53196  -0.51059  -0.49672  -0.44265  -0.42886
 Alpha  occ. eigenvalues --   -0.38293
 Alpha virt. eigenvalues --    0.02852   0.03326   0.03706   0.04792   0.05689
 Alpha virt. eigenvalues --    0.06183   0.06435   0.07302   0.07811   0.08333
 Alpha virt. eigenvalues --    0.09764   0.11753   0.12166   0.13078   0.13597

 Mulliken charges:
               1
     1  C   -0.508003
     2  C    0.870046
     3  C   -0.648919
     4  C   -0.698785
     5  C   -0.519103
     6  C    0.251868
     7  N    0.484508
     8  H    0.224575
     9  H    0.127439
    10  H    0.240907
    11  H    0.206344
    12  H    0.169982
    13  H   -0.242852
    14  H   -0.061199
    15  H   -0.103821
    16  H    0.207014
 Sum of Mulliken charges =   0.00000

 Dipole moment (field-independent basis, Debye):
    X=             -0.3908    Y=             -4.0377    Z=              0.5923  Tot=              4.0996

 Test job not archived.
 1\1\GINC-SE112\SP\RHF\Aug-CC-pVDZ\C6H9N1\OHZDE\09-Apr-2025\0\\#t hf au
 g-cc-pvdz iop(5/13=1,5/36=2,99/5=2) pseudo=read geom=check guess=(read
 ,tcheck) scf=(maxcycle=1)\\title\\0,1\C,0,1.71384131,0.27852756,1.6483
 8743\C,0,1.45525591,-0.09489777,0.21779444\C,0,2.19046025,0.22211955,-
 0.7995176\C,0,0.24508483,-0.92738311,-0.18562435\C,0,-1.05679833,-0.22
 430837,0.10462086\C,0,-1.60860657,0.76214441,-0.8416219\N,0,-2.1739035
 4,-0.58339227,-0.76036602\H,0,0.91216607,0.91525419,2.02694494\H,0,2.6
 5514409,0.81565595,1.75394487\H,0,1.75621034,-0.62175688,2.26514902\H,

 Normal termination of Gaussian 16 at Wed Apr  9 18:42:50 2025.
