 Gaussian 16, Revision C.01,

 ----------------------------------------------------------------------
 #t hf aug-cc-pvdz symm=none int=(grid=ultrafine) guess=(read,tcheck) s
 table=(opt,rrhf)
 ----------------------------------------------------------------------
 -----
 title
 -----
 Symbolic Z-matrix:
 Charge =  0 Multiplicity = 1

 SCF Done:  E(RHF) =  -302.799471504     A.U. after   14 cycles
 Normal termination of Gaussian 16 at Wed Apr  9 18:45:39 2025.
 Gaussian 16:  ES64L-G16RevC.01  3-Jul-2019

 ----------------------------------------------------------------------
 #t hf aug-cc-pvdz iop(5/13=1,5/36=2,99/5=2) pseudo=read geom=check gue
 ss=(read,tcheck) scf=(maxcycle=1)
 ----------------------------------------------------------------------
 -----
 title
 -----
 Structure from the checkpoint file:  "Grambow2020_wb97xd3_008037_reverse_mol2.chk"
 Charge =  0 Multiplicity = 1

                         Standard orientation:
 ---------------------------------------------------------------------
 Center     Atomic      Atomic             Coordinates (Angstroms)
 Number     Number       Type             X           Y           Z
 ---------------------------------------------------------------------
      1          6           0       -2.080788    0.115550   -0.001791
      2          6           0       -0.778867   -0.638957   -0.116647
      3          6           0        0.404466   -0.131369   -0.978632
      4          7           0        1.259142   -0.998602   -0.171926
      5          6           0        0.376449   -0.510955    0.935432
      6          6           0        0.608171    1.027120    0.969473
      7          7           0        0.634878    1.198648   -0.330049
      8          1           0       -1.931653    1.177742    0.191423
      9          1           0       -2.665687    0.008155   -0.918013
     10          1           0       -2.678033   -0.289793    0.816812
     11          1           0       -0.944836   -1.695786   -0.323985
     12          1           0        0.720239    2.082199   -0.803284
     13          1           0        0.466277   -0.141083   -2.065592
     14          1           0        2.214742   -0.656742   -0.106579
     15          1           0        0.384226   -1.053350    1.876028
 ---------------------------------------------------------------------

 SCF Done:  E(RHF) =  -303.115779846     A.U. after    2 cycles

 The electronic state is 1-A.
 Alpha  occ. eigenvalues --  -15.53777 -15.50207 -11.31353 -11.26786 -11.25306
 Alpha  occ. eigenvalues --  -11.25214 -11.23026  -1.33986  -1.18790  -1.04474
 Alpha  occ. eigenvalues --   -0.96832  -0.92599  -0.83637  -0.78319  -0.71693
 Alpha  occ. eigenvalues --   -0.69931  -0.64168  -0.60491  -0.58471  -0.54516
 Alpha  occ. eigenvalues --   -0.53264  -0.51599  -0.48048  -0.46755  -0.44327
 Alpha  occ. eigenvalues --   -0.35654
 Alpha virt. eigenvalues --    0.03022   0.04036   0.04311   0.04435   0.05310
 Alpha virt. eigenvalues --    0.05747   0.06245   0.07284   0.09282   0.10356
 Alpha virt. eigenvalues --    0.11867   0.12876   0.13148   0.13922   0.14464

 Mulliken charges:
               1
     1  C   -0.552622
     2  C    0.390521
     3  C   -0.886878
     4  N    0.665125
     5  C   -0.383584
     6  C   -0.504026
     7  N    0.735209
     8  H    0.184526
     9  H    0.213153
    10  H    0.200378
    11  H   -0.068032
    12  H    0.027714
    13  H   -0.173202
    14  H    0.294094
    15  H   -0.142375
 Sum of Mulliken charges =  -0.00000

 Dipole moment (field-independent basis, Debye):
    X=             -0.8107    Y=             -0.0492    Z=             -2.5373  Tot=              2.6642

 Test job not archived.
 1\1\GINC-SE105\SP\RHF\Aug-CC-pVDZ\C5H8N2\OHZDE\09-Apr-2025\0\\#t hf au
 g-cc-pvdz iop(5/13=1,5/36=2,99/5=2) pseudo=read geom=check guess=(read
 ,tcheck) scf=(maxcycle=1)\\title\\0,1\C,0,1.68541782,-0.56014933,-0.40
 309359\C,0,0.65122787,0.17927861,0.41002902\C,0,-0.51381278,0.96596165
 ,-0.2417022\N,0,-1.19877301,0.85871854,1.04385917\C,0,-0.6127063,-0.51
 938009,1.02023802\C,0,-1.24378487,-1.18944686,-0.23406618\N,0,-1.16129
 508,-0.14033548,-1.01602019\H,0,1.24001146,-1.17171496,-1.18758391\H,0
 ,2.38176303,0.14348547,-0.86472568\H,0,2.26749427,-1.22055883,0.242012

 Normal termination of Gaussian 16 at Wed Apr  9 18:45:44 2025.
