 Gaussian 16, Revision C.01,

 ----------------------------------------------------------------------
 #t hf aug-cc-pvdz symm=none int=(grid=ultrafine) guess=(read,tcheck) s
 table=(opt,rrhf)
 ----------------------------------------------------------------------
 -----
 title
 -----
 Symbolic Z-matrix:
 Charge =  0 Multiplicity = 1

 SCF Done:  E(RHF) =  -322.462600123     A.U. after   16 cycles
 Normal termination of Gaussian 16 at Wed Apr  9 17:17:29 2025.
 Gaussian 16:  ES64L-G16RevC.01  3-Jul-2019

 ----------------------------------------------------------------------
 #t hf aug-cc-pvdz iop(5/13=1,5/36=2,99/5=2) pseudo=read geom=check gue
 ss=(read,tcheck) scf=(maxcycle=1)
 ----------------------------------------------------------------------
 -----
 title
 -----
 Structure from the checkpoint file:  "Grambow2020_wb97xd3_006555_forward_mol1.chk"
 Charge =  0 Multiplicity = 1

                         Standard orientation:
 ---------------------------------------------------------------------
 Center     Atomic      Atomic             Coordinates (Angstroms)
 Number     Number       Type             X           Y           Z
 ---------------------------------------------------------------------
      1          8           0        2.217152    0.402321    0.147537
      2          6           0        1.453664   -0.591159   -0.163067
      3          6           0        0.032024   -0.816648    0.199503
      4          6           0       -0.642617    0.399730    0.845499
      5          6           0       -1.932012   -0.117670    0.211067
      6          7           0       -0.916534   -0.371844   -0.891223
      7          6           0       -0.291964    1.010238   -0.534829
      8          1           0        1.537682    1.144144    0.103619
      9          1           0        2.032855   -1.467371   -0.465006
     10          1           0       -0.135407   -1.841727    0.552373
     11          1           0       -0.458441    0.790725    1.850932
     12          1           0       -2.413406   -1.014641    0.618123
     13          1           0       -2.675147    0.625094   -0.080719
     14          1           0       -0.924182    1.841169   -0.870087
 ---------------------------------------------------------------------

 SCF Done:  E(RHF) =  -322.793534826     A.U. after    2 cycles

 The electronic state is 1-A.
 Alpha  occ. eigenvalues --  -20.64697 -15.50130 -11.43326 -11.29207 -11.25427
 Alpha  occ. eigenvalues --  -11.24493 -11.19707  -1.58123  -1.29908  -1.03393
 Alpha  occ. eigenvalues --   -0.92977  -0.90898  -0.87260  -0.78613  -0.73792
 Alpha  occ. eigenvalues --   -0.68012  -0.66080  -0.64360  -0.61737  -0.58074
 Alpha  occ. eigenvalues --   -0.52644  -0.50584  -0.49387  -0.44381  -0.39578
 Alpha  occ. eigenvalues --   -0.28351
 Alpha virt. eigenvalues --    0.02198   0.02735   0.03664   0.04360   0.05075
 Alpha virt. eigenvalues --    0.05748   0.06117   0.08075   0.09569   0.10457
 Alpha virt. eigenvalues --    0.11539   0.12570   0.13450   0.13713   0.14155

 Mulliken charges:
               1
     1  O   -1.244302
     2  C    1.268147
     3  C   -0.301922
     4  C    0.704430
     5  C    0.064403
     6  N    0.275917
     7  C   -0.635786
     8  H    0.526572
     9  H    0.090612
    10  H   -0.198301
    11  H   -0.235327
    12  H   -0.104960
    13  H   -0.030847
    14  H   -0.178636
 Sum of Mulliken charges =  -0.00000

 Dipole moment (field-independent basis, Debye):
    X=              2.0590    Y=             -2.0157    Z=              2.9055  Tot=              4.0920

 Test job not archived.
 1\1\GINC-SE162\SP\RHF\Aug-CC-pVDZ\C5H7N1O1\OHZDE\09-Apr-2025\0\\#t hf
 aug-cc-pvdz iop(5/13=1,5/36=2,99/5=2) pseudo=read geom=check guess=(re
 ad,tcheck) scf=(maxcycle=1)\\title\\0,1\O,0,2.4499939,0.25942912,0.108
 0451\C,0,1.58178449,0.06116965,-0.82645783\C,0,0.18578272,-0.42881816,
 -0.70622423\C,0,-0.32385973,-0.49791468,0.73860012\C,0,-1.70443571,-0.
 21923453,0.14775903\N,0,-0.81912051,0.70105294,-0.67693986\C,0,-0.0524
 7446,1.02446982,0.640221\H,0,1.83292494,0.59680211,0.82868084\H,0,2.05
 643562,-0.0309877,-1.80655464\H,0,-0.03251696,-1.20739194,-1.44751006\

 Normal termination of Gaussian 16 at Wed Apr  9 17:17:34 2025.
