 Gaussian 16, Revision C.01,

 ----------------------------------------------------------------------
 #t hf aug-cc-pvdz symm=none int=(grid=ultrafine) guess=(read,tcheck) s
 table=(opt,rrhf)
 ----------------------------------------------------------------------
 -----
 title
 -----
 Symbolic Z-matrix:
 Charge =  0 Multiplicity = 1

 SCF Done:  E(RHF) =  -337.475839329     A.U. after   17 cycles
 Normal termination of Gaussian 16 at Wed Apr  9 03:58:26 2025.
 Gaussian 16:  ES64L-G16RevC.01  3-Jul-2019

 ----------------------------------------------------------------------
 #t hf aug-cc-pvdz iop(5/13=1,5/36=2,99/5=2) pseudo=read geom=check gue
 ss=(read,tcheck) scf=(maxcycle=1)
 ----------------------------------------------------------------------
 -----
 title
 -----
 Structure from the checkpoint file:  "Grambow2020_wb97xd3_008702_reverse_mol2.chk"
 Charge =  0 Multiplicity = 1

                         Standard orientation:
 ---------------------------------------------------------------------
 Center     Atomic      Atomic             Coordinates (Angstroms)
 Number     Number       Type             X           Y           Z
 ---------------------------------------------------------------------
      1          8           0        2.774631    0.055753   -0.030003
      2          6           0        1.756600   -0.574282   -0.002611
      3          6           0        0.393922    0.088964    0.023169
      4          6           0       -0.737016   -0.817414    0.041000
      5          7           0       -1.929695   -0.333457    0.009888
      6          6           0       -2.959572    0.233444   -0.171536
      7          7           0        0.269243    1.354265    0.026248
      8          1           0        1.768130   -1.682296    0.005498
      9          1           0       -0.620465   -1.891910    0.069150
     10          1           0       -3.641439    0.617943    0.577408
     11          1           0        1.196287    1.780306   -0.005119
 ---------------------------------------------------------------------

 SCF Done:  E(RHF) =  -337.807549583     A.U. after    2 cycles

 The electronic state is 1-A.
 Alpha  occ. eigenvalues --  -20.57575 -15.61727 -15.50736 -11.36503 -11.31174
 Alpha  occ. eigenvalues --  -11.31104 -11.29517  -1.50965  -1.33777  -1.23395
 Alpha  occ. eigenvalues --   -1.09217  -0.96738  -0.83083  -0.77286  -0.74876
 Alpha  occ. eigenvalues --   -0.73621  -0.68508  -0.65970  -0.62885  -0.57427
 Alpha  occ. eigenvalues --   -0.54370  -0.51344  -0.48720  -0.43912  -0.33054
 Alpha virt. eigenvalues --    0.00979   0.02928   0.04113   0.04990   0.05787
 Alpha virt. eigenvalues --    0.07772   0.08333   0.09039   0.09955   0.11039
 Alpha virt. eigenvalues --    0.11946   0.13374   0.13802   0.14279   0.14479

 Mulliken charges:
               1
     1  O   -1.175130
     2  C    1.108808
     3  C   -0.948965
     4  C   -0.687115
     5  N    0.938128
     6  C   -0.198831
     7  N    0.802941
     8  H    0.108701
     9  H   -0.143289
    10  H    0.098534
    11  H    0.096219
 Sum of Mulliken charges =   0.00000

 Dipole moment (field-independent basis, Debye):
    X=             -1.9911    Y=             -2.8177    Z=              1.1595  Tot=              3.6399

 Test job not archived.
 1\1\GINC-SE071\SP\RHF\Aug-CC-pVDZ\C4H4N2O1\OHZDE\09-Apr-2025\0\\#t hf
 aug-cc-pvdz iop(5/13=1,5/36=2,99/5=2) pseudo=read geom=check guess=(re
 ad,tcheck) scf=(maxcycle=1)\\title\\0,1\O,0,-2.72582737,-1.09053145,0.
 08781058\C,0,-1.96336251,-0.16879586,0.03184941\C,0,-0.4600012,-0.3611
 0362,0.01248553\C,0,0.32033596,0.8574636,-0.07134965\N,0,1.60316674,0.
 77731647,-0.14609694\C,0,2.75287099,0.55797938,-0.35825212\N,0,0.06391
 291,-1.51840507,0.06452318\H,0,-2.32932508,0.87636298,-0.00826623\H,0,
 -0.13351926,1.83867028,-0.0842686\H,0,3.54966283,0.4555405,0.36860934\

 Normal termination of Gaussian 16 at Wed Apr  9 03:58:30 2025.
