 Gaussian 16, Revision C.01,

 ----------------------------------------------------------------------
 #t hf aug-cc-pvdz symm=none int=(grid=ultrafine) guess=(read,tcheck) s
 table=(opt,rrhf)
 ----------------------------------------------------------------------
 -----
 title
 -----
 Symbolic Z-matrix:
 Charge =  0 Multiplicity = 1

 SCF Done:  E(RHF) =  -323.811986852     A.U. after   14 cycles
 Normal termination of Gaussian 16 at Wed Apr  9 17:46:43 2025.
 Gaussian 16:  ES64L-G16RevC.01  3-Jul-2019

 ----------------------------------------------------------------------
 #t hf aug-cc-pvdz iop(5/13=1,5/36=2,99/5=2) pseudo=read geom=check gue
 ss=(read,tcheck) scf=(maxcycle=1)
 ----------------------------------------------------------------------
 -----
 title
 -----
 Structure from the checkpoint file:  "Grambow2020_wb97xd3_006818_reverse_mol2.chk"
 Charge =  0 Multiplicity = 1

                         Standard orientation:
 ---------------------------------------------------------------------
 Center     Atomic      Atomic             Coordinates (Angstroms)
 Number     Number       Type             X           Y           Z
 ---------------------------------------------------------------------
      1          6           0       -1.710100   -1.424577    0.298078
      2          6           0       -1.080124   -0.265310   -0.454687
      3          6           0       -1.407660    1.178255    0.038706
      4          6           0        0.108355    1.505936    0.153851
      5          6           0        0.361738    0.076523   -0.175039
      6          7           0        1.435560   -0.626862   -0.134131
      7          8           0        2.602166   -0.234708    0.164308
      8          1           0       -2.790791   -1.440242    0.141887
      9          1           0       -1.521967   -1.341071    1.370646
     10          1           0       -1.316705   -2.386395   -0.039272
     11          1           0       -1.270512   -0.369350   -1.527757
     12          1           0       -1.973960    1.792393   -0.659030
     13          1           0       -1.916829    1.177216    1.002549
     14          1           0        0.471779    1.825794    1.131514
     15          1           0        0.487923    2.203449   -0.595779
     16          1           0        1.331569   -1.621060   -0.365762
 ---------------------------------------------------------------------

 SCF Done:  E(RHF) =  -324.153045060     A.U. after    2 cycles

 The electronic state is 1-A.
 Alpha  occ. eigenvalues --  -20.48189 -15.64085 -11.29544 -11.26886 -11.25330
 Alpha  occ. eigenvalues --  -11.25310 -11.25022  -1.48520  -1.21251  -1.12690
 Alpha  occ. eigenvalues --   -1.01917  -0.90512  -0.87624  -0.82486  -0.72492
 Alpha  occ. eigenvalues --   -0.67379  -0.67232  -0.62073  -0.60164  -0.59811
 Alpha  occ. eigenvalues --   -0.54779  -0.52690  -0.51581  -0.50399  -0.47941
 Alpha  occ. eigenvalues --   -0.40268  -0.33022
 Alpha virt. eigenvalues --    0.02672   0.03287   0.03500   0.04030   0.05428
 Alpha virt. eigenvalues --    0.06035   0.06322   0.07230   0.07848   0.09945
 Alpha virt. eigenvalues --    0.11616   0.12299   0.12995   0.13484   0.13737

 Mulliken charges:
               1
     1  C   -0.171251
     2  C   -0.762507
     3  C    0.216882
     4  C   -0.045233
     5  C   -0.627085
     6  N    1.674686
     7  O   -1.484912
     8  H    0.164784
     9  H    0.221618
    10  H    0.154456
    11  H    0.114068
    12  H    0.052884
    13  H    0.067489
    14  H    0.110906
    15  H    0.149148
    16  H    0.164067
 Sum of Mulliken charges =  -0.00000

 Dipole moment (field-independent basis, Debye):
    X=             -5.4816    Y=             -0.4233    Z=             -0.9186  Tot=              5.5742

 Test job not archived.
 1\1\GINC-SE135\SP\RHF\Aug-CC-pVDZ\C5H9N1O1\OHZDE\09-Apr-2025\0\\#t hf
 aug-cc-pvdz iop(5/13=1,5/36=2,99/5=2) pseudo=read geom=check guess=(re
 ad,tcheck) scf=(maxcycle=1)\\title\\0,1\C,0,-1.54211194,-1.0953924,0.1
 6026857\C,0,-0.48429335,-0.29000677,-0.5744418\C,0,-0.58158803,1.26553
 036,-0.50072758\C,0,0.88498283,1.35448924,0.0093606\C,0,0.87324961,-0.
 13298165,0.06308305\N,0,1.70353819,-0.97099662,0.57089083\O,0,2.810173
 13,-0.71538339,1.13110617\H,0,-2.5171912,-0.97037407,-0.31525725\H,0,-
 1.62602182,-0.77182843,1.19999628\H,0,-1.31098856,-2.16320872,0.157154

 Normal termination of Gaussian 16 at Wed Apr  9 17:46:49 2025.
