 Gaussian 16, Revision C.01,

 ----------------------------------------------------------------------
 #t hf aug-cc-pvdz symm=none int=(grid=ultrafine) guess=(read,tcheck) s
 table=(opt,rrhf)
 ----------------------------------------------------------------------
 -----
 title
 -----
 Symbolic Z-matrix:
 Charge =  0 Multiplicity = 1

 SCF Done:  E(RHF) =  -322.575838006     A.U. after   15 cycles
 Normal termination of Gaussian 16 at Wed Apr  9 18:01:04 2025.
 Gaussian 16:  ES64L-G16RevC.01  3-Jul-2019

 ----------------------------------------------------------------------
 #t hf aug-cc-pvdz iop(5/13=1,5/36=2,99/5=2) pseudo=read geom=check gue
 ss=(read,tcheck) scf=(maxcycle=1)
 ----------------------------------------------------------------------
 -----
 title
 -----
 Structure from the checkpoint file:  "Grambow2020_wb97xd3_006939_forward_mol1.chk"
 Charge =  0 Multiplicity = 1

                         Standard orientation:
 ---------------------------------------------------------------------
 Center     Atomic      Atomic             Coordinates (Angstroms)
 Number     Number       Type             X           Y           Z
 ---------------------------------------------------------------------
      1          8           0       -2.036178   -0.508046   -0.316451
      2          6           0       -1.834321    0.729449   -0.259261
      3          7           0       -0.791180    1.142197    0.367974
      4          6           0       -0.259180   -0.904465    0.731265
      5          6           0        0.807330   -1.032447   -0.309573
      6          6           0        1.900725   -0.074518   -0.192060
      7          6           0        2.815782    0.688986   -0.084838
      8          1           0       -2.540092    1.409881   -0.749129
      9          1           0       -0.574887    2.130378    0.394848
     10          1           0       -0.876242   -1.783161    0.842186
     11          1           0        0.041578   -0.476380    1.674629
     12          1           0        1.212790   -2.048654   -0.222604
     13          1           0        0.356769   -0.978475   -1.302044
     14          1           0        3.625751    1.373371    0.004708
 ---------------------------------------------------------------------

 SCF Done:  E(RHF) =  -322.904551754     A.U. after    2 cycles

 The electronic state is 1-A.
 Alpha  occ. eigenvalues --  -20.50088 -15.46325 -11.36128 -11.32087 -11.28816
 Alpha  occ. eigenvalues --  -11.25133 -11.24051  -1.43820  -1.16807  -1.10940
 Alpha  occ. eigenvalues --   -1.01774  -0.89677  -0.79453  -0.74219  -0.73712
 Alpha  occ. eigenvalues --   -0.70009  -0.64653  -0.62662  -0.60556  -0.57385
 Alpha  occ. eigenvalues --   -0.55164  -0.45072  -0.41923  -0.41085  -0.40210
 Alpha  occ. eigenvalues --   -0.38732
 Alpha virt. eigenvalues --    0.03286   0.03447   0.04353   0.04804   0.05966
 Alpha virt. eigenvalues --    0.06166   0.06369   0.07851   0.09913   0.10792
 Alpha virt. eigenvalues --    0.11404   0.12028   0.13118   0.13581   0.14170

 Mulliken charges:
               1
     1  O   -1.170479
     2  C    0.118257
     3  N    0.647470
     4  C    0.035101
     5  C   -0.518268
     6  C    0.409251
     7  C    0.250022
     8  H    0.030125
     9  H   -0.056819
    10  H    0.042474
    11  H    0.087316
    12  H    0.256182
    13  H    0.302611
    14  H   -0.433243
 Sum of Mulliken charges =  -0.00000

 Dipole moment (field-independent basis, Debye):
    X=              1.7717    Y=             -0.2833    Z=              0.5918  Tot=              1.8893

 Test job not archived.
 1\1\GINC-SE454\SP\RHF\Aug-CC-pVDZ\C5H7N1O1\OHZDE\09-Apr-2025\0\\#t hf
 aug-cc-pvdz iop(5/13=1,5/36=2,99/5=2) pseudo=read geom=check guess=(re
 ad,tcheck) scf=(maxcycle=1)\\title\\0,1\O,0,-2.18587456,-0.47931476,-0
 .00415853\C,0,-2.01184685,0.61573116,0.58405766\N,0,-0.89491385,0.8033
 2442,1.19167366\C,0,-0.25602342,-1.12890681,0.51186943\C,0,0.6367823,-
 0.67620566,-0.59949322\C,0,1.70813778,0.22869834,-0.19912366\C,0,2.607
 20088,0.94807263,0.1263766\H,0,-2.80438232,1.37200473,0.55230084\H,0,-
 0.70450293,1.69142449,1.63779852\H,0,-0.82344037,-2.01949615,0.2881193

 Normal termination of Gaussian 16 at Wed Apr  9 18:01:08 2025.
