 Gaussian 16, Revision C.01,

 ----------------------------------------------------------------------
 #t hf aug-cc-pvdz symm=none int=(grid=ultrafine) guess=(read,tcheck) s
 table=(opt,rrhf)
 ----------------------------------------------------------------------
 -----
 title
 -----
 Symbolic Z-matrix:
 Charge =  0 Multiplicity = 1

 SCF Done:  E(RHF) =  -338.713211127     A.U. after   14 cycles
 Normal termination of Gaussian 16 at Wed Apr  9 19:05:52 2025.
 Gaussian 16:  ES64L-G16RevC.01  3-Jul-2019

 ----------------------------------------------------------------------
 #t hf aug-cc-pvdz iop(5/13=1,5/36=2,99/5=2) pseudo=read geom=check gue
 ss=(read,tcheck) scf=(maxcycle=1)
 ----------------------------------------------------------------------
 -----
 title
 -----
 Structure from the checkpoint file:  "Grambow2020_wb97xd3_008564_reverse_mol2.chk"
 Charge =  0 Multiplicity = 1

                         Standard orientation:
 ---------------------------------------------------------------------
 Center     Atomic      Atomic             Coordinates (Angstroms)
 Number     Number       Type             X           Y           Z
 ---------------------------------------------------------------------
      1          7           0       -0.401260   -1.692076    0.042454
      2          6           0       -1.558529   -1.212690   -0.100919
      3          8           0       -1.837252    0.091440   -0.044446
      4          6           0       -0.835108    0.953658    0.362908
      5          6           0       -0.744281    2.163591   -0.147356
      6          6           0        2.476605   -0.352681   -0.054908
      7          7           0        3.492982    0.174482   -0.051755
      8          1           0       -0.422621   -2.702683   -0.027606
      9          1           0       -2.469846   -1.777536   -0.295148
     10          1           0       -0.193919    0.561889    1.142833
     11          1           0        1.508500   -0.840915   -0.047691
     12          1           0       -1.409170    2.497888   -0.932810
     13          1           0        0.010900    2.841728    0.222750
 ---------------------------------------------------------------------

 SCF Done:  E(RHF) =  -339.052092613     A.U. after    2 cycles

 The electronic state is 1-A.
 Alpha  occ. eigenvalues --  -20.62123 -15.51937 -15.51073 -11.38373 -11.31928
 Alpha  occ. eigenvalues --  -11.26741 -11.24918  -1.56498  -1.24631  -1.22929
 Alpha  occ. eigenvalues --   -1.07098  -0.90830  -0.82144  -0.78563  -0.76374
 Alpha  occ. eigenvalues --   -0.73364  -0.67463  -0.62561  -0.60543  -0.60333
 Alpha  occ. eigenvalues --   -0.55709  -0.51577  -0.50868  -0.50813  -0.48821
 Alpha  occ. eigenvalues --   -0.38740
 Alpha virt. eigenvalues --    0.02456   0.04117   0.04550   0.05167   0.06082
 Alpha virt. eigenvalues --    0.06786   0.08093   0.09487   0.09972   0.10632
 Alpha virt. eigenvalues --    0.11978   0.13316   0.13558   0.13997   0.14585

 Mulliken charges:
               1
     1  N    0.613607
     2  C   -0.130202
     3  O   -1.375029
     4  C    1.185540
     5  C   -0.179220
     6  C   -0.837353
     7  N    0.776421
     8  H    0.045039
     9  H    0.003512
    10  H   -0.035114
    11  H    0.066514
    12  H   -0.094947
    13  H   -0.038767
 Sum of Mulliken charges =  -0.00000

 Dipole moment (field-independent basis, Debye):
    X=             -5.7377    Y=             -2.2414    Z=             -0.0753  Tot=              6.1605

 Test job not archived.
 1\1\GINC-SE118\SP\RHF\Aug-CC-pVDZ\C4H6N2O1\OHZDE\09-Apr-2025\0\\#t hf
 aug-cc-pvdz iop(5/13=1,5/36=2,99/5=2) pseudo=read geom=check guess=(re
 ad,tcheck) scf=(maxcycle=1)\\title\\0,1\N,0,-1.24929478,0.66686791,-0.
 97749239\C,0,-1.82004129,0.1675246,0.02975318\O,0,-1.19344607,-0.55980
 173,0.9571183\C,0,0.11671207,-0.93245543,0.71573466\C,0,0.9805129,-1.0
 2216754,1.70485305\C,0,1.81518652,1.14926244,-1.65706445\N,0,2.9313374
 4,1.26447972,-1.88480038\H,0,-1.91541171,1.16953192,-1.55221601\H,0,-2
 .87495901,0.26313111,0.28525882\H,0,0.3321607,-1.17629159,-0.31722929\

 Normal termination of Gaussian 16 at Wed Apr  9 19:05:56 2025.
