 Gaussian 16, Revision C.01,

 ----------------------------------------------------------------------
 #t hf aug-cc-pvdz symm=none int=(grid=ultrafine) guess=(read,tcheck) s
 table=(opt,rrhf)
 ----------------------------------------------------------------------
 -----
 title
 -----
 Symbolic Z-matrix:
 Charge =  0 Multiplicity = 1

 SCF Done:  E(RHF) =  -343.743792547     A.U. after   15 cycles
 Normal termination of Gaussian 16 at Wed Apr  9 03:28:23 2025.
 Gaussian 16:  ES64L-G16RevC.01  3-Jul-2019

 ----------------------------------------------------------------------
 #t hf aug-cc-pvdz iop(5/13=1,5/36=2,99/5=2) pseudo=read geom=check gue
 ss=(read,tcheck) scf=(maxcycle=1)
 ----------------------------------------------------------------------
 -----
 title
 -----
 Structure from the checkpoint file:  "Grambow2020_wb97xd3_006683_reverse_mol2.chk"
 Charge =  0 Multiplicity = 1

                         Standard orientation:
 ---------------------------------------------------------------------
 Center     Atomic      Atomic             Coordinates (Angstroms)
 Number     Number       Type             X           Y           Z
 ---------------------------------------------------------------------
      1          6           0        1.790518    1.311239   -0.118451
      2          6           0        1.376678   -0.114674    0.024668
      3          8           0        2.418994   -0.934387   -0.283284
      4          6           0        0.185702   -0.583329    0.400557
      5          6           0       -1.032757    0.223993    0.740948
      6          6           0       -2.023416    0.188135   -0.399912
      7          8           0       -3.143379   -0.233265   -0.322169
      8          1           0        2.656361    1.507102    0.516592
      9          1           0        2.090711    1.505170   -1.149868
     10          1           0        0.994685    2.002152    0.146379
     11          1           0        2.145234   -1.850662   -0.190882
     12          1           0        0.056907   -1.662754    0.444218
     13          1           0       -1.627121    0.572331   -1.364816
     14          1           0       -1.527414   -0.155648    1.636437
     15          1           0       -0.774634    1.271342    0.918697
 ---------------------------------------------------------------------

 SCF Done:  E(RHF) =  -344.097319805     A.U. after    2 cycles

 The electronic state is 1-A.
 Alpha  occ. eigenvalues --  -20.58599 -20.54647 -11.33985 -11.32077 -11.25580
 Alpha  occ. eigenvalues --  -11.24938 -11.23819  -1.50431  -1.48088  -1.10401
 Alpha  occ. eigenvalues --   -1.02536  -0.94623  -0.81686  -0.79204  -0.71258
 Alpha  occ. eigenvalues --   -0.68475  -0.64483  -0.63913  -0.61841  -0.58287
 Alpha  occ. eigenvalues --   -0.56882  -0.55587  -0.54602  -0.53467  -0.50178
 Alpha  occ. eigenvalues --   -0.42341  -0.35009
 Alpha virt. eigenvalues --    0.03186   0.03378   0.03924   0.04558   0.05911
 Alpha virt. eigenvalues --    0.06488   0.06872   0.08786   0.09497   0.10245
 Alpha virt. eigenvalues --    0.13061   0.13249   0.13543   0.14390   0.14870

 Mulliken charges:
               1
     1  C   -0.543563
     2  C    1.265990
     3  O   -1.559906
     4  C    0.325220
     5  C   -0.628123
     6  C    1.080957
     7  O   -1.129406
     8  H    0.244588
     9  H    0.274158
    10  H    0.106571
    11  H    0.373646
    12  H   -0.331726
    13  H    0.141858
    14  H    0.111782
    15  H    0.267954
 Sum of Mulliken charges =  -0.00000

 Dipole moment (field-independent basis, Debye):
    X=              2.6123    Y=              0.6243    Z=              0.3902  Tot=              2.7140

 Test job not archived.
 1\1\GINC-SE126\SP\RHF\Aug-CC-pVDZ\C5H8O2\OHZDE\09-Apr-2025\0\\#t hf au
 g-cc-pvdz iop(5/13=1,5/36=2,99/5=2) pseudo=read geom=check guess=(read
 ,tcheck) scf=(maxcycle=1)\\title\\0,1\C,0,-1.76385102,-0.36122308,0.62
 311271\C,0,-0.83519208,0.76816866,0.32808533\O,0,-1.52593028,1.9406717
 7,0.29195817\C,0,0.48223869,0.70829282,0.12772728\C,0,1.33702894,-0.52
 523824,0.1239216\C,0,1.68649189,-0.91897013,-1.29280145\O,0,2.80141484
 ,-0.9969639,-1.72731499\H,0,-2.28335198,-0.17228519,1.56425408\H,0,-2.
 52075776,-0.42909358,-0.16048962\H,0,-1.24784708,-1.31523544,0.6897870

 Normal termination of Gaussian 16 at Wed Apr  9 03:28:28 2025.
