 Gaussian 16, Revision C.01,

 ----------------------------------------------------------------------
 #t hf aug-cc-pvdz symm=none int=(grid=ultrafine) guess=(read,tcheck) s
 table=(opt,rrhf)
 ----------------------------------------------------------------------
 -----
 title
 -----
 Symbolic Z-matrix:
 Charge =  0 Multiplicity = 1

 SCF Done:  E(RHF) =  -338.655199477     A.U. after   16 cycles
 Normal termination of Gaussian 16 at Wed Apr  9 19:05:50 2025.
 Gaussian 16:  ES64L-G16RevC.01  3-Jul-2019

 ----------------------------------------------------------------------
 #t hf aug-cc-pvdz iop(5/13=1,5/36=2,99/5=2) pseudo=read geom=check gue
 ss=(read,tcheck) scf=(maxcycle=1)
 ----------------------------------------------------------------------
 -----
 title
 -----
 Structure from the checkpoint file:  "Grambow2020_wb97xd3_008544_reverse_mol1.chk"
 Charge =  0 Multiplicity = 1

                         Standard orientation:
 ---------------------------------------------------------------------
 Center     Atomic      Atomic             Coordinates (Angstroms)
 Number     Number       Type             X           Y           Z
 ---------------------------------------------------------------------
      1          6           0        2.569912   -0.527478    0.001660
      2          6           0        1.040656   -0.080982   -0.002771
      3          7           0        1.478225    1.081635   -0.009379
      4          8           0       -1.150235    1.260496    0.001930
      5          6           0       -1.260548    0.039244    0.004435
      6          7           0       -2.486751   -0.564256    0.039465
      7          6           0       -0.090704   -0.825011    0.000749
      8          1           0        3.304610    0.278953   -0.001021
      9          1           0        2.676960   -1.098120    0.920722
     10          1           0        2.679816   -1.107462   -0.911178
     11          1           0       -2.577634   -1.539500   -0.173363
     12          1           0       -3.283630    0.027680   -0.110658
     13          1           0       -0.094451   -1.901808    0.025014
 ---------------------------------------------------------------------

 SCF Done:  E(RHF) =  -338.995359408     A.U. after    2 cycles

 The electronic state is 1-A.
 Alpha  occ. eigenvalues --  -20.48690 -15.59731 -15.51182 -11.34487 -11.33152
 Alpha  occ. eigenvalues --  -11.31341 -11.22236  -1.43943  -1.29923  -1.20790
 Alpha  occ. eigenvalues --   -1.03546  -0.99663  -0.84374  -0.76690  -0.71556
 Alpha  occ. eigenvalues --   -0.69625  -0.67372  -0.63546  -0.61286  -0.60617
 Alpha  occ. eigenvalues --   -0.58827  -0.55725  -0.54870  -0.42962  -0.41497
 Alpha  occ. eigenvalues --   -0.34196
 Alpha virt. eigenvalues --    0.02370   0.03039   0.04125   0.04528   0.05247
 Alpha virt. eigenvalues --    0.06300   0.07785   0.08419   0.11737   0.11897
 Alpha virt. eigenvalues --    0.12647   0.13097   0.13439   0.13641   0.14398

 Mulliken charges:
               1
     1  C   -0.443766
     2  C   -1.815282
     3  N    1.038783
     4  O   -1.444665
     5  C    0.169492
     6  N    0.703996
     7  C    1.093407
     8  H    0.229584
     9  H    0.287058
    10  H    0.288282
    11  H    0.026653
    12  H    0.091329
    13  H   -0.224872
 Sum of Mulliken charges =  -0.00000

 Dipole moment (field-independent basis, Debye):
    X=              2.1880    Y=             -5.1176    Z=             -0.5341  Tot=              5.5913

 Test job not archived.
 1\1\GINC-SE054\SP\RHF\Aug-CC-pVDZ\C4H6N2O1\OHZDE\09-Apr-2025\0\\#t hf
 aug-cc-pvdz iop(5/13=1,5/36=2,99/5=2) pseudo=read geom=check guess=(re
 ad,tcheck) scf=(maxcycle=1)\\title\\0,1\C,0,-2.3390419,0.28942124,-0.0
 4336672\C,0,-0.82334526,-0.14787314,-0.26572294\N,0,-1.26992923,-0.907
 4294,-1.14140874\O,0,1.33942652,-1.26653827,-1.08462333\C,0,1.46181542
 ,-0.43524209,-0.19153835\N,0,2.68317137,-0.15017374,0.35255519\C,0,0.3
 0869266,0.26501423,0.3519989\H,0,-3.07758282,-0.20146915,-0.67874314\H
 ,0,-2.54000269,0.03196222,0.99350179\H,0,-2.34212897,1.35510563,-0.257

 Normal termination of Gaussian 16 at Wed Apr  9 19:05:54 2025.
