 Gaussian 16, Revision C.01,

 ----------------------------------------------------------------------
 #t hf aug-cc-pvdz symm=none int=(grid=ultrafine) guess=(read,tcheck) s
 table=(opt,rrhf)
 ----------------------------------------------------------------------
 -----
 title
 -----
 Symbolic Z-matrix:
 Charge =  0 Multiplicity = 1

 SCF Done:  E(RHF) =  -338.749573840     A.U. after   15 cycles
 Normal termination of Gaussian 16 at Wed Apr  9 03:28:12 2025.
 Gaussian 16:  ES64L-G16RevC.01  3-Jul-2019

 ----------------------------------------------------------------------
 #t hf aug-cc-pvdz iop(5/13=1,5/36=2,99/5=2) pseudo=read geom=check gue
 ss=(read,tcheck) scf=(maxcycle=1)
 ----------------------------------------------------------------------
 -----
 title
 -----
 Structure from the checkpoint file:  "Grambow2020_wb97xd3_006691_reverse_mol2.chk"
 Charge =  0 Multiplicity = 1

                         Standard orientation:
 ---------------------------------------------------------------------
 Center     Atomic      Atomic             Coordinates (Angstroms)
 Number     Number       Type             X           Y           Z
 ---------------------------------------------------------------------
      1          6           0       -2.991009    0.384250   -0.253868
      2          6           0       -1.955276   -0.436893    0.463281
      3          6           0       -0.729402   -0.564720    0.050780
      4          7           0        0.404986   -0.746235   -0.373348
      5          6           0        1.434882    0.200627   -0.037747
      6          7           0        2.636057   -0.414029    0.024120
      7          8           0        1.247292    1.376703    0.133989
      8          1           0       -2.578076    0.836873   -1.154174
      9          1           0       -3.844439   -0.233649   -0.540262
     10          1           0       -3.358143    1.186223    0.389120
     11          1           0       -2.215372   -0.944725    1.385169
     12          1           0        3.453104    0.142728    0.190713
     13          1           0        2.722120   -1.378803   -0.232551
 ---------------------------------------------------------------------

 SCF Done:  E(RHF) =  -339.093694775     A.U. after    2 cycles

 The electronic state is 1-A.
 Alpha  occ. eigenvalues --  -20.51703 -15.53363 -15.52867 -11.39632 -11.32980
 Alpha  occ. eigenvalues --  -11.25677 -11.24998  -1.48077  -1.28109  -1.22716
 Alpha  occ. eigenvalues --   -1.08112  -0.94575  -0.89958  -0.80132  -0.73577
 Alpha  occ. eigenvalues --   -0.70183  -0.66229  -0.64063  -0.60385  -0.59406
 Alpha  occ. eigenvalues --   -0.57375  -0.54757  -0.49880  -0.45530  -0.44593
 Alpha  occ. eigenvalues --   -0.36638
 Alpha virt. eigenvalues --    0.02996   0.03939   0.04552   0.05399   0.05767
 Alpha virt. eigenvalues --    0.06451   0.08979   0.10477   0.11038   0.11211
 Alpha virt. eigenvalues --    0.11732   0.12648   0.13365   0.13894   0.15492

 Mulliken charges:
               1
     1  C   -0.551869
     2  C    1.026852
     3  C   -1.592189
     4  N    0.813102
     5  C    0.176082
     6  N    0.616877
     7  O   -1.109118
     8  H    0.110848
     9  H    0.207000
    10  H    0.220100
    11  H   -0.098439
    12  H    0.110716
    13  H    0.070037
 Sum of Mulliken charges =  -0.00000

 Dipole moment (field-independent basis, Debye):
    X=             -0.4182    Y=             -2.0097    Z=              0.5282  Tot=              2.1196

 Test job not archived.
 1\1\GINC-SE329\SP\RHF\Aug-CC-pVDZ\C4H6N2O1\OHZDE\09-Apr-2025\0\\#t hf
 aug-cc-pvdz iop(5/13=1,5/36=2,99/5=2) pseudo=read geom=check guess=(re
 ad,tcheck) scf=(maxcycle=1)\\title\\0,1\C,0,-2.54769271,-0.4338735,-0.
 48210369\C,0,-1.52101302,0.2556369,0.37336508\C,0,-0.25827072,-0.05210
 692,0.36702641\N,0,0.91841168,-0.38759581,0.41735766\C,0,1.84506467,0.
 17477586,-0.52864196\N,0,3.07753011,0.26345276,0.01690057\O,0,1.559469
 53,0.492037,-1.65363912\H,0,-2.09262639,-1.21786019,-1.08560235\H,0,-3
 .32682966,-0.88454274,0.13596235\H,0,-3.02526423,0.27788854,-1.1579007

 Normal termination of Gaussian 16 at Wed Apr  9 03:28:16 2025.
