 Gaussian 16, Revision C.01,

 ----------------------------------------------------------------------
 #t hf aug-cc-pvdz symm=none int=(grid=ultrafine) guess=(read,tcheck) s
 table=(opt,rrhf)
 ----------------------------------------------------------------------
 -----
 title
 -----
 Symbolic Z-matrix:
 Charge =  0 Multiplicity = 1

 SCF Done:  E(RHF) =  -345.886005887     A.U. after   16 cycles

 1\1\GINC-SE112\Stability\RHF\Aug-CC-pVDZ\C5H12O2\OHZDE\09-Apr-2025\0\\
 #t hf aug-cc-pvdz symm=none int=(grid=ultrafine) guess=(read,tcheck) s
 table=(opt,rrhf)\\title\\0,1\C,0,-2.15003601,0.36266976,1.6815602\O,0,
 -0.31692522,-0.77299494,0.69331611\C,0,-0.16554913,0.07493149,-0.33312
 569\C,0,-0.49028856,1.46456245,0.12606114\C,0,1.31004299,0.11410508,-0
 .84632867\C,0,1.73351997,-1.28665702,-1.28106323\O,0,1.75649672,-2.188
 2272,-0.21282727\H,0,-2.80206308,1.21815154,1.85288999\H,0,-1.50604635
 ,0.10627477,2.50717789\H,0,-2.62242823,-0.47990895,1.20080997\H,0,-0.7

 Normal termination of Gaussian 16 at Wed Apr  9 18:44:03 2025.
 Gaussian 16:  ES64L-G16RevC.01  3-Jul-2019

 ----------------------------------------------------------------------
 #t hf aug-cc-pvdz iop(5/13=1,5/36=2,99/5=2) pseudo=read geom=check gue
 ss=(read,tcheck) scf=(maxcycle=1)
 ----------------------------------------------------------------------
 -----
 title
 -----
 Structure from the checkpoint file:  "Grambow2020_wb97xd3_008010_reverse_mol1.chk"
 Charge =  0 Multiplicity = 1

                         Standard orientation:
 ---------------------------------------------------------------------
 Center     Atomic      Atomic             Coordinates (Angstroms)
 Number     Number       Type             X           Y           Z
 ---------------------------------------------------------------------
      1          6           0        2.843029   -0.809987    0.047297
      2          8           0        0.473136   -0.860738   -0.040383
      3          6           0        0.292495    0.405859    0.357834
      4          6           0        1.402989    1.254210   -0.184832
      5          6           0       -1.036414    1.010166   -0.199930
      6          6           0       -2.215583    0.160400    0.266889
      7          8           0       -2.172893   -1.136191   -0.254180
      8          1           0        3.817325   -0.323868    0.075186
      9          1           0        2.611314   -1.316632   -0.875592
     10          1           0        2.582926   -1.358465    0.939335
     11          1           0        0.257330    0.530022    1.460550
     12          1           0        1.459584    1.274115   -1.272505
     13          1           0        2.279293    0.421294    0.088413
     14          1           0        1.649701    2.210141    0.281119
     15          1           0       -0.999590    0.999547   -1.292538
     16          1           0       -1.163050    2.041713    0.140709
     17          1           0       -2.236186    0.151643    1.368321
     18          1           0       -3.146518    0.625871   -0.070904
     19          1           0       -1.233173   -1.403845   -0.209149
 ---------------------------------------------------------------------

 SCF Done:  E(RHF) =  -346.251502167     A.U. after    2 cycles

 The electronic state is 1-A.
 Alpha  occ. eigenvalues --  -20.48371 -20.42872 -11.35503 -11.31843 -11.26611
 Alpha  occ. eigenvalues --  -11.25017 -11.21682  -1.39877  -1.33945  -1.06208
 Alpha  occ. eigenvalues --   -1.01738  -0.96731  -0.83893  -0.77693  -0.68210
 Alpha  occ. eigenvalues --   -0.66586  -0.65176  -0.63708  -0.62797  -0.60184
 Alpha  occ. eigenvalues --   -0.57300  -0.55841  -0.51788  -0.50147  -0.48610
 Alpha  occ. eigenvalues --   -0.44801  -0.38799  -0.34939  -0.33319
 Alpha virt. eigenvalues --   -0.00852   0.02019   0.03407   0.04120   0.04695
 Alpha virt. eigenvalues --    0.05516   0.06232   0.06465   0.07166   0.07649
 Alpha virt. eigenvalues --    0.08680   0.09609   0.10632   0.12021   0.13686

 Mulliken charges:
               1
     1  C   -0.414853
     2  O   -1.661906
     3  C    1.051173
     4  C   -0.489196
     5  C   -0.393769
     6  C    0.776588
     7  O   -1.258601
     8  H    0.106805
     9  H    0.252055
    10  H    0.259237
    11  H    0.060060
    12  H    0.258005
    13  H    0.373093
    14  H    0.154732
    15  H    0.114037
    16  H    0.107821
    17  H    0.121252
    18  H    0.069681
    19  H    0.513788
 Sum of Mulliken charges =   0.00000

 Dipole moment (field-independent basis, Debye):
    X=              7.1361    Y=              3.7706    Z=              0.5164  Tot=              8.0875

 Test job not archived.
 1\1\GINC-SE112\SP\RHF\Aug-CC-pVDZ\C5H12O2\OHZDE\09-Apr-2025\0\\#t hf a
 ug-cc-pvdz iop(5/13=1,5/36=2,99/5=2) pseudo=read geom=check guess=(rea
 d,tcheck) scf=(maxcycle=1)\\title\\0,1\C,0,-2.15003601,0.36266976,1.68
 15602\O,0,-0.31692522,-0.77299494,0.69331611\C,0,-0.16554913,0.0749314
 9,-0.33312569\C,0,-0.49028856,1.46456245,0.12606114\C,0,1.31004299,0.1
 1410508,-0.84632867\C,0,1.73351997,-1.28665702,-1.28106323\O,0,1.75649
 672,-2.1882272,-0.21282727\H,0,-2.80206308,1.21815154,1.85288999\H,0,-
 1.50604635,0.10627477,2.50717789\H,0,-2.62242823,-0.47990895,1.2008099

 Normal termination of Gaussian 16 at Wed Apr  9 18:44:10 2025.
