 Gaussian 16, Revision C.01,

 ----------------------------------------------------------------------
 #t hf aug-cc-pvdz symm=none int=(grid=ultrafine) guess=(read,tcheck) s
 table=(opt,rrhf)
 ----------------------------------------------------------------------
 -----
 title
 -----
 Symbolic Z-matrix:
 Charge =  0 Multiplicity = 1

 SCF Done:  E(RHF) =  -245.675883684     A.U. after   15 cycles
 Normal termination of Gaussian 16 at Wed Apr  9 16:18:38 2025.
 Gaussian 16:  ES64L-G16RevC.01  3-Jul-2019

 ----------------------------------------------------------------------
 #t hf aug-cc-pvdz iop(5/13=1,5/36=2,99/5=2) pseudo=read geom=check gue
 ss=(read,tcheck) scf=(maxcycle=1)
 ----------------------------------------------------------------------
 -----
 title
 -----
 Structure from the checkpoint file:  "Grambow2020_b97d3_007200_forward_mol1.chk"
 Charge =  0 Multiplicity = 1

                         Standard orientation:
 ---------------------------------------------------------------------
 Center     Atomic      Atomic             Coordinates (Angstroms)
 Number     Number       Type             X           Y           Z
 ---------------------------------------------------------------------
      1          8           0       -1.943392   -0.330445    0.230944
      2          6           0       -1.097727    0.537944   -0.019164
      3          6           0        0.131675    0.138173   -0.713174
      4          6           0        1.666887    0.360856    0.323185
      5          7           0        0.968697   -0.873894   -0.153699
      6          1           0       -1.318692    1.629626    0.042307
      7          1           0        1.199570    1.178453   -0.397867
      8          1           0        2.719112    0.385663    0.019497
      9          1           0        1.465139    0.644677    1.357973
     10          1           0        0.496114   -1.299440    0.661352
 ---------------------------------------------------------------------

 SCF Done:  E(RHF) =  -245.927137625     A.U. after    2 cycles

 The electronic state is 1-A.
 Alpha  occ. eigenvalues --  -20.55450 -15.54344 -11.35509 -11.33495 -11.31853
 Alpha  occ. eigenvalues --   -1.46700  -1.28653  -0.96954  -0.95840  -0.80868
 Alpha  occ. eigenvalues --   -0.73735  -0.67297  -0.64861  -0.61786  -0.59009
 Alpha  occ. eigenvalues --   -0.54902  -0.50382  -0.44673  -0.35707
 Alpha virt. eigenvalues --    0.02544   0.03801   0.04227   0.05628   0.06613
 Alpha virt. eigenvalues --    0.07696   0.09158   0.09902   0.11647   0.11795
 Alpha virt. eigenvalues --    0.14228   0.14430   0.15519   0.15721   0.16199

 Mulliken charges:
               1
     1  O   -1.124609
     2  C    1.187073
     3  C   -1.066494
     4  C   -0.343488
     5  N    0.276299
     6  H    0.163830
     7  H    0.384078
     8  H    0.087292
     9  H    0.124757
    10  H    0.311262
 Sum of Mulliken charges =  -0.00000

 Dipole moment (field-independent basis, Debye):
    X=              3.0044    Y=              2.9040    Z=              2.4227  Tot=              4.8300

 Test job not archived.
 1\1\GINC-SE163\SP\RHF\Aug-CC-pVDZ\C3H5N1O1\OHZDE\09-Apr-2025\0\\#t hf
 aug-cc-pvdz iop(5/13=1,5/36=2,99/5=2) pseudo=read geom=check guess=(re
 ad,tcheck) scf=(maxcycle=1)\\title\\0,1\O,0,1.75814922,0.15473515,1.65
 42848\C,0,1.40847865,-0.29505304,0.55554652\C,0,0.60019456,0.55679026,
 -0.32418923\C,0,-1.11423151,-0.11435691,-0.62552617\N,0,-0.64340042,1.
 0826444,0.13932719\H,0,1.86406173,-1.20857552,0.10577623\H,0,-0.156482
 39,-0.35480182,-1.28254042\H,0,-1.8430046,0.14876906,-1.39991203\H,0,-
 1.35883019,-0.99092562,-0.02233261\H,0,-0.75217703,0.87232304,1.145639

 Normal termination of Gaussian 16 at Wed Apr  9 16:18:40 2025.
