 Gaussian 16, Revision C.01,

 ----------------------------------------------------------------------
 #t hf aug-cc-pvdz symm=none int=(grid=ultrafine) guess=(read,tcheck) s
 table=(opt,rrhf)
 ----------------------------------------------------------------------
 -----
 title
 -----
 Symbolic Z-matrix:
 Charge =  0 Multiplicity = 1

 SCF Done:  E(RHF) =  -268.738307106     A.U. after   15 cycles
 Normal termination of Gaussian 16 at Wed Apr  9 03:05:52 2025.
 Gaussian 16:  ES64L-G16RevC.01  3-Jul-2019

 ----------------------------------------------------------------------
 #t hf aug-cc-pvdz iop(5/13=1,5/36=2,99/5=2) pseudo=read geom=check gue
 ss=(read,tcheck) scf=(maxcycle=1)
 ----------------------------------------------------------------------
 -----
 title
 -----
 Structure from the checkpoint file:  "Grambow2020_b97d3_006496_forward_mol1.chk"
 Charge =  0 Multiplicity = 1

                         Standard orientation:
 ---------------------------------------------------------------------
 Center     Atomic      Atomic             Coordinates (Angstroms)
 Number     Number       Type             X           Y           Z
 ---------------------------------------------------------------------
      1          8           0        2.282203   -0.384247   -0.203196
      2          6           0        1.202787   -0.200518    0.197466
      3          6           0       -0.545728   -1.638838    0.128769
      4          6           0       -1.677512   -0.885014   -0.104049
      5          6           0       -1.124349    1.430541   -0.107031
      6          6           0        0.227335    1.606964    0.143948
      7          1           0       -0.057468   -2.163090   -0.693370
      8          1           0       -0.345058   -2.034369    1.124297
      9          1           0       -2.069330   -0.773231   -1.113499
     10          1           0       -2.375284   -0.674072    0.703760
     11          1           0       -1.850793    1.546982    0.692945
     12          1           0       -1.504587    1.506703   -1.123106
     13          1           0        0.889650    1.909743   -0.666744
     14          1           0        0.560045    1.876502    1.146670
 ---------------------------------------------------------------------

 SCF Done:  E(RHF) =  -269.012757394     A.U. after    2 cycles

 The electronic state is 1-A.
 Alpha  occ. eigenvalues --  -20.61009 -11.35883 -11.25402 -11.24997 -11.24682
 Alpha  occ. eigenvalues --  -11.24651  -1.54602  -1.04618  -1.01667  -0.83736
 Alpha  occ. eigenvalues --   -0.79118  -0.76654  -0.65888  -0.63788  -0.61065
 Alpha  occ. eigenvalues --   -0.60184  -0.59037  -0.58042  -0.57124  -0.52569
 Alpha  occ. eigenvalues --   -0.50530  -0.35464  -0.32407
 Alpha virt. eigenvalues --    0.03887   0.03890   0.04336   0.04742   0.06172
 Alpha virt. eigenvalues --    0.06247   0.06597   0.08843   0.09205   0.10861
 Alpha virt. eigenvalues --    0.11886   0.12067   0.13609   0.14627   0.14764

 Mulliken charges:
               1
     1  O   -0.936853
     2  C    0.993604
     3  C   -0.071021
     4  C   -0.042729
     5  C    0.050442
     6  C   -0.293437
     7  H    0.042858
     8  H    0.028686
     9  H    0.007084
    10  H    0.007658
    11  H    0.020554
    12  H    0.003945
    13  H    0.098400
    14  H    0.090808
 Sum of Mulliken charges =   0.00000

 Dipole moment (field-independent basis, Debye):
    X=             -1.1672    Y=              0.3322    Z=              0.2154  Tot=              1.2326

 Test job not archived.
 1\1\GINC-SE094\SP\RHF\Aug-CC-pVDZ\C5H8O1\OHZDE\09-Apr-2025\0\\#t hf au
 g-cc-pvdz iop(5/13=1,5/36=2,99/5=2) pseudo=read geom=check guess=(read
 ,tcheck) scf=(maxcycle=1)\\title\\0,1\O,0,-0.47899826,2.67885518,0.586
 81071\C,0,-0.30961089,1.66225078,0.0416056\C,0,-1.72444617,-0.10525363
 ,-0.02881392\C,0,-0.94718491,-1.24433622,0.01295335\C,0,1.3589399,-0.6
 5641803,-0.04977168\C,0,1.5069865,0.71900027,-0.13620139\H,0,-2.202580
 21,0.26578418,0.87830808\H,0,-2.18141345,0.21319894,-0.96559459\H,0,-0
 .77077224,-1.75899329,0.95582787\H,0,-0.77891266,-1.83035035,-0.888274

 Normal termination of Gaussian 16 at Wed Apr  9 03:05:56 2025.
