 Gaussian 16, Revision C.01,

 ----------------------------------------------------------------------
 #t hf aug-cc-pvdz symm=none int=(grid=ultrafine) guess=(read,tcheck) s
 table=(opt,rrhf)
 ----------------------------------------------------------------------
 -----
 title
 -----
 Symbolic Z-matrix:
 Charge =  0 Multiplicity = 1

 SCF Done:  E(RHF) =  -305.319928130     A.U. after   17 cycles
 Normal termination of Gaussian 16 at Wed Apr  9 18:55:45 2025.
 Gaussian 16:  ES64L-G16RevC.01  3-Jul-2019

 ----------------------------------------------------------------------
 #t hf aug-cc-pvdz iop(5/13=1,5/36=2,99/5=2) pseudo=read geom=check gue
 ss=(read,tcheck) scf=(maxcycle=1)
 ----------------------------------------------------------------------
 -----
 title
 -----
 Structure from the checkpoint file:  "Grambow2020_wb97xd3_008359_forward_mol1.chk"
 Charge =  0 Multiplicity = 1

                         Standard orientation:
 ---------------------------------------------------------------------
 Center     Atomic      Atomic             Coordinates (Angstroms)
 Number     Number       Type             X           Y           Z
 ---------------------------------------------------------------------
      1          6           0       -1.934222    0.098899   -0.700434
      2          6           0       -1.431762   -0.543967    0.255196
      3          6           0       -0.198561   -0.547921    0.840037
      4          6           0        0.118253    0.816596    1.003354
      5          6           0        0.742315    1.107756   -0.219217
      6          8           0        1.396370   -0.003455   -0.725569
      7          6           0        0.914629   -1.150288    0.000047
      8          1           0       -2.785936    0.218544   -1.341981
      9          1           0       -0.515840    1.522509    1.518445
     10          1           0       -0.598671    1.022564   -0.794672
     11          1           0        1.185059    2.044301   -0.533257
     12          1           0        1.738481   -1.568999    0.583832
     13          1           0        0.542041   -1.897730   -0.701722
 ---------------------------------------------------------------------

 SCF Done:  E(RHF) =  -305.633273870     A.U. after    2 cycles

 The electronic state is 1-A.
 Alpha  occ. eigenvalues --  -20.56482 -11.31633 -11.29973 -11.28334 -11.26948
 Alpha  occ. eigenvalues --  -11.26358 -11.25732  -1.49371  -1.16715  -1.03028
 Alpha  occ. eigenvalues --   -1.00011  -0.86169  -0.80771  -0.74744  -0.70319
 Alpha  occ. eigenvalues --   -0.68117  -0.62556  -0.60373  -0.57940  -0.55991
 Alpha  occ. eigenvalues --   -0.52434  -0.48017  -0.40461  -0.34758  -0.33755
 Alpha virt. eigenvalues --    0.03108   0.03833   0.04377   0.04553   0.05800
 Alpha virt. eigenvalues --    0.06157   0.07559   0.07877   0.09548   0.09976
 Alpha virt. eigenvalues --    0.11189   0.12660   0.13429   0.14184   0.14440

 Mulliken charges:
               1
     1  C   -0.049822
     2  C    0.314653
     3  C   -0.971622
     4  C    0.244704
     5  C    0.530014
     6  O   -1.300025
     7  C    0.619351
     8  H   -0.194708
     9  H   -0.053502
    10  H    0.695026
    11  H   -0.027487
    12  H    0.091547
    13  H    0.101873
 Sum of Mulliken charges =  -0.00000

 Dipole moment (field-independent basis, Debye):
    X=             -0.4037    Y=              1.0006    Z=              0.2064  Tot=              1.0985

 Test job not archived.
 1\1\GINC-SE112\SP\RHF\Aug-CC-pVDZ\C6H6O1\OHZDE\09-Apr-2025\0\\#t hf au
 g-cc-pvdz iop(5/13=1,5/36=2,99/5=2) pseudo=read geom=check guess=(read
 ,tcheck) scf=(maxcycle=1)\\title\\0,1\C,0,1.53930784,0.06535212,1.4604
 8502\C,0,1.52754882,-0.22089317,0.23700841\C,0,0.5594668,-0.1962636,-0
 .72478617\C,0,-0.07835372,1.04947623,-0.55080987\C,0,-1.07224818,0.727
 1522,0.38577231\O,0,-1.49237991,-0.5847706,0.23976448\C,0,-0.52024809,
 -1.25553746,-0.58415909\H,0,2.10861869,0.06016287,2.36997561\H,0,0.442
 45239,1.99523579,-0.54808552\H,0,0.02290596,0.64337787,1.35027704\H,0,

 Normal termination of Gaussian 16 at Wed Apr  9 18:55:49 2025.
