 Gaussian 16, Revision C.01,

 ----------------------------------------------------------------------
 #t hf aug-cc-pvdz symm=none int=(grid=ultrafine) guess=(read,tcheck) s
 table=(opt,rrhf)
 ----------------------------------------------------------------------
 -----
 title
 -----
 Symbolic Z-matrix:
 Charge =  0 Multiplicity = 1

 SCF Done:  E(RHF) =  -270.806522622     A.U. after   16 cycles
 Normal termination of Gaussian 16 at Wed Apr  9 18:58:03 2025.
 Gaussian 16:  ES64L-G16RevC.01  3-Jul-2019

 ----------------------------------------------------------------------
 #t hf aug-cc-pvdz iop(5/13=1,5/36=2,99/5=2) pseudo=read geom=check gue
 ss=(read,tcheck) scf=(maxcycle=1)
 ----------------------------------------------------------------------
 -----
 title
 -----
 Structure from the checkpoint file:  "Grambow2020_wb97xd3_008386_reverse_mol2.chk"
 Charge =  0 Multiplicity = 1

                         Standard orientation:
 ---------------------------------------------------------------------
 Center     Atomic      Atomic             Coordinates (Angstroms)
 Number     Number       Type             X           Y           Z
 ---------------------------------------------------------------------
      1          6           0        1.912943   -0.328099   -0.929421
      2          6           0       -1.764058    0.523634   -0.745763
      3          6           0       -0.681258    1.243527   -0.014161
      4          6           0        0.131426    0.253416    0.838002
      5          6           0        1.626965    0.150782    0.488706
      6          6           0       -0.625861   -1.005454    0.594474
      7          6           0       -1.649495   -0.838938   -0.269084
      8          1           0        2.982030   -0.282540   -1.141345
      9          1           0        1.589145   -1.360126   -1.078351
     10          1           0        1.402293    0.283274   -1.676256
     11          1           0       -1.183187    2.004751    0.597204
     12          1           0       -0.079534    1.826732   -0.718122
     13          1           0        0.064384    0.501491    1.904596
     14          1           0        2.112614   -0.520225    1.203440
     15          1           0        2.074364    1.136317    0.645128
     16          1           0       -0.353995   -1.945525    1.069654
     17          1           0       -2.312086   -1.637354   -0.582466
 ---------------------------------------------------------------------

 SCF Done:  E(RHF) =  -271.095842345     A.U. after    2 cycles

 The electronic state is 1-A.
 Alpha  occ. eigenvalues --  -11.28174 -11.24830 -11.24463 -11.24206 -11.23079
 Alpha  occ. eigenvalues --  -11.23054 -11.22933  -1.16736  -1.05406  -0.97699
 Alpha  occ. eigenvalues --   -0.94832  -0.84718  -0.76719  -0.72359  -0.68092
 Alpha  occ. eigenvalues --   -0.65097  -0.62065  -0.56667  -0.55849  -0.53511
 Alpha  occ. eigenvalues --   -0.50498  -0.49967  -0.49247  -0.48637  -0.39962
 Alpha  occ. eigenvalues --   -0.33948
 Alpha virt. eigenvalues --    0.02793   0.03278   0.03541   0.04340   0.04925
 Alpha virt. eigenvalues --    0.05804   0.05904   0.06583   0.07078   0.07254
 Alpha virt. eigenvalues --    0.09920   0.11253   0.12531   0.13360   0.13685

 Mulliken charges:
               1
     1  C   -0.293609
     2  C   -0.762317
     3  C   -0.238679
     4  C   -0.401135
     5  C   -0.186817
     6  C    0.567408
     7  C    0.343685
     8  H    0.089968
     9  H    0.193591
    10  H    0.172185
    11  H    0.207725
    12  H    0.147596
    13  H    0.174856
    14  H    0.096776
    15  H    0.127733
    16  H   -0.156461
    17  H   -0.082506
 Sum of Mulliken charges =   0.00000

 Dipole moment (field-independent basis, Debye):
    X=              2.8056    Y=             -1.2735    Z=              2.4702  Tot=              3.9490

 Test job not archived.
 1\1\GINC-SE224\SP\RHF\Aug-CC-pVDZ\C7H10\OHZDE\09-Apr-2025\0\\#t hf aug
 -cc-pvdz iop(5/13=1,5/36=2,99/5=2) pseudo=read geom=check guess=(read,
 tcheck) scf=(maxcycle=1)\\title\\0,1\C,0,1.5395236,-0.35757482,-1.0626
 6883\C,0,-0.22641393,0.5857199,2.14219809\C,0,-0.50915042,-0.63850537,
 1.33766366\C,0,-0.85218037,-0.25267716,-0.11162037\C,0,0.0919055,-0.81
 664419,-1.18856944\C,0,-0.82638985,1.23306296,-0.01437638\C,0,-0.48289
 97,1.66878729,1.21584522\H,0,2.16902865,-0.86956821,-1.79172395\H,0,1.
 6374878,0.71595814,-1.23597336\H,0,1.94753331,-0.56486818,-0.07127542\

 Normal termination of Gaussian 16 at Wed Apr  9 18:58:09 2025.
