 Gaussian 16, Revision C.01,

 ----------------------------------------------------------------------
 #t hf aug-cc-pvdz symm=none int=(grid=ultrafine) guess=(read,tcheck) s
 table=(opt,rrhf)
 ----------------------------------------------------------------------
 -----
 title
 -----
 Symbolic Z-matrix:
 Charge =  0 Multiplicity = 1

 SCF Done:  E(RHF) =  -360.887712126     A.U. after   14 cycles
 Normal termination of Gaussian 16 at Wed Apr  9 17:40:46 2025.
 Gaussian 16:  ES64L-G16RevC.01  3-Jul-2019

 ----------------------------------------------------------------------
 #t hf aug-cc-pvdz iop(5/13=1,5/36=2,99/5=2) pseudo=read geom=check gue
 ss=(read,tcheck) scf=(maxcycle=1)
 ----------------------------------------------------------------------
 -----
 title
 -----
 Structure from the checkpoint file:  "Grambow2020_wb97xd3_006761_reverse_mol2.chk"
 Charge =  0 Multiplicity = 1

                         Standard orientation:
 ---------------------------------------------------------------------
 Center     Atomic      Atomic             Coordinates (Angstroms)
 Number     Number       Type             X           Y           Z
 ---------------------------------------------------------------------
      1          6           0        0.794080    1.660874    0.770837
      2          7           0       -2.596448   -0.203195    0.173623
      3          6           0       -2.164579    0.561566   -0.559755
      4          8           0        0.726347    1.020152   -0.485402
      5          6           0        1.524042   -0.146088   -0.581170
      6          6           0        0.725454   -1.420461   -0.381049
      7          8           0        0.185334   -1.528701    0.916940
      8          1           0        0.475458    0.999083    1.580640
      9          1           0        1.812307    2.010712    0.977598
     10          1           0        0.132233    2.526559    0.729759
     11          1           0       -1.722700    1.263249   -1.234519
     12          1           0        1.966089   -0.157251   -1.582800
     13          1           0        2.340474   -0.103497    0.148858
     14          1           0       -0.062835   -1.480403   -1.139972
     15          1           0        1.395208   -2.272490   -0.539330
     16          1           0       -0.728529   -1.230553    0.898914
 ---------------------------------------------------------------------

 SCF Done:  E(RHF) =  -361.258028152     A.U. after    2 cycles

 The electronic state is 1-A.
 Alpha  occ. eigenvalues --  -20.55213 -20.53772 -15.53933 -11.30493 -11.28585
 Alpha  occ. eigenvalues --  -11.28437 -11.28243  -1.47297  -1.44116  -1.26134
 Alpha  occ. eigenvalues --   -1.02378  -0.92805  -0.83778  -0.81436  -0.71248
 Alpha  occ. eigenvalues --   -0.68195  -0.65605  -0.64687  -0.63209  -0.60001
 Alpha  occ. eigenvalues --   -0.57004  -0.54438  -0.53902  -0.53497  -0.50334
 Alpha  occ. eigenvalues --   -0.47639  -0.46879  -0.40565
 Alpha virt. eigenvalues --    0.03277   0.03872   0.03969   0.05099   0.05951
 Alpha virt. eigenvalues --    0.06231   0.07281   0.08657   0.08766   0.09393
 Alpha virt. eigenvalues --    0.10886   0.12123   0.13108   0.13699   0.14593

 Mulliken charges:
               1
     1  C    0.197260
     2  N    0.699536
     3  C   -0.859207
     4  O   -1.273452
     5  C    0.401899
     6  C    0.535877
     7  O   -1.155591
     8  H    0.308399
     9  H    0.056009
    10  H    0.009030
    11  H    0.134092
    12  H    0.028537
    13  H    0.234159
    14  H    0.191967
    15  H    0.032235
    16  H    0.459250
 Sum of Mulliken charges =   0.00000

 Dipole moment (field-independent basis, Debye):
    X=              1.4274    Y=              2.6261    Z=             -2.5447  Tot=              3.9255

 Test job not archived.
 1\1\GINC-SE232\SP\RHF\Aug-CC-pVDZ\C4H9N1O2\OHZDE\09-Apr-2025\0\\#t hf
 aug-cc-pvdz iop(5/13=1,5/36=2,99/5=2) pseudo=read geom=check guess=(re
 ad,tcheck) scf=(maxcycle=1)\\title\\0,1\C,0,1.14559376,0.80120776,-1.2
 9207285\N,0,1.31214793,-2.26716882,1.13370919\C,0,1.62057683,-1.208867
 31,1.44043584\O,0,0.47446208,1.02245592,-0.06982913\C,0,-0.93756182,1.
 01448871,-0.17813657\C,0,-1.54941133,-0.31169761,0.23257915\O,0,-1.174
 5025,-1.37286299,-0.61688632\H,0,0.87333805,-0.16043058,-1.73524103\H,
 0,0.92394001,1.59907749,-2.01054163\H,0,2.21549107,0.81232564,-1.08151

 Normal termination of Gaussian 16 at Wed Apr  9 17:40:52 2025.
