 Gaussian 16, Revision C.01,

 ----------------------------------------------------------------------
 #t hf aug-cc-pvdz symm=none int=(grid=ultrafine) guess=(read,tcheck) s
 table=(opt,rrhf)
 ----------------------------------------------------------------------
 -----
 title
 -----
 Symbolic Z-matrix:
 Charge =  0 Multiplicity = 1

 SCF Done:  E(RHF) =  -337.407249035     A.U. after   17 cycles
 Normal termination of Gaussian 16 at Wed Apr  9 04:05:01 2025.
 Gaussian 16:  ES64L-G16RevC.01  3-Jul-2019

 ----------------------------------------------------------------------
 #t hf aug-cc-pvdz iop(5/13=1,5/36=2,99/5=2) pseudo=read geom=check gue
 ss=(read,tcheck) scf=(maxcycle=1)
 ----------------------------------------------------------------------
 -----
 title
 -----
 Structure from the checkpoint file:  "Grambow2020_wb97xd3_009185_forward_mol1.chk"
 Charge =  0 Multiplicity = 1

                         Standard orientation:
 ---------------------------------------------------------------------
 Center     Atomic      Atomic             Coordinates (Angstroms)
 Number     Number       Type             X           Y           Z
 ---------------------------------------------------------------------
      1          8           0        2.185895   -0.459325   -0.237024
      2          6           0        1.127347    0.031451    0.004668
      3          6           0        0.472792    1.284222   -0.132602
      4          6           0       -0.818352    1.004698    0.298508
      5          7           0       -1.705231   -0.048005   -0.338975
      6          6           0       -0.995141   -1.118614   -0.077081
      7          7           0       -0.004980   -0.733451    0.691376
      8          1           0        0.875774    2.228586   -0.465262
      9          1           0       -1.441785    1.739415    0.810452
     10          1           0       -2.448117    0.078173   -1.014944
     11          1           0       -1.221430   -2.111925   -0.461817
 ---------------------------------------------------------------------

 SCF Done:  E(RHF) =  -337.742871042     A.U. after    2 cycles

 The electronic state is 1-A.
 Alpha  occ. eigenvalues --  -20.51697 -15.58168 -15.48964 -11.38415 -11.37265
 Alpha  occ. eigenvalues --  -11.36133 -11.22041  -1.46673  -1.36455  -1.17827
 Alpha  occ. eigenvalues --   -1.08580  -0.91186  -0.89044  -0.82169  -0.74114
 Alpha  occ. eigenvalues --   -0.70464  -0.68600  -0.65043  -0.61299  -0.58567
 Alpha  occ. eigenvalues --   -0.54368  -0.48800  -0.43261  -0.40827  -0.32304
 Alpha virt. eigenvalues --    0.01860   0.02490   0.03782   0.03997   0.04883
 Alpha virt. eigenvalues --    0.07386   0.08867   0.09372   0.10679   0.11403
 Alpha virt. eigenvalues --    0.11834   0.13161   0.14175   0.14890   0.15020

 Mulliken charges:
               1
     1  O   -1.206219
     2  C    0.503162
     3  C    0.862168
     4  C   -0.554495
     5  N    0.645069
     6  C   -0.467097
     7  N    0.284022
     8  H   -0.073806
     9  H   -0.063167
    10  H    0.031445
    11  H    0.038917
 Sum of Mulliken charges =   0.00000

 Dipole moment (field-independent basis, Debye):
    X=             -6.5883    Y=              1.0862    Z=             -1.9951  Tot=              6.9689

 Test job not archived.
 1\1\GINC-SE094\SP\RHF\Aug-CC-pVDZ\C4H4N2O1\OHZDE\09-Apr-2025\0\\#t hf
 aug-cc-pvdz iop(5/13=1,5/36=2,99/5=2) pseudo=read geom=check guess=(re
 ad,tcheck) scf=(maxcycle=1)\\title\\0,1\O,0,2.06587807,-1.5970308,-0.3
 0288569\C,0,1.31918001,-0.70862449,-0.03274542\C,0,1.17905651,0.683000
 22,-0.27864723\C,0,-0.04722468,0.97591732,0.30571444\N,0,-1.34796518,0
 .30641317,-0.09548411\C,0,-1.07026215,-0.92940414,0.24312578\N,0,0.088
 85327,-0.8993018,0.85536704\H,0,1.86065806,1.3575178,-0.77394952\H,0,-
 0.26553374,1.93979254,0.76815231\H,0,-2.07333933,0.65450706,-0.7098114

 Normal termination of Gaussian 16 at Wed Apr  9 04:05:05 2025.
