 Gaussian 16, Revision C.01,

 ----------------------------------------------------------------------
 #t hf aug-cc-pvdz symm=none int=(grid=ultrafine) guess=(read,tcheck) s
 table=(opt,rrhf)
 ----------------------------------------------------------------------
 -----
 title
 -----
 Symbolic Z-matrix:
 Charge =  0 Multiplicity = 1

 SCF Done:  E(RHF) =  -283.551758258     A.U. after   15 cycles
 Normal termination of Gaussian 16 at Wed Apr  9 03:09:43 2025.
 Gaussian 16:  ES64L-G16RevC.01  3-Jul-2019

 ----------------------------------------------------------------------
 #t hf aug-cc-pvdz iop(5/13=1,5/36=2,99/5=2) pseudo=read geom=check gue
 ss=(read,tcheck) scf=(maxcycle=1)
 ----------------------------------------------------------------------
 -----
 title
 -----
 Structure from the checkpoint file:  "Grambow2020_b97d3_006652_reverse_mol1.chk"
 Charge =  0 Multiplicity = 1

                         Standard orientation:
 ---------------------------------------------------------------------
 Center     Atomic      Atomic             Coordinates (Angstroms)
 Number     Number       Type             X           Y           Z
 ---------------------------------------------------------------------
      1          7           0        2.743234    0.448832    0.104270
      2          6           0        1.729209   -0.109977   -0.061346
      3          6           0        0.437755   -0.776055   -0.241376
      4          6           0       -0.687856    0.040471    0.398062
      5          6           0       -1.351522    1.118687   -0.392215
      6          8           0       -2.017468   -0.503047    0.153124
      7          1           0        0.477707   -1.780163    0.207142
      8          1           0        0.232109   -0.886005   -1.315707
      9          1           0       -0.573368    0.159662    1.479365
     10          1           0       -1.827819    1.837550    0.301059
     11          1           0       -2.137031   -0.087254   -0.845497
 ---------------------------------------------------------------------

 SCF Done:  E(RHF) =  -283.833391839     A.U. after    2 cycles

 The electronic state is 1-A.
 Alpha  occ. eigenvalues --  -20.62746 -15.53034 -11.34447 -11.31028 -11.30930
 Alpha  occ. eigenvalues --  -11.30018  -1.51153  -1.23683  -1.09744  -0.97527
 Alpha  occ. eigenvalues --   -0.85527  -0.75350  -0.70448  -0.67264  -0.63837
 Alpha  occ. eigenvalues --   -0.61506  -0.59567  -0.54153  -0.51763  -0.49808
 Alpha  occ. eigenvalues --   -0.48739  -0.40617
 Alpha virt. eigenvalues --    0.03357   0.03499   0.04180   0.04618   0.05900
 Alpha virt. eigenvalues --    0.07803   0.08807   0.10440   0.11303   0.12186
 Alpha virt. eigenvalues --    0.12591   0.13809   0.14409   0.15084   0.15245

 Mulliken charges:
               1
     1  N    0.790002
     2  C   -1.313859
     3  C   -0.033636
     4  C    0.982841
     5  C   -0.467433
     6  O   -1.323815
     7  H    0.317052
     8  H    0.284159
     9  H   -0.000380
    10  H    0.124529
    11  H    0.640540
 Sum of Mulliken charges =  -0.00000

 Dipole moment (field-independent basis, Debye):
    X=             -3.2662    Y=             -1.8577    Z=              0.3334  Tot=              3.7723

 Test job not archived.
 1\1\GINC-SE016\SP\RHF\Aug-CC-pVDZ\C4H5N1O1\OHZDE\09-Apr-2025\0\\#t hf
 aug-cc-pvdz iop(5/13=1,5/36=2,99/5=2) pseudo=read geom=check guess=(re
 ad,tcheck) scf=(maxcycle=1)\\title\\0,1\N,0,2.97160704,0.4413618,0.512
 54079\C,0,1.98448589,-0.0831821,0.16846271\C,0,0.7237024,-0.70988168,-
 0.23352645\C,0,-0.46896625,0.02936762,0.37774185\C,0,-1.04803131,1.204
 39869,-0.33746767\O,0,-1.76122895,-0.46723573,-0.07691841\H,0,0.719624
 35,-1.76283587,0.08626965\H,0,0.63685828,-0.68170144,-1.32907666\H,0,-
 0.4735433,0.01027538,1.47142559\H,0,-1.60062849,1.83427851,0.3851235\H

 Normal termination of Gaussian 16 at Wed Apr  9 03:09:46 2025.
