 Gaussian 16, Revision C.01,

 ----------------------------------------------------------------------
 #t hf aug-cc-pvdz symm=none int=(grid=ultrafine) guess=(read,tcheck) s
 table=(opt,rrhf)
 ----------------------------------------------------------------------
 -----
 title
 -----
 Symbolic Z-matrix:
 Charge =  0 Multiplicity = 1

 SCF Done:  E(RHF) =  -343.697210836     A.U. after   13 cycles
 Normal termination of Gaussian 16 at Wed Apr  9 18:53:44 2025.
 Gaussian 16:  ES64L-G16RevC.01  3-Jul-2019

 ----------------------------------------------------------------------
 #t hf aug-cc-pvdz iop(5/13=1,5/36=2,99/5=2) pseudo=read geom=check gue
 ss=(read,tcheck) scf=(maxcycle=1)
 ----------------------------------------------------------------------
 -----
 title
 -----
 Structure from the checkpoint file:  "Grambow2020_wb97xd3_008199_reverse_mol2.chk"
 Charge =  0 Multiplicity = 1

                         Standard orientation:
 ---------------------------------------------------------------------
 Center     Atomic      Atomic             Coordinates (Angstroms)
 Number     Number       Type             X           Y           Z
 ---------------------------------------------------------------------
      1          8           0        2.537344    0.284158   -0.249563
      2          6           0        1.695238   -0.842764   -0.325806
      3          6           0        0.511742   -0.783162    0.641397
      4          6           0       -0.533404    0.207142    0.228142
      5          8           0       -0.032701    1.489061    0.134700
      6          6           0       -1.777297   -0.087569   -0.037178
      7          6           0       -3.019794   -0.381976   -0.292103
      8          1           0        1.984519    1.067885   -0.319295
      9          1           0        2.316991   -1.704386   -0.075695
     10          1           0        1.321344   -0.990569   -1.348506
     11          1           0        0.885124   -0.514567    1.634483
     12          1           0        0.045393   -1.766618    0.710923
     13          1           0       -3.776981   -0.365813    0.486191
     14          1           0       -0.727630    2.079730   -0.166130
     15          1           0       -3.344804   -0.661442   -1.289786
 ---------------------------------------------------------------------

 SCF Done:  E(RHF) =  -344.051743687     A.U. after    2 cycles

 The electronic state is 1-A.
 Alpha  occ. eigenvalues --  -20.59155 -20.53357 -11.31954 -11.28319 -11.26194
 Alpha  occ. eigenvalues --  -11.25140 -11.24655  -1.50345  -1.44002  -1.09625
 Alpha  occ. eigenvalues --   -1.03600  -0.94504  -0.85854  -0.78498  -0.69614
 Alpha  occ. eigenvalues --   -0.68795  -0.64186  -0.62954  -0.62093  -0.60178
 Alpha  occ. eigenvalues --   -0.58610  -0.54955  -0.53654  -0.48832  -0.43282
 Alpha  occ. eigenvalues --   -0.40015  -0.35416
 Alpha virt. eigenvalues --    0.02975   0.04064   0.04112   0.04437   0.06042
 Alpha virt. eigenvalues --    0.06355   0.06753   0.07570   0.09939   0.11048
 Alpha virt. eigenvalues --    0.11906   0.12077   0.13657   0.14008   0.15087

 Mulliken charges:
               1
     1  O   -1.213144
     2  C    0.705971
     3  C   -0.642692
     4  C    1.807162
     5  O   -1.606766
     6  C   -0.276509
     7  C   -0.046143
     8  H    0.421452
     9  H    0.052981
    10  H    0.149116
    11  H    0.220397
    12  H    0.169597
    13  H   -0.052122
    14  H    0.372647
    15  H   -0.061946
 Sum of Mulliken charges =  -0.00000

 Dipole moment (field-independent basis, Debye):
    X=             -2.8868    Y=             -0.0792    Z=             -0.2991  Tot=              2.9034

 Test job not archived.
 1\1\GINC-SE116\SP\RHF\Aug-CC-pVDZ\C5H8O2\OHZDE\09-Apr-2025\0\\#t hf au
 g-cc-pvdz iop(5/13=1,5/36=2,99/5=2) pseudo=read geom=check guess=(read
 ,tcheck) scf=(maxcycle=1)\\title\\0,1\O,0,2.32659488,0.80710718,1.3537
 1054\C,0,1.46143407,1.28381782,0.34914471\C,0,0.81411692,0.16902774,-0
 .47421429\C,0,-0.23991599,-0.58079785,0.28115906\O,0,0.25501992,-1.169
 7372,1.42612199\C,0,-1.49367429,-0.6658792,-0.07291556\C,0,-2.74169636
 ,-0.7575769,-0.43277072\H,0,1.84995917,0.14225246,1.85917207\H,0,2.072
 46077,1.90427561,-0.309038\H,0,0.67611373,1.92508751,0.77294082\H,0,1.

 Normal termination of Gaussian 16 at Wed Apr  9 18:53:49 2025.
