 Gaussian 16, Revision C.01,

 ----------------------------------------------------------------------
 #t hf aug-cc-pvdz symm=none int=(grid=ultrafine) guess=(read,tcheck) s
 table=(opt,rrhf)
 ----------------------------------------------------------------------
 -----
 title
 -----
 Symbolic Z-matrix:
 Charge =  0 Multiplicity = 1

 SCF Done:  E(RHF) =  -266.737338238     A.U. after   15 cycles
 Normal termination of Gaussian 16 at Wed Apr  9 03:05:14 2025.
 Gaussian 16:  ES64L-G16RevC.01  3-Jul-2019

 ----------------------------------------------------------------------
 #t hf aug-cc-pvdz iop(5/13=1,5/36=2,99/5=2) pseudo=read geom=check gue
 ss=(read,tcheck) scf=(maxcycle=1)
 ----------------------------------------------------------------------
 -----
 title
 -----
 Structure from the checkpoint file:  "Grambow2020_b97d3_006472_reverse_mol2.chk"
 Charge =  0 Multiplicity = 1

                         Standard orientation:
 ---------------------------------------------------------------------
 Center     Atomic      Atomic             Coordinates (Angstroms)
 Number     Number       Type             X           Y           Z
 ---------------------------------------------------------------------
      1          8           0       -1.401077   -0.970881    0.115114
      2          6           0       -1.250379    0.412639   -0.158973
      3          6           0        0.091780    0.951682    0.323377
      4          6           0        1.855254   -0.737719    0.051302
      5          8           0        1.148156    0.243342   -0.445066
      6          1           0       -0.775622   -1.451659   -0.460000
      7          1           0       -1.371540    0.644281   -1.231736
      8          1           0       -2.051043    0.926133    0.390453
      9          1           0        0.210709    2.019702    0.105234
     10          1           0        0.253122    0.739363    1.389669
     11          1           0        1.577807   -0.817115    1.151758
 ---------------------------------------------------------------------

 SCF Done:  E(RHF) =  -267.006886559     A.U. after    2 cycles

 The electronic state is 1-A.
 Alpha  occ. eigenvalues --  -20.62029 -20.56935 -11.32339 -11.31593 -11.31210
 Alpha  occ. eigenvalues --   -1.53181  -1.46375  -1.05153  -0.90014  -0.83528
 Alpha  occ. eigenvalues --   -0.72050  -0.69896  -0.67517  -0.61748  -0.60208
 Alpha  occ. eigenvalues --   -0.55608  -0.54222  -0.51221  -0.46407  -0.36624
 Alpha virt. eigenvalues --    0.03098   0.03968   0.04585   0.04916   0.06539
 Alpha virt. eigenvalues --    0.07420   0.08771   0.10974   0.11557   0.12502
 Alpha virt. eigenvalues --    0.14099   0.14371   0.15181   0.15621   0.16396

 Mulliken charges:
               1
     1  O   -1.121256
     2  C    0.637464
     3  C    0.324501
     4  C    0.058582
     5  O   -0.947022
     6  H    0.344077
     7  H    0.161602
     8  H    0.108334
     9  H    0.088884
    10  H    0.196650
    11  H    0.148184
 Sum of Mulliken charges =  -0.00000

 Dipole moment (field-independent basis, Debye):
    X=             -1.7237    Y=              2.6252    Z=              0.8614  Tot=              3.2565

 Test job not archived.
 1\1\GINC-SE229\SP\RHF\Aug-CC-pVDZ\C3H6O2\OHZDE\09-Apr-2025\0\\#t hf au
 g-cc-pvdz iop(5/13=1,5/36=2,99/5=2) pseudo=read geom=check guess=(read
 ,tcheck) scf=(maxcycle=1)\\title\\0,1\O,0,-1.55117057,-0.63465521,-0.2
 2950412\C,0,-0.9650024,0.64476545,-0.05215867\C,0,0.48111045,0.5541093
 1,0.42235167\C,0,1.60710998,-1.38272145,-0.5869818\O,0,1.25076875,-0.1
 2663457,-0.65114484\H,0,-1.11568147,-1.05069281,-0.99785277\H,0,-1.009
 60248,1.25832822,-0.96906065\H,0,-1.5559976,1.15136447,0.72288324\H,0,
 0.93604034,1.5432602,0.55280319\H,0,0.56994387,-0.05209898,1.33488051\

 Normal termination of Gaussian 16 at Wed Apr  9 03:05:18 2025.
