 Gaussian 16, Revision C.01,

 ----------------------------------------------------------------------
 #t hf aug-cc-pvdz symm=none int=(grid=ultrafine) guess=(read,tcheck) s
 table=(opt,rrhf)
 ----------------------------------------------------------------------
 -----
 title
 -----
 Symbolic Z-matrix:
 Charge =  0 Multiplicity = 1

 SCF Done:  E(RHF) =  -306.722141688     A.U. after   15 cycles
 Normal termination of Gaussian 16 at Wed Apr  9 19:08:58 2025.
 Gaussian 16:  ES64L-G16RevC.01  3-Jul-2019

 ----------------------------------------------------------------------
 #t hf aug-cc-pvdz iop(5/13=1,5/36=2,99/5=2) pseudo=read geom=check gue
 ss=(read,tcheck) scf=(maxcycle=1)
 ----------------------------------------------------------------------
 -----
 title
 -----
 Structure from the checkpoint file:  "Grambow2020_wb97xd3_008782_reverse_mol2.chk"
 Charge =  0 Multiplicity = 1

                         Standard orientation:
 ---------------------------------------------------------------------
 Center     Atomic      Atomic             Coordinates (Angstroms)
 Number     Number       Type             X           Y           Z
 ---------------------------------------------------------------------
      1          8           0       -1.314562   -1.673131   -0.259230
      2          6           0       -0.847510   -0.611952    0.083782
      3          6           0        0.510123   -0.556401    0.769426
      4          6           0        1.611284   -0.427455   -0.245077
      5          6           0        2.523142    0.531217   -0.253542
      6          6           0       -1.148831    1.868079    0.046387
      7          6           0       -1.589986    0.642895   -0.204052
      8          1           0        0.564212    0.256297    1.494859
      9          1           0        0.615083   -1.503285    1.303090
     10          1           0        1.631249   -1.197764   -1.011454
     11          1           0       -0.183080    2.054301    0.499971
     12          1           0        2.535322    1.314278    0.498064
     13          1           0        3.298453    0.565086   -1.008725
     14          1           0       -1.740518    2.738943   -0.208426
     15          1           0       -2.553557    0.478892   -0.675086
 ---------------------------------------------------------------------

 SCF Done:  E(RHF) =  -307.039666436     A.U. after    2 cycles

 The electronic state is 1-A.
 Alpha  occ. eigenvalues --  -20.53802 -11.34213 -11.26977 -11.25646 -11.25637
 Alpha  occ. eigenvalues --  -11.25276 -11.24299  -1.47514  -1.10837  -1.07256
 Alpha  occ. eigenvalues --   -0.97938  -0.87267  -0.78883  -0.74142  -0.69687
 Alpha  occ. eigenvalues --   -0.67269  -0.63853  -0.62410  -0.60654  -0.56278
 Alpha  occ. eigenvalues --   -0.54987  -0.53655  -0.50190  -0.42826  -0.40332
 Alpha  occ. eigenvalues --   -0.37805
 Alpha virt. eigenvalues --    0.03136   0.03719   0.03965   0.04279   0.05834
 Alpha virt. eigenvalues --    0.06471   0.06660   0.07092   0.07966   0.10352
 Alpha virt. eigenvalues --    0.11921   0.12301   0.13016   0.14202   0.14578

 Mulliken charges:
               1
     1  O   -1.418669
     2  C    1.003657
     3  C   -0.350739
     4  C    0.640707
     5  C   -0.165194
     6  C   -0.058156
     7  C    0.787477
     8  H    0.138989
     9  H    0.144053
    10  H   -0.163358
    11  H   -0.035361
    12  H   -0.095669
    13  H   -0.102570
    14  H   -0.125353
    15  H   -0.199814
 Sum of Mulliken charges =  -0.00000

 Dipole moment (field-independent basis, Debye):
    X=              1.2022    Y=              3.0003    Z=              0.8057  Tot=              3.3311

 Test job not archived.
 1\1\GINC-SE105\SP\RHF\Aug-CC-pVDZ\C6H8O1\OHZDE\09-Apr-2025\0\\#t hf au
 g-cc-pvdz iop(5/13=1,5/36=2,99/5=2) pseudo=read geom=check guess=(read
 ,tcheck) scf=(maxcycle=1)\\title\\0,1\O,0,0.03469133,-2.18588984,1.290
 24203\C,0,0.34014606,-1.27755894,0.55299871\C,0,-0.6399239,-0.78086555
 ,-0.50014773\C,0,-1.51652469,0.30313349,0.06102424\C,0,-1.65423112,1.5
 1071451,-0.46184799\C,0,2.08269687,0.43171235,0.01946868\C,0,1.6649040
 9,-0.62193795,0.70771506\H,0,-0.12722909,-0.42955672,-1.39646436\H,0,-
 1.25339877,-1.64334706,-0.76881007\H,0,-2.06536787,0.03920903,0.961148

 Normal termination of Gaussian 16 at Wed Apr  9 19:09:03 2025.
