 Gaussian 16, Revision C.01,

 ----------------------------------------------------------------------
 #t hf aug-cc-pvdz symm=none int=(grid=ultrafine) guess=(read,tcheck) s
 table=(opt,rrhf)
 ----------------------------------------------------------------------
 -----
 title
 -----
 Symbolic Z-matrix:
 Charge =  0 Multiplicity = 1

 SCF Done:  E(RHF) =  -322.517655113     A.U. after   15 cycles
 Normal termination of Gaussian 16 at Wed Apr  9 18:08:11 2025.
 Gaussian 16:  ES64L-G16RevC.01  3-Jul-2019

 ----------------------------------------------------------------------
 #t hf aug-cc-pvdz iop(5/13=1,5/36=2,99/5=2) pseudo=read geom=check gue
 ss=(read,tcheck) scf=(maxcycle=1)
 ----------------------------------------------------------------------
 -----
 title
 -----
 Structure from the checkpoint file:  "Grambow2020_wb97xd3_007118_forward_mol1.chk"
 Charge =  0 Multiplicity = 1

                         Standard orientation:
 ---------------------------------------------------------------------
 Center     Atomic      Atomic             Coordinates (Angstroms)
 Number     Number       Type             X           Y           Z
 ---------------------------------------------------------------------
      1          7           0       -2.518452   -0.487245   -0.014452
      2          6           0       -1.371160   -0.329322   -0.124805
      3          8           0       -0.368298    1.650101    0.292440
      4          6           0        0.787748    1.669803   -0.125249
      5          6           0        1.548406   -0.391306   -0.462468
      6          6           0        1.252661   -1.125143    0.800902
      7          6           0        0.505528   -1.223326   -0.480088
      8          1           0       -3.493160   -0.369776    0.152600
      9          1           0        1.634306    1.755356    0.571625
     10          1           0        1.001681    1.914423   -1.177543
     11          1           0        2.387644   -0.157654   -1.092783
     12          1           0        0.793985   -0.562533    1.617352
     13          1           0        1.848051   -1.977439    1.124404
     14          1           0        0.063941   -1.996710   -1.083766
 ---------------------------------------------------------------------

 SCF Done:  E(RHF) =  -322.842651542     A.U. after    2 cycles

 The electronic state is 1-A.
 Alpha  occ. eigenvalues --  -20.50935 -15.54079 -11.31552 -11.31428 -11.28088
 Alpha  occ. eigenvalues --  -11.24036 -11.21413  -1.43218  -1.27758  -1.16212
 Alpha  occ. eigenvalues --   -0.90554  -0.85547  -0.82185  -0.77258  -0.68414
 Alpha  occ. eigenvalues --   -0.65442  -0.64387  -0.60604  -0.56232  -0.55887
 Alpha  occ. eigenvalues --   -0.53146  -0.48778  -0.45740  -0.42954  -0.38746
 Alpha  occ. eigenvalues --   -0.31535
 Alpha virt. eigenvalues --    0.02837   0.03798   0.04328   0.04495   0.05916
 Alpha virt. eigenvalues --    0.06691   0.07713   0.10126   0.10769   0.11435
 Alpha virt. eigenvalues --    0.12164   0.12667   0.13539   0.14471   0.14585

 Mulliken charges:
               1
     1  N    0.729239
     2  C   -0.776026
     3  O   -1.000374
     4  C    0.613140
     5  C    0.101836
     6  C    0.086618
     7  C    0.543663
     8  H    0.039122
     9  H    0.138692
    10  H    0.098636
    11  H   -0.256372
    12  H    0.007641
    13  H   -0.137374
    14  H   -0.188441
 Sum of Mulliken charges =   0.00000

 Dipole moment (field-independent basis, Debye):
    X=             -0.8728    Y=             -1.5980    Z=             -1.0445  Tot=              2.0991

 Test job not archived.
 1\1\GINC-SE226\SP\RHF\Aug-CC-pVDZ\C5H7N1O1\OHZDE\09-Apr-2025\0\\#t hf
 aug-cc-pvdz iop(5/13=1,5/36=2,99/5=2) pseudo=read geom=check guess=(re
 ad,tcheck) scf=(maxcycle=1)\\title\\0,1\N,0,2.07516941,-1.86968165,-0.
 08004711\C,0,1.24114285,-1.06307181,-0.16476749\O,0,1.51912305,0.86056
 394,-1.31380846\C,0,0.62715333,1.66957665,-1.06645352\C,0,-1.14160525,
 0.658576,-0.17771404\C,0,-1.43734333,-0.48049126,-1.0926751\C,0,-0.766
 8276,-0.55475686,0.23158994\H,0,2.92106397,-2.38945535,-0.15788326\H,0
 ,-0.07774012,1.98395052,-1.84997543\H,0,0.68995532,2.32350494,-0.18250

 Normal termination of Gaussian 16 at Wed Apr  9 18:08:15 2025.
