 Gaussian 16, Revision C.01,

 ----------------------------------------------------------------------
 #t hf aug-cc-pvdz symm=none int=(grid=ultrafine) guess=(read,tcheck) s
 table=(opt,rrhf)
 ----------------------------------------------------------------------
 -----
 title
 -----
 Symbolic Z-matrix:
 Charge =  0 Multiplicity = 1

 SCF Done:  E(RHF) =  -284.738019108     A.U. after   16 cycles
 Normal termination of Gaussian 16 at Wed Apr  9 03:21:35 2025.
 Gaussian 16:  ES64L-G16RevC.01  3-Jul-2019

 ----------------------------------------------------------------------
 #t hf aug-cc-pvdz iop(5/13=1,5/36=2,99/5=2) pseudo=read geom=check gue
 ss=(read,tcheck) scf=(maxcycle=1)
 ----------------------------------------------------------------------
 -----
 title
 -----
 Structure from the checkpoint file:  "Grambow2020_wb97xd3_006085_reverse_mol1.chk"
 Charge =  0 Multiplicity = 1

                         Standard orientation:
 ---------------------------------------------------------------------
 Center     Atomic      Atomic             Coordinates (Angstroms)
 Number     Number       Type             X           Y           Z
 ---------------------------------------------------------------------
      1          6           0       -1.254413    1.351749   -0.051738
      2          6           0       -1.173000   -0.100832    0.393148
      3          7           0       -1.314048   -1.136254   -0.447168
      4          6           0        0.257035   -0.857394    0.253341
      5          6           0        1.271999    0.050505   -0.380412
      6          8           0        2.281802    0.368897    0.177331
      7          1           0       -0.987578    1.469145   -1.101232
      8          1           0       -0.636476    2.004813    0.568380
      9          1           0       -2.291660    1.669231    0.068472
     10          1           0       -1.476393   -0.212974    1.449565
     11          1           0        0.178151   -1.758425   -0.400282
     12          1           0        0.513359   -1.205987    1.251511
     13          1           0        1.034791    0.372628   -1.410918
 ---------------------------------------------------------------------

 SCF Done:  E(RHF) =  -285.027329371     A.U. after    2 cycles

 The electronic state is 1-A.
 Alpha  occ. eigenvalues --  -20.56408 -15.52253 -11.36231 -11.31207 -11.30372
 Alpha  occ. eigenvalues --  -11.24990  -1.50096  -1.25859  -1.01169  -0.99863
 Alpha  occ. eigenvalues --   -0.83544  -0.80834  -0.69959  -0.68832  -0.64719
 Alpha  occ. eigenvalues --   -0.61461  -0.60963  -0.57544  -0.55616  -0.54661
 Alpha  occ. eigenvalues --   -0.48751  -0.43757  -0.40829
 Alpha virt. eigenvalues --    0.03486   0.03878   0.04461   0.04940   0.05657
 Alpha virt. eigenvalues --    0.06250   0.07310   0.09821   0.10730   0.11693
 Alpha virt. eigenvalues --    0.11977   0.12595   0.14260   0.14535   0.14747

 Mulliken charges:
               1
     1  C   -0.377570
     2  C   -0.989788
     3  N    0.602582
     4  C   -1.003074
     5  C    1.485689
     6  O   -1.207886
     7  H    0.265415
     8  H    0.271105
     9  H    0.101868
    10  H    0.037380
    11  H    0.555340
    12  H    0.061489
    13  H    0.197450
 Sum of Mulliken charges =  -0.00000

 Dipole moment (field-independent basis, Debye):
    X=             -0.9281    Y=              0.8394    Z=              0.5879  Tot=              1.3826

 Test job not archived.
 1\1\GINC-SE120\SP\RHF\Aug-CC-pVDZ\C4H7N1O1\OHZDE\09-Apr-2025\0\\#t hf
 aug-cc-pvdz iop(5/13=1,5/36=2,99/5=2) pseudo=read geom=check guess=(re
 ad,tcheck) scf=(maxcycle=1)\\title\\0,1\C,0,-0.86980959,-0.3157798,1.2
 3322946\C,0,-0.6229719,-0.73948063,-0.20694087\N,0,-1.14967155,-0.1008
 7658,-1.26188051\C,0,0.57319271,-0.00108588,-1.01989606\C,0,1.20703117
 ,1.06303388,-0.17020442\O,0,2.36582051,1.03761043,0.12764329\H,0,-1.10
 616453,0.74485051,1.30820483\H,0,-0.02545876,-0.55932913,1.88179748\H,
 0,-1.73328366,-0.87835347,1.59246373\H,0,-0.41594437,-1.82259324,-0.27

 Normal termination of Gaussian 16 at Wed Apr  9 03:21:39 2025.
