 Gaussian 16, Revision C.01,

 ----------------------------------------------------------------------
 #t hf aug-cc-pvdz symm=none int=(grid=ultrafine) guess=(read,tcheck) s
 table=(opt,rrhf)
 ----------------------------------------------------------------------
 -----
 title
 -----
 Symbolic Z-matrix:
 Charge =  0 Multiplicity = 1

 SCF Done:  E(RHF) =  -224.669359648     A.U. after   20 cycles
 Normal termination of Gaussian 16 at Wed Apr  9 15:55:37 2025.
 Gaussian 16:  ES64L-G16RevC.01  3-Jul-2019

 ----------------------------------------------------------------------
 #t hf aug-cc-pvdz iop(5/13=1,5/36=2,99/5=2) pseudo=read geom=check gue
 ss=(read,tcheck) scf=(maxcycle=1)
 ----------------------------------------------------------------------
 -----
 title
 -----
 Structure from the checkpoint file:  "Grambow2020_b97d3_006887_reverse_mol1.chk"
 Charge =  0 Multiplicity = 1

                         Standard orientation:
 ---------------------------------------------------------------------
 Center     Atomic      Atomic             Coordinates (Angstroms)
 Number     Number       Type             X           Y           Z
 ---------------------------------------------------------------------
      1          7           0        1.456507   -0.749929    0.025323
      2          6           0        1.092604    0.498266   -0.025101
      3          6           0       -0.230952    0.984683    0.078279
      4          6           0       -1.416110    0.129984   -0.193856
      5          7           0       -1.183125   -1.050325    0.149788
      6          1           0        2.407670   -0.870550   -0.358765
      7          1           0        1.818669    1.316527   -0.195124
      8          1           0       -0.416485    1.914433    0.625960
      9          1           0       -2.396780    0.563774   -0.453777
 ---------------------------------------------------------------------

 SCF Done:  E(RHF) =  -224.888150359     A.U. after    2 cycles

 The electronic state is 1-A.
 Alpha  occ. eigenvalues --  -15.57579 -15.49788 -11.32013 -11.30048 -11.29323
 Alpha  occ. eigenvalues --   -1.25341  -1.19513  -1.01319  -0.85243  -0.74945
 Alpha  occ. eigenvalues --   -0.72692  -0.65770  -0.62184  -0.61005  -0.53014
 Alpha  occ. eigenvalues --   -0.49398  -0.44215  -0.34342
 Alpha virt. eigenvalues --   -0.02323   0.03170   0.03828   0.04648   0.06132
 Alpha virt. eigenvalues --    0.08676   0.09292   0.10651   0.12279   0.13166
 Alpha virt. eigenvalues --    0.13695   0.14508   0.14574   0.15433   0.15940

 Mulliken charges:
               1
     1  N    0.548108
     2  C   -0.667257
     3  C    0.132211
     4  C   -0.735215
     5  N    0.664240
     6  H    0.142988
     7  H   -0.083083
     8  H   -0.040442
     9  H    0.038451
 Sum of Mulliken charges =  -0.00000

 Dipole moment (field-independent basis, Debye):
    X=             -0.2343    Y=              4.7449    Z=             -1.0798  Tot=              4.8718

 Test job not archived.
 1\1\GINC-SE120\SP\RHF\Aug-CC-pVDZ\C3H4N2\OHZDE\09-Apr-2025\0\\#t hf au
 g-cc-pvdz iop(5/13=1,5/36=2,99/5=2) pseudo=read geom=check guess=(read
 ,tcheck) scf=(maxcycle=1)\\title\\0,1\N,0,-1.58544419,-0.58717172,-0.1
 6816684\C,0,-0.86079828,0.47821104,0.01296005\C,0,0.55027519,0.5454782
 2,-0.04565691\C,0,1.41168397,-0.65342679,0.12687977\N,0,0.84027505,-1.
 66419798,-0.33931294\H,0,-2.53827517,-0.4507894,0.20639493\H,0,-1.3080
 5084,1.45684062,0.27349558\H,0,1.02441965,1.42562432,-0.49213597\H,0,2
 .47041162,-0.5688823,0.42586834\\Version=ES64L-G16RevC.01\State=1-A\HF

 Normal termination of Gaussian 16 at Wed Apr  9 15:55:39 2025.
