 Gaussian 16, Revision C.01,

 ----------------------------------------------------------------------
 #t hf aug-cc-pvdz symm=none int=(grid=ultrafine) guess=(read,tcheck) s
 table=(opt,rrhf)
 ----------------------------------------------------------------------
 -----
 title
 -----
 Symbolic Z-matrix:
 Charge =  0 Multiplicity = 1

 SCF Done:  E(RHF) =  -373.291379899     A.U. after   16 cycles
 Normal termination of Gaussian 16 at Wed Apr  9 03:27:58 2025.
 Gaussian 16:  ES64L-G16RevC.01  3-Jul-2019

 ----------------------------------------------------------------------
 #t hf aug-cc-pvdz iop(5/13=1,5/36=2,99/5=2) pseudo=read geom=check gue
 ss=(read,tcheck) scf=(maxcycle=1)
 ----------------------------------------------------------------------
 -----
 title
 -----
 Structure from the checkpoint file:  "Grambow2020_wb97xd3_006708_reverse_mol2.chk"
 Charge =  0 Multiplicity = 1

                         Standard orientation:
 ---------------------------------------------------------------------
 Center     Atomic      Atomic             Coordinates (Angstroms)
 Number     Number       Type             X           Y           Z
 ---------------------------------------------------------------------
      1          8           0       -2.629722   -0.058513    0.150978
      2          6           0       -1.597314   -0.587850   -0.122827
      3          6           0       -0.263081    0.183080   -0.059044
      4          7           0        0.838351   -0.724068   -0.149183
      5          6           0        1.973307   -0.293536    0.581764
      6          7           0        2.180267    0.107004   -0.555163
      7          8           0       -0.199864    1.370459    0.020112
      8          1           0       -1.522592   -1.646216   -0.429806
      9          1           0        2.351477   -0.340062    1.592154
 ---------------------------------------------------------------------

 SCF Done:  E(RHF) =  -373.654379501     A.U. after    2 cycles

 The electronic state is 1-A.
 Alpha  occ. eigenvalues --  -20.58801 -20.57696 -15.61218 -15.58626 -11.39331
 Alpha  occ. eigenvalues --  -11.38569 -11.37150  -1.53342  -1.51041  -1.41794
 Alpha  occ. eigenvalues --   -1.14345  -0.95246  -0.88163  -0.81048  -0.76679
 Alpha  occ. eigenvalues --   -0.71928  -0.68589  -0.67742  -0.62866  -0.61149
 Alpha  occ. eigenvalues --   -0.55015  -0.52391  -0.50179  -0.49068  -0.43323
 Alpha virt. eigenvalues --    0.02030   0.02787   0.04455   0.05440   0.06977
 Alpha virt. eigenvalues --    0.08405   0.09111   0.10033   0.10924   0.12323
 Alpha virt. eigenvalues --    0.13514   0.13828   0.13952   0.14648   0.15742

 Mulliken charges:
               1
     1  O   -0.998936
     2  C    1.150817
     3  C    0.623925
     4  N    0.299571
     5  C   -0.576726
     6  N    0.491020
     7  O   -1.183659
     8  H    0.201189
     9  H   -0.007200
 Sum of Mulliken charges =   0.00000

 Dipole moment (field-independent basis, Debye):
    X=              2.6424    Y=             -2.7961    Z=              2.7088  Tot=              4.7052

 Test job not archived.
 1\1\GINC-SE459\SP\RHF\Aug-CC-pVDZ\C3H2N2O2\OHZDE\09-Apr-2025\0\\#t hf
 aug-cc-pvdz iop(5/13=1,5/36=2,99/5=2) pseudo=read geom=check guess=(re
 ad,tcheck) scf=(maxcycle=1)\\title\\0,1\O,0,-2.68893657,-0.10402393,-0
 .58843956\C,0,-1.7586594,0.21146795,0.08689834\C,0,-0.36918231,-0.4249
 4992,-0.12023654\N,0,0.62452566,0.3091806,0.59934093\C,0,1.88933043,0.
 30430703,-0.03941677\N,0,1.95583346,-0.61667178,0.76260725\O,0,-0.1936
 0547,-1.40950232,-0.7682796\H,0,-1.82174152,0.96915471,0.88807964\H,0,
 2.41023372,0.85432266,-0.80896669\\Version=ES64L-G16RevC.01\State=1-A\

 Normal termination of Gaussian 16 at Wed Apr  9 03:28:01 2025.
