 Gaussian 16, Revision C.01,

 ----------------------------------------------------------------------
 #t hf aug-cc-pvdz symm=none int=(grid=ultrafine) guess=(read,tcheck) s
 table=(opt,rrhf)
 ----------------------------------------------------------------------
 -----
 title
 -----
 Symbolic Z-matrix:
 Charge =  0 Multiplicity = 1

 SCF Done:  E(RHF) =  -232.992024493     A.U. after   13 cycles
 Normal termination of Gaussian 16 at Wed Apr  9 03:15:36 2025.
 Gaussian 16:  ES64L-G16RevC.01  3-Jul-2019

 ----------------------------------------------------------------------
 #t hf aug-cc-pvdz iop(5/13=1,5/36=2,99/5=2) pseudo=read geom=check gue
 ss=(read,tcheck) scf=(maxcycle=1)
 ----------------------------------------------------------------------
 -----
 title
 -----
 Structure from the checkpoint file:  "Grambow2020_b97d3_006949_reverse_mol2.chk"
 Charge =  0 Multiplicity = 1

                         Standard orientation:
 ---------------------------------------------------------------------
 Center     Atomic      Atomic             Coordinates (Angstroms)
 Number     Number       Type             X           Y           Z
 ---------------------------------------------------------------------
      1          6           0        1.541794   -1.235067   -0.431763
      2          6           0        1.393879   -0.129211    0.622432
      3          6           0       -2.308161   -0.812602    0.180877
      4          6           0       -1.478195    0.172937   -0.083736
      5          6           0       -0.630539    1.142426   -0.353299
      6          6           0        0.831945    1.183210    0.054386
      7          1           0        2.221069   -0.917834   -1.237157
      8          1           0        0.573007   -1.481304   -0.884725
      9          1           0        1.950981   -2.152625    0.014132
     10          1           0        2.376506    0.079957    1.072578
     11          1           0       -2.449098   -1.643813   -0.515253
     12          1           0       -2.894457   -0.837821    1.102873
     13          1           0        0.741244   -0.477357    1.437718
     14          1           0       -1.004160    2.017138   -0.897193
     15          1           0        1.427688    1.491333   -0.821844
     16          1           0        0.952885    1.992174    0.795484
 ---------------------------------------------------------------------

 SCF Done:  E(RHF) =  -233.245393740     A.U. after    2 cycles

 The electronic state is 1-A.
 Alpha  occ. eigenvalues --  -11.26034 -11.24993 -11.24543 -11.24280 -11.22977
 Alpha  occ. eigenvalues --  -11.22041  -1.09844  -1.03807  -0.97453  -0.89949
 Alpha  occ. eigenvalues --   -0.80872  -0.69692  -0.64827  -0.62909  -0.61515
 Alpha  occ. eigenvalues --   -0.60039  -0.55789  -0.55000  -0.49234  -0.48415
 Alpha  occ. eigenvalues --   -0.47842  -0.37669  -0.36513
 Alpha virt. eigenvalues --    0.03539   0.03838   0.03960   0.04076   0.05854
 Alpha virt. eigenvalues --    0.06006   0.06760   0.07302   0.07733   0.09689
 Alpha virt. eigenvalues --    0.10998   0.11991   0.12961   0.13566   0.14259

 Mulliken charges:
               1
     1  C   -0.356441
     2  C   -0.373626
     3  C   -0.138670
     4  C   -0.108483
     5  C    0.542444
     6  C   -0.522518
     7  H    0.166471
     8  H    0.178659
     9  H    0.124770
    10  H    0.129892
    11  H   -0.050703
    12  H   -0.044885
    13  H    0.226460
    14  H   -0.168430
    15  H    0.222172
    16  H    0.172887
 Sum of Mulliken charges =  -0.00000

 Dipole moment (field-independent basis, Debye):
    X=              0.4409    Y=              0.1854    Z=              0.1029  Tot=              0.4892

 Test job not archived.
 1\1\GINC-SE021\SP\RHF\Aug-CC-pVDZ\C6H10\OHZDE\09-Apr-2025\0\\#t hf aug
 -cc-pvdz iop(5/13=1,5/36=2,99/5=2) pseudo=read geom=check guess=(read,
 tcheck) scf=(maxcycle=1)\\title\\0,1\C,0,1.81415298,-0.10880232,0.1292
 8457\C,0,0.68376067,-0.13823343,1.16729681\C,0,-1.40608248,-1.25992187
 ,-1.78929965\C,0,-1.33279468,-0.19810096,-1.01643701\C,0,-1.23531527,0
 .86103443,-0.24195401\C,0,-0.34412577,0.98859067,0.9812544\H,0,2.36714
 283,0.84102471,0.18164158\H,0,1.41839503,-0.21325436,-0.8889599\H,0,2.
 52865375,-0.9261754,0.30120723\H,0,1.1132182,-0.053046,2.17737029\H,0,

 Normal termination of Gaussian 16 at Wed Apr  9 03:15:41 2025.
