 Gaussian 16, Revision C.01,

 ----------------------------------------------------------------------
 #t hf aug-cc-pvdz symm=none int=(grid=ultrafine) guess=(read,tcheck) s
 table=(opt,rrhf)
 ----------------------------------------------------------------------
 -----
 title
 -----
 Symbolic Z-matrix:
 Charge =  0 Multiplicity = 1

 SCF Done:  E(RHF) =  -268.736979906     A.U. after   17 cycles
 Normal termination of Gaussian 16 at Wed Apr  9 03:05:40 2025.
 Gaussian 16:  ES64L-G16RevC.01  3-Jul-2019

 ----------------------------------------------------------------------
 #t hf aug-cc-pvdz iop(5/13=1,5/36=2,99/5=2) pseudo=read geom=check gue
 ss=(read,tcheck) scf=(maxcycle=1)
 ----------------------------------------------------------------------
 -----
 title
 -----
 Structure from the checkpoint file:  "Grambow2020_b97d3_006491_forward_mol1.chk"
 Charge =  0 Multiplicity = 1

                         Standard orientation:
 ---------------------------------------------------------------------
 Center     Atomic      Atomic             Coordinates (Angstroms)
 Number     Number       Type             X           Y           Z
 ---------------------------------------------------------------------
      1          8           0        2.092669    0.032594   -0.249058
      2          6           0        0.926107   -0.038410    0.340255
      3          6           0        0.067454    1.159451    0.178092
      4          6           0       -1.311988    0.845078   -0.235929
      5          6           0       -1.453968   -0.649066    0.159292
      6          6           0       -0.065737   -1.205830   -0.170065
      7          1           0        0.893301   -0.227668    1.473604
      8          1           0        0.496161    2.162831    0.149639
      9          1           0       -2.064853    1.540796    0.168526
     10          1           0       -1.389750    0.926744   -1.340504
     11          1           0       -2.261519   -1.155123   -0.383196
     12          1           0       -1.657391   -0.730321    1.236295
     13          1           0        0.184781   -2.154920    0.312230
     14          1           0        0.086703   -1.290429   -1.253998
 ---------------------------------------------------------------------

 SCF Done:  E(RHF) =  -269.018949036     A.U. after    2 cycles

 The electronic state is 1-A.
 Alpha  occ. eigenvalues --  -20.41725 -11.37577 -11.29651 -11.28757 -11.26379
 Alpha  occ. eigenvalues --  -11.24088  -1.33096  -1.16568  -1.00289  -0.96424
 Alpha  occ. eigenvalues --   -0.82655  -0.78387  -0.70531  -0.68403  -0.60781
 Alpha  occ. eigenvalues --   -0.56821  -0.56564  -0.55918  -0.52281  -0.49773
 Alpha  occ. eigenvalues --   -0.49493  -0.33096  -0.31816
 Alpha virt. eigenvalues --   -0.00401   0.01980   0.03015   0.03144   0.04567
 Alpha virt. eigenvalues --    0.05700   0.06522   0.06956   0.07135   0.10246
 Alpha virt. eigenvalues --    0.12560   0.13165   0.13358   0.14132   0.15069

 Mulliken charges:
               1
     1  O   -1.544963
     2  C    0.805060
     3  C    0.136732
     4  C   -0.480180
     5  C   -0.077104
     6  C   -0.272216
     7  H    0.416447
     8  H   -0.010478
     9  H    0.146128
    10  H    0.330055
    11  H    0.150031
    12  H    0.115352
    13  H    0.147145
    14  H    0.137992
 Sum of Mulliken charges =  -0.00000

 Dipole moment (field-independent basis, Debye):
    X=             -7.1137    Y=              2.2197    Z=              1.0090  Tot=              7.5199

 Test job not archived.
 1\1\GINC-SE108\SP\RHF\Aug-CC-pVDZ\C5H8O1\OHZDE\09-Apr-2025\0\\#t hf au
 g-cc-pvdz iop(5/13=1,5/36=2,99/5=2) pseudo=read geom=check guess=(read
 ,tcheck) scf=(maxcycle=1)\\title\\0,1\O,0,-0.83214342,2.34399957,-0.27
 834121\C,0,-0.4653796,1.23625872,0.31461162\C,0,-1.28678305,0.04667367
 ,-0.01498716\C,0,-0.48950194,-1.13795564,-0.38118478\C,0,0.9031668,-0.
 81035328,0.22045841\C,0,1.01771714,0.69678739,-0.02662854\H,0,-0.42831
 588,1.21378835,1.46330492\H,0,-2.36176649,0.13105653,-0.18428463\H,0,-
 0.9504208,-2.09225252,-0.07905195\H,0,-0.39374849,-1.18681991,-1.48628

 Normal termination of Gaussian 16 at Wed Apr  9 03:05:44 2025.
