 Gaussian 16, Revision C.01,

 ----------------------------------------------------------------------
 #t hf aug-cc-pvdz symm=none int=(grid=ultrafine) guess=(read,tcheck) s
 table=(opt,rrhf)
 ----------------------------------------------------------------------
 -----
 title
 -----
 Symbolic Z-matrix:
 Charge =  0 Multiplicity = 1

 SCF Done:  E(RHF) =  -270.054191841     A.U. after   13 cycles

 1\1\GINC-SE162\Stability\RHF\Aug-CC-pVDZ\C5H10O1\OHZDE\09-Apr-2025\0\\
 #t hf aug-cc-pvdz symm=none int=(grid=ultrafine) guess=(read,tcheck) s
 table=(opt,rrhf)\\title\\0,1\C,0,-2.40331164,0.32346779,-0.04904544\C,
 0,-1.12335358,-0.52112047,-0.0076703\C,0,0.14999478,0.33549048,-0.0309
 6004\C,0,1.42828517,-0.50362348,0.01260969\C,0,2.71526913,0.292385,-0.
 02067881\O,0,2.78567836,1.50635876,-0.08509441\H,0,-3.30171669,-0.3095
 226,-0.0324635\H,0,-2.45268865,1.00422607,0.8134796\H,0,-2.4389492,0.9
 376854,-0.96083327\H,0,-1.12438771,-1.14980347,0.89823226\H,0,-1.11154

 Normal termination of Gaussian 16 at Wed Apr  9 03:09:30 2025.
 Gaussian 16:  ES64L-G16RevC.01  3-Jul-2019

 ----------------------------------------------------------------------
 #t hf aug-cc-pvdz iop(5/13=1,5/36=2,99/5=2) pseudo=read geom=check gue
 ss=(read,tcheck) scf=(maxcycle=1)
 ----------------------------------------------------------------------
 -----
 title
 -----
 Structure from the checkpoint file:  "Grambow2020_b97d3_006644_forward_mol2.chk"
 Charge =  0 Multiplicity = 1

                         Standard orientation:
 ---------------------------------------------------------------------
 Center     Atomic      Atomic             Coordinates (Angstroms)
 Number     Number       Type             X           Y           Z
 ---------------------------------------------------------------------
      1          6           0        2.847054   -0.505916    0.000933
      2          6           0        1.694620    0.506597   -0.005969
      3          6           0        0.316100   -0.168144    0.006220
      4          6           0       -0.835426    0.838833    0.001787
      5          6           0       -2.219186    0.225421    0.000939
      6          8           0       -2.454969   -0.969242   -0.004079
      7          1           0        3.823574   -0.001540   -0.008924
      8          1           0        2.804241   -1.143572    0.896132
      9          1           0        2.797000   -1.163549   -0.879354
     10          1           0        1.782970    1.173241    0.867920
     11          1           0        1.776550    1.153075   -0.895469
     12          1           0        0.217215   -0.832470   -0.865302
     13          1           0        0.224419   -0.815667    0.891110
     14          1           0       -0.775692    1.511053   -0.874355
     15          1           0       -0.777445    1.517260    0.873132
     16          1           0       -3.052059    0.975366    0.004276
 ---------------------------------------------------------------------

 SCF Done:  E(RHF) =  -270.342044729     A.U. after    2 cycles

 The electronic state is 1-A.
 Alpha  occ. eigenvalues --  -20.54734 -11.34582 -11.25439 -11.23651 -11.23553
 Alpha  occ. eigenvalues --  -11.22870  -1.46885  -1.09129  -1.01655  -0.91074
 Alpha  occ. eigenvalues --   -0.81555  -0.77554  -0.67621  -0.66014  -0.63182
 Alpha  occ. eigenvalues --   -0.60020  -0.59187  -0.54164  -0.52877  -0.49580
 Alpha  occ. eigenvalues --   -0.49381  -0.48528  -0.47656  -0.41537
 Alpha virt. eigenvalues --    0.03149   0.03586   0.03851   0.04493   0.05558
 Alpha virt. eigenvalues --    0.06204   0.07139   0.07372   0.08747   0.10020
 Alpha virt. eigenvalues --    0.10921   0.11668   0.11794   0.13795   0.15376

 Mulliken charges:
               1
     1  C   -0.438654
     2  C   -0.242717
     3  C   -0.230329
     4  C   -0.508452
     5  C    1.045566
     6  O   -1.155193
     7  H    0.130880
     8  H    0.172826
     9  H    0.173626
    10  H    0.122169
    11  H    0.121225
    12  H    0.129849
    13  H    0.128464
    14  H    0.213245
    15  H    0.209723
    16  H    0.127772
 Sum of Mulliken charges =   0.00000

 Dipole moment (field-independent basis, Debye):
    X=              1.2443    Y=              2.7234    Z=              0.0091  Tot=              2.9942

 Test job not archived.
 1\1\GINC-SE162\SP\RHF\Aug-CC-pVDZ\C5H10O1\OHZDE\09-Apr-2025\0\\#t hf a
 ug-cc-pvdz iop(5/13=1,5/36=2,99/5=2) pseudo=read geom=check guess=(rea
 d,tcheck) scf=(maxcycle=1)\\title\\0,1\C,0,-2.40331164,0.32346779,-0.0
 4904544\C,0,-1.12335358,-0.52112047,-0.0076703\C,0,0.14999478,0.335490
 48,-0.03096004\C,0,1.42828517,-0.50362348,0.01260969\C,0,2.71526913,0.
 292385,-0.02067881\O,0,2.78567836,1.50635876,-0.08509441\H,0,-3.301716
 69,-0.3095226,-0.0324635\H,0,-2.45268865,1.00422607,0.8134796\H,0,-2.4
 389492,0.9376854,-0.96083327\H,0,-1.12438771,-1.14980347,0.89823226\H,

 Normal termination of Gaussian 16 at Wed Apr  9 03:09:35 2025.
