 Gaussian 16, Revision C.01,

 ----------------------------------------------------------------------
 #t hf aug-cc-pvdz symm=none int=(grid=ultrafine) guess=(read,tcheck) s
 table=(opt,rrhf)
 ----------------------------------------------------------------------
 -----
 title
 -----
 Symbolic Z-matrix:
 Charge =  0 Multiplicity = 1

 SCF Done:  E(RHF) =  -302.722263706     A.U. after   17 cycles
 Normal termination of Gaussian 16 at Wed Apr  9 18:04:50 2025.
 Gaussian 16:  ES64L-G16RevC.01  3-Jul-2019

 ----------------------------------------------------------------------
 #t hf aug-cc-pvdz iop(5/13=1,5/36=2,99/5=2) pseudo=read geom=check gue
 ss=(read,tcheck) scf=(maxcycle=1)
 ----------------------------------------------------------------------
 -----
 title
 -----
 Structure from the checkpoint file:  "Grambow2020_wb97xd3_006963_reverse_mol1.chk"
 Charge =  0 Multiplicity = 1

                         Standard orientation:
 ---------------------------------------------------------------------
 Center     Atomic      Atomic             Coordinates (Angstroms)
 Number     Number       Type             X           Y           Z
 ---------------------------------------------------------------------
      1          6           0        0.240099    1.432847    0.465578
      2          6           0        0.876495    0.167477    0.316949
      3          6           0        1.811343   -0.038899   -0.855010
      4          7           0        0.307947   -0.990405    0.910680
      5          6           0       -0.687153   -1.328456   -0.085727
      6          6           0       -1.499509   -0.270453   -0.398610
      7          7           0       -1.956353    0.813176   -0.442430
      8          1           0        0.596777    2.283317   -0.103172
      9          1           0        1.425249    0.888842    1.149181
     10          1           0       -0.433594    1.603173    1.293031
     11          1           0        2.226463   -1.043532   -0.811636
     12          1           0        1.281284    0.089616   -1.797764
     13          1           0        2.630526    0.682106   -0.826900
     14          1           0       -0.066263   -0.817199    1.836445
     15          1           0       -0.569249   -2.220807   -0.676021
 ---------------------------------------------------------------------

 SCF Done:  E(RHF) =  -303.035541996     A.U. after    2 cycles

 The electronic state is 1-A.
 Alpha  occ. eigenvalues --  -15.52524 -15.46143 -11.36615 -11.35290 -11.26410
 Alpha  occ. eigenvalues --  -11.24695 -11.21509  -1.27651  -1.18190  -1.12106
 Alpha  occ. eigenvalues --   -1.00143  -0.93455  -0.83133  -0.75212  -0.72222
 Alpha  occ. eigenvalues --   -0.68214  -0.67370  -0.61133  -0.58949  -0.57971
 Alpha  occ. eigenvalues --   -0.56937  -0.53917  -0.49305  -0.45607  -0.44718
 Alpha  occ. eigenvalues --   -0.27999
 Alpha virt. eigenvalues --    0.01787   0.03152   0.03414   0.04287   0.04873
 Alpha virt. eigenvalues --    0.05736   0.06186   0.06753   0.07701   0.10450
 Alpha virt. eigenvalues --    0.11491   0.12525   0.12899   0.13386   0.14047

 Mulliken charges:
               1
     1  C    0.091481
     2  C   -1.237711
     3  C   -0.157084
     4  N    0.573438
     5  C    0.284923
     6  C   -1.727907
     7  N    0.897127
     8  H   -0.029504
     9  H    0.402563
    10  H    0.020199
    11  H    0.176724
    12  H    0.339212
    13  H    0.156585
    14  H    0.384611
    15  H   -0.174659
 Sum of Mulliken charges =  -0.00000

 Dipole moment (field-independent basis, Debye):
    X=              6.1107    Y=              2.2202    Z=              1.8464  Tot=              6.7587

 Test job not archived.
 1\1\GINC-SE030\SP\RHF\Aug-CC-pVDZ\C5H8N2\OHZDE\09-Apr-2025\0\\#t hf au
 g-cc-pvdz iop(5/13=1,5/36=2,99/5=2) pseudo=read geom=check guess=(read
 ,tcheck) scf=(maxcycle=1)\\title\\0,1\C,0,-0.20896628,1.41671781,0.082
 31095\C,0,-0.47208634,0.06667784,-0.28703046\C,0,-1.24567993,-0.808816
 15,0.67478212\N,0,0.35019005,-0.58338987,-1.24501174\C,0,1.45699183,-0
 .98699526,-0.40274085\C,0,1.97244725,0.05387606,0.32395013\N,0,2.12321
 187,1.12200373,0.794324\H,0,-0.74646455,1.86098162,0.91160029\H,0,-1.2
 4295081,0.86953095,-0.8117228\H,0,0.34373649,2.06037709,-0.58684883\H,

 Normal termination of Gaussian 16 at Wed Apr  9 18:04:56 2025.
