 Gaussian 16, Revision C.01,

 ----------------------------------------------------------------------
 #t hf aug-cc-pvdz symm=none int=(grid=ultrafine) guess=(read,tcheck) s
 table=(opt,rrhf)
 ----------------------------------------------------------------------
 -----
 title
 -----
 Symbolic Z-matrix:
 Charge =  0 Multiplicity = 1

 SCF Done:  E(RHF) =  -342.561101496     A.U. after   15 cycles
 Normal termination of Gaussian 16 at Wed Apr  9 03:59:37 2025.
 Gaussian 16:  ES64L-G16RevC.01  3-Jul-2019

 ----------------------------------------------------------------------
 #t hf aug-cc-pvdz iop(5/13=1,5/36=2,99/5=2) pseudo=read geom=check gue
 ss=(read,tcheck) scf=(maxcycle=1)
 ----------------------------------------------------------------------
 -----
 title
 -----
 Structure from the checkpoint file:  "Grambow2020_wb97xd3_008770_reverse_mol2.chk"
 Charge =  0 Multiplicity = 1

                         Standard orientation:
 ---------------------------------------------------------------------
 Center     Atomic      Atomic             Coordinates (Angstroms)
 Number     Number       Type             X           Y           Z
 ---------------------------------------------------------------------
      1          8           0       -2.380211    0.313327   -0.389328
      2          6           0       -1.496751   -0.479049   -0.228677
      3          6           0       -0.282257   -0.213368    0.648844
      4          8           0        0.730487   -1.172326    0.317945
      5          6           0        1.674316   -0.495984   -0.403078
      6          6           0        1.521650    0.818348   -0.424694
      7          6           0        0.326391    1.178846    0.419553
      8          1           0       -1.512896   -1.482665   -0.699280
      9          1           0       -0.587018   -0.387744    1.683959
     10          1           0        2.435200   -1.120165   -0.848147
     11          1           0        2.174073    1.519677   -0.919496
     12          1           0       -0.394418    1.832452   -0.073951
     13          1           0        0.622749    1.657680    1.356299
 ---------------------------------------------------------------------

 SCF Done:  E(RHF) =  -342.907430792     A.U. after    2 cycles

 The electronic state is 1-A.
 Alpha  occ. eigenvalues --  -20.58091 -20.55787 -11.34687 -11.31435 -11.30512
 Alpha  occ. eigenvalues --  -11.25393 -11.23854  -1.51596  -1.49175  -1.09386
 Alpha  occ. eigenvalues --   -1.04263  -0.89940  -0.80845  -0.79089  -0.73529
 Alpha  occ. eigenvalues --   -0.70166  -0.67090  -0.61921  -0.58613  -0.57083
 Alpha  occ. eigenvalues --   -0.55411  -0.54858  -0.53029  -0.50392  -0.42622
 Alpha  occ. eigenvalues --   -0.34776
 Alpha virt. eigenvalues --    0.03352   0.03804   0.03999   0.04991   0.06024
 Alpha virt. eigenvalues --    0.06444   0.09334   0.09877   0.10817   0.11876
 Alpha virt. eigenvalues --    0.12761   0.13530   0.13969   0.14793   0.15040

 Mulliken charges:
               1
     1  O   -1.166861
     2  C    0.993638
     3  C    0.660931
     4  O   -1.438608
     5  C    0.622935
     6  C    0.484958
     7  C   -0.498827
     8  H    0.171061
     9  H    0.161680
    10  H   -0.121041
    11  H   -0.111262
    12  H    0.082682
    13  H    0.158713
 Sum of Mulliken charges =  -0.00000

 Dipole moment (field-independent basis, Debye):
    X=              2.0865    Y=             -0.2280    Z=              0.4760  Tot=              2.1522

 Test job not archived.
 1\1\GINC-SE341\SP\RHF\Aug-CC-pVDZ\C5H6O2\OHZDE\09-Apr-2025\0\\#t hf au
 g-cc-pvdz iop(5/13=1,5/36=2,99/5=2) pseudo=read geom=check guess=(read
 ,tcheck) scf=(maxcycle=1)\\title\\0,1\O,0,1.79279472,1.85468086,-0.559
 07115\C,0,1.67764292,0.76648022,-0.07252201\C,0,0.65123557,-0.25554639
 ,-0.5389717\O,0,0.52302554,-1.25993302,0.47567802\C,0,-0.67089652,-1.0
 2294933,1.09738024\C,0,-1.43830888,-0.12300164,0.50373512\C,0,-0.74452
 012,0.35271165,-0.74674967\H,0,2.33353297,0.41658031,0.7498836\H,0,1.0
 5415596,-0.73184209,-1.43649496\H,0,-0.8431129,-1.61462424,1.98445153\

 Normal termination of Gaussian 16 at Wed Apr  9 03:59:41 2025.
