 Gaussian 16, Revision C.01,

 ----------------------------------------------------------------------
 #t hf aug-cc-pvdz symm=none int=(grid=ultrafine) guess=(read,tcheck) s
 table=(opt,rrhf)
 ----------------------------------------------------------------------
 -----
 title
 -----
 Symbolic Z-matrix:
 Charge =  0 Multiplicity = 1

 SCF Done:  E(RHF) =  -360.826441505     A.U. after   15 cycles
 Normal termination of Gaussian 16 at Wed Apr  9 17:29:50 2025.
 Gaussian 16:  ES64L-G16RevC.01  3-Jul-2019

 ----------------------------------------------------------------------
 #t hf aug-cc-pvdz iop(5/13=1,5/36=2,99/5=2) pseudo=read geom=check gue
 ss=(read,tcheck) scf=(maxcycle=1)
 ----------------------------------------------------------------------
 -----
 title
 -----
 Structure from the checkpoint file:  "Grambow2020_wb97xd3_006614_reverse_mol2.chk"
 Charge =  0 Multiplicity = 1

                         Standard orientation:
 ---------------------------------------------------------------------
 Center     Atomic      Atomic             Coordinates (Angstroms)
 Number     Number       Type             X           Y           Z
 ---------------------------------------------------------------------
      1          6           0       -2.533432   -0.240617    0.002258
      2          6           0       -1.118672   -0.134165   -0.507805
      3          8           0       -0.713930    1.416474    0.057439
      4          6           0       -0.227030   -0.976800    0.360325
      5          7           0        1.156427   -1.133683   -0.110896
      6          6           0        2.030110   -0.139035   -0.152733
      7          8           0        1.802265    1.019625    0.200203
      8          1           0       -2.920048   -1.213873   -0.314230
      9          1           0       -3.182582    0.507885   -0.455983
     10          1           0       -2.650988   -0.166811    1.097178
     11          1           0       -0.865313    1.939025   -0.735304
     12          1           0        0.292162    1.374008    0.178352
     13          1           0       -0.175460   -0.644472    1.411150
     14          1           0       -0.660821   -1.977843    0.371178
     15          1           0        1.431067   -2.007120   -0.523903
     16          1           0        3.024463   -0.420113   -0.525574
 ---------------------------------------------------------------------

 SCF Done:  E(RHF) =  -361.197541581     A.U. after    2 cycles

 The electronic state is 1-A.
 Alpha  occ. eigenvalues --  -20.59637 -20.53835 -15.54610 -11.37914 -11.27206
 Alpha  occ. eigenvalues --  -11.22765 -11.20897  -1.50091  -1.47592  -1.26519
 Alpha  occ. eigenvalues --   -1.04311  -0.95568  -0.85644  -0.80121  -0.77099
 Alpha  occ. eigenvalues --   -0.73952  -0.67988  -0.66463  -0.62667  -0.59777
 Alpha  occ. eigenvalues --   -0.58249  -0.55665  -0.53603  -0.51262  -0.50908
 Alpha  occ. eigenvalues --   -0.45854  -0.43224  -0.29360
 Alpha virt. eigenvalues --    0.02765   0.04433   0.04569   0.05135   0.05553
 Alpha virt. eigenvalues --    0.06560   0.07495   0.08028   0.08861   0.09978
 Alpha virt. eigenvalues --    0.11134   0.12611   0.13496   0.14596   0.15015

 Mulliken charges:
               1
     1  C   -0.274289
     2  C   -0.215630
     3  O   -1.022274
     4  C   -0.772138
     5  N    0.730230
     6  C    0.642146
     7  O   -1.293560
     8  H    0.202078
     9  H    0.092061
    10  H    0.178537
    11  H    0.386659
    12  H    0.784727
    13  H    0.159792
    14  H    0.093156
    15  H    0.232308
    16  H    0.076198
 Sum of Mulliken charges =  -0.00000

 Dipole moment (field-independent basis, Debye):
    X=              1.6587    Y=             -1.7200    Z=             -0.0185  Tot=              2.3895

 Test job not archived.
 1\1\GINC-SE219\SP\RHF\Aug-CC-pVDZ\C4H9N1O2\OHZDE\09-Apr-2025\0\\#t hf
 aug-cc-pvdz iop(5/13=1,5/36=2,99/5=2) pseudo=read geom=check guess=(re
 ad,tcheck) scf=(maxcycle=1)\\title\\0,1\C,0,-1.99382766,-0.90374086,-0
 .22535167\C,0,-0.53456134,-0.61449042,-0.47013558\O,0,-0.65281924,0.91
 237532,-1.20667787\C,0,0.10823612,-0.23367237,0.8338958\N,0,1.57182871
 ,-0.10027965,0.80711002\C,0,2.20534458,0.85457416,0.1427997\O,0,1.6592
 722,1.74121009,-0.51648016\H,0,-2.05462448,-1.88903485,0.24620329\H,0,
 -2.55031735,-0.9799328,-1.16137972\H,0,-2.51926408,-0.18217182,0.42377

 Normal termination of Gaussian 16 at Wed Apr  9 17:29:55 2025.
