 Gaussian 16, Revision C.01,

 ----------------------------------------------------------------------
 #t hf aug-cc-pvdz symm=none int=(grid=ultrafine) guess=(read,tcheck) s
 table=(opt,rrhf)
 ----------------------------------------------------------------------
 -----
 title
 -----
 Symbolic Z-matrix:
 Charge =  0 Multiplicity = 1

 SCF Done:  E(RHF) =  -374.445319231     A.U. after   15 cycles
 Normal termination of Gaussian 16 at Wed Apr  9 19:08:38 2025.
 Gaussian 16:  ES64L-G16RevC.01  3-Jul-2019

 ----------------------------------------------------------------------
 #t hf aug-cc-pvdz iop(5/13=1,5/36=2,99/5=2) pseudo=read geom=check gue
 ss=(read,tcheck) scf=(maxcycle=1)
 ----------------------------------------------------------------------
 -----
 title
 -----
 Structure from the checkpoint file:  "Grambow2020_wb97xd3_008642_reverse_mol1.chk"
 Charge =  0 Multiplicity = 1

                         Standard orientation:
 ---------------------------------------------------------------------
 Center     Atomic      Atomic             Coordinates (Angstroms)
 Number     Number       Type             X           Y           Z
 ---------------------------------------------------------------------
      1          6           0        2.305568   -0.636331    0.015974
      2          7           0        0.097497   -0.779984   -0.021678
      3          7           0       -1.208205   -1.206211   -0.005264
      4          6           0       -1.902022   -0.134729    0.009733
      5          8           0       -1.146593    1.007761    0.007299
      6          6           0        0.114346    0.527126   -0.011222
      7          8           0        1.170378    1.182318   -0.010914
      8          1           0        2.479277   -0.439210    1.062356
      9          1           0        2.134875   -1.660775   -0.264584
     10          1           0        2.837427   -0.020135   -0.691044
     11          1           0       -2.974254   -0.033545    0.023880
 ---------------------------------------------------------------------

 SCF Done:  E(RHF) =  -374.815331793     A.U. after    2 cycles

 The electronic state is 1-A.
 Alpha  occ. eigenvalues --  -20.62206 -20.52474 -15.53479 -15.50273 -11.39584
 Alpha  occ. eigenvalues --  -11.38125 -11.33111  -1.58875  -1.45704  -1.31421
 Alpha  occ. eigenvalues --   -1.11281  -1.00729  -0.88883  -0.84832  -0.74575
 Alpha  occ. eigenvalues --   -0.70574  -0.67671  -0.67079  -0.65154  -0.62460
 Alpha  occ. eigenvalues --   -0.53997  -0.52652  -0.51538  -0.49256  -0.44741
 Alpha  occ. eigenvalues --   -0.36213
 Alpha virt. eigenvalues --    0.00556   0.03997   0.04833   0.05033   0.05598
 Alpha virt. eigenvalues --    0.08594   0.09346   0.09608   0.11587   0.13221
 Alpha virt. eigenvalues --    0.13396   0.14232   0.14620   0.15541   0.16146

 Mulliken charges:
               1
     1  C   -0.098992
     2  N    0.034236
     3  N    0.126423
     4  C    0.486433
     5  O   -1.171785
     6  C    1.057848
     7  O   -1.203102
     8  H    0.269216
     9  H    0.229267
    10  H    0.271346
    11  H   -0.000889
 Sum of Mulliken charges =  -0.00000

 Dipole moment (field-independent basis, Debye):
    X=              2.6304    Y=             -0.5345    Z=              0.1479  Tot=              2.6883

 Test job not archived.
 1\1\GINC-SE224\SP\RHF\Aug-CC-pVDZ\C3H4N2O2\OHZDE\09-Apr-2025\0\\#t hf
 aug-cc-pvdz iop(5/13=1,5/36=2,99/5=2) pseudo=read geom=check guess=(re
 ad,tcheck) scf=(maxcycle=1)\\title\\0,1\C,0,-1.99246089,0.04905212,0.1
 4884667\N,0,0.10338063,-0.62161403,-0.08628669\N,0,1.25319113,-1.33733
 096,-0.31537495\C,0,2.19364878,-0.47692467,-0.245221\O,0,1.75563112,0.
 79401884,0.01708309\C,0,0.41863134,0.63259301,0.10479813\O,0,-0.433375
 98,1.51035231,0.32411747\H,0,-2.18502822,0.46288223,-0.82870546\H,0,-2
 .06808683,-1.01943096,0.24863998\H,0,-2.29803553,0.64003847,0.99726083

 Normal termination of Gaussian 16 at Wed Apr  9 19:08:42 2025.
