 Gaussian 16, Revision C.01,

 ----------------------------------------------------------------------
 #t hf aug-cc-pvdz symm=none int=(grid=ultrafine) guess=(read,tcheck) s
 table=(opt,rrhf)
 ----------------------------------------------------------------------
 -----
 title
 -----
 Symbolic Z-matrix:
 Charge =  0 Multiplicity = 1

 SCF Done:  E(RHF) =  -308.942809220     A.U. after   14 cycles

 1\1\GINC-SE335\Stability\RHF\Aug-CC-pVDZ\C6H12O1\OHZDE\09-Apr-2025\0\\
 #t hf aug-cc-pvdz symm=none int=(grid=ultrafine) guess=(read,tcheck) s
 table=(opt,rrhf)\\title\\0,1\C,0,1.56233399,1.16022113,0.32309794\C,0,
 0.72266639,-0.10729793,0.13915318\C,0,1.53638745,-1.19726263,-0.548148
 34\C,0,-0.45860224,0.33752637,-0.70542966\C,0,-1.880261,-0.79015297,-0
 .3739625\C,0,-1.69075678,0.63960982,0.06602449\O,0,-1.67258076,0.74456
 453,1.47293753\H,0,0.99532262,1.95707836,0.81014244\H,0,2.43569578,0.9
 4759109,0.94268982\H,0,1.90315885,1.53833382,-0.64284027\H,0,0.4282418

 Normal termination of Gaussian 16 at Wed Apr  9 03:52:56 2025.
 Gaussian 16:  ES64L-G16RevC.01  3-Jul-2019

 ----------------------------------------------------------------------
 #t hf aug-cc-pvdz iop(5/13=1,5/36=2,99/5=2) pseudo=read geom=check gue
 ss=(read,tcheck) scf=(maxcycle=1)
 ----------------------------------------------------------------------
 -----
 title
 -----
 Structure from the checkpoint file:  "Grambow2020_wb97xd3_008289_forward_mol1.chk"
 Charge =  0 Multiplicity = 1

                         Standard orientation:
 ---------------------------------------------------------------------
 Center     Atomic      Atomic             Coordinates (Angstroms)
 Number     Number       Type             X           Y           Z
 ---------------------------------------------------------------------
      1          6           0       -1.574304    1.354179    0.288630
      2          6           0       -0.947340    0.052754   -0.219987
      3          6           0       -1.997152   -1.047394   -0.320569
      4          6           0        0.125897   -0.278065    0.802415
      5          6           0        1.425003   -1.301694   -0.014380
      6          6           0        1.496959    0.141469    0.416695
      7          8           0        1.724765    0.994213   -0.684070
      8          1           0       -0.836616    2.155665    0.373075
      9          1           0       -2.353575    1.690991   -0.397782
     10          1           0       -2.018020    1.206455    1.275271
     11          1           0       -0.540255    0.249320   -1.219765
     12          1           0       -2.816829   -0.747978   -0.977868
     13          1           0       -2.407796   -1.277588    0.664975
     14          1           0       -1.570442   -1.967210   -0.730334
     15          1           0        0.392191   -1.620227    0.525961
     16          1           0        2.075310   -1.993158    0.510961
     17          1           0        1.369501   -1.421364   -1.091116
     18          1           0        2.190718    0.349967    1.229837
     19          1           0        1.543319    1.893929   -0.407478
 ---------------------------------------------------------------------

 SCF Done:  E(RHF) =  -309.274347793     A.U. after    2 cycles

 The electronic state is 1-A.
 Alpha  occ. eigenvalues --  -20.55668 -11.29692 -11.27409 -11.24103 -11.23151
 Alpha  occ. eigenvalues --  -11.22377 -11.21822  -1.46265  -1.14552  -1.05740
 Alpha  occ. eigenvalues --   -0.93181  -0.87088  -0.84121  -0.76189  -0.70769
 Alpha  occ. eigenvalues --   -0.66042  -0.62325  -0.60367  -0.58774  -0.57701
 Alpha  occ. eigenvalues --   -0.54474  -0.53991  -0.51558  -0.49434  -0.48308
 Alpha  occ. eigenvalues --   -0.47523  -0.43355  -0.32603
 Alpha virt. eigenvalues --    0.03293   0.03478   0.03872   0.04481   0.05723
 Alpha virt. eigenvalues --    0.05800   0.06483   0.07028   0.07526   0.08710
 Alpha virt. eigenvalues --    0.09675   0.10252   0.12701   0.12902   0.12972

 Mulliken charges:
               1
     1  C   -0.126788
     2  C   -1.108523
     3  C   -0.142392
     4  C   -0.464848
     5  C   -0.479566
     6  C    1.542054
     7  O   -1.431591
     8  H    0.109729
     9  H    0.150450
    10  H    0.293015
    11  H    0.219796
    12  H    0.153717
    13  H    0.258785
    14  H    0.153614
    15  H    0.434091
    16  H    0.019299
    17  H    0.089851
    18  H   -0.010637
    19  H    0.339946
 Sum of Mulliken charges =  -0.00000

 Dipole moment (field-independent basis, Debye):
    X=              0.5625    Y=             -0.0028    Z=             -0.6279  Tot=              0.8431

 Test job not archived.
 1\1\GINC-SE335\SP\RHF\Aug-CC-pVDZ\C6H12O1\OHZDE\09-Apr-2025\0\\#t hf a
 ug-cc-pvdz iop(5/13=1,5/36=2,99/5=2) pseudo=read geom=check guess=(rea
 d,tcheck) scf=(maxcycle=1)\\title\\0,1\C,0,1.56233399,1.16022113,0.323
 09794\C,0,0.72266639,-0.10729793,0.13915318\C,0,1.53638745,-1.19726263
 ,-0.54814834\C,0,-0.45860224,0.33752637,-0.70542966\C,0,-1.880261,-0.7
 9015297,-0.3739625\C,0,-1.69075678,0.63960982,0.06602449\O,0,-1.672580
 76,0.74456453,1.47293753\H,0,0.99532262,1.95707836,0.81014244\H,0,2.43
 569578,0.94759109,0.94268982\H,0,1.90315885,1.53833382,-0.64284027\H,0

 Normal termination of Gaussian 16 at Wed Apr  9 03:53:03 2025.
