 Gaussian 16, Revision C.01,

 ----------------------------------------------------------------------
 #t hf aug-cc-pvdz symm=none int=(grid=ultrafine) guess=(read,tcheck) s
 table=(opt,rrhf)
 ----------------------------------------------------------------------
 -----
 title
 -----
 Symbolic Z-matrix:
 Charge =  0 Multiplicity = 1

 SCF Done:  E(RHF) =  -306.592030861     A.U. after   17 cycles
 Normal termination of Gaussian 16 at Wed Apr  9 18:54:54 2025.
 Gaussian 16:  ES64L-G16RevC.01  3-Jul-2019

 ----------------------------------------------------------------------
 #t hf aug-cc-pvdz iop(5/13=1,5/36=2,99/5=2) pseudo=read geom=check gue
 ss=(read,tcheck) scf=(maxcycle=1)
 ----------------------------------------------------------------------
 -----
 title
 -----
 Structure from the checkpoint file:  "Grambow2020_wb97xd3_008207_reverse_mol1.chk"
 Charge =  0 Multiplicity = 1

                         Standard orientation:
 ---------------------------------------------------------------------
 Center     Atomic      Atomic             Coordinates (Angstroms)
 Number     Number       Type             X           Y           Z
 ---------------------------------------------------------------------
      1          6           0       -1.750242    0.100814    0.206116
      2          8           0       -1.345616   -0.274662   -1.068377
      3          6           0        0.261270   -1.054389    0.384106
      4          6           0        1.546649   -0.837588   -0.067928
      5          6           0        1.686366    0.534624   -0.236206
      6          6           0        0.450628    1.197745    0.008602
      7          6           0       -0.385838    0.211773    0.857160
      8          1           0       -2.323376    1.042130    0.240807
      9          1           0       -2.356100   -0.674642    0.700993
     10          1           0       -0.219659   -2.019037    0.475664
     11          1           0        2.254994   -1.591718   -0.376591
     12          1           0        2.582413    1.021065   -0.605576
     13          1           0        0.433063    2.262788    0.214618
     14          1           0       -0.196752    0.852504   -0.948567
     15          1           0       -0.262653    0.386336    1.934572
 ---------------------------------------------------------------------

 SCF Done:  E(RHF) =  -306.912617523     A.U. after    2 cycles

 The electronic state is 1-A.
 Alpha  occ. eigenvalues --  -20.43323 -11.32638 -11.32458 -11.25724 -11.25418
 Alpha  occ. eigenvalues --  -11.24403 -11.23935  -1.32669  -1.19605  -1.01427
 Alpha  occ. eigenvalues --   -1.00236  -0.86728  -0.78595  -0.77769  -0.72760
 Alpha  occ. eigenvalues --   -0.68001  -0.61489  -0.59041  -0.58202  -0.54156
 Alpha  occ. eigenvalues --   -0.51616  -0.49922  -0.46644  -0.42659  -0.33647
 Alpha  occ. eigenvalues --   -0.32420
 Alpha virt. eigenvalues --    0.02054   0.02596   0.03229   0.03533   0.05087
 Alpha virt. eigenvalues --    0.05250   0.05901   0.07727   0.08764   0.11055
 Alpha virt. eigenvalues --    0.11765   0.12209   0.12477   0.13573   0.13816

 Mulliken charges:
               1
     1  C    0.867023
     2  O   -1.291899
     3  C    0.583017
     4  C    0.240700
     5  C    0.395446
     6  C   -0.595798
     7  C   -0.739320
     8  H    0.073283
     9  H    0.042173
    10  H   -0.172021
    11  H   -0.119914
    12  H   -0.083724
    13  H   -0.034168
    14  H    0.771385
    15  H    0.063818
 Sum of Mulliken charges =  -0.00000

 Dipole moment (field-independent basis, Debye):
    X=              4.6245    Y=              0.4771    Z=              2.9958  Tot=              5.5306

 Test job not archived.
 1\1\GINC-SE097\SP\RHF\Aug-CC-pVDZ\C6H8O1\OHZDE\09-Apr-2025\0\\#t hf au
 g-cc-pvdz iop(5/13=1,5/36=2,99/5=2) pseudo=read geom=check guess=(read
 ,tcheck) scf=(maxcycle=1)\\title\\0,1\C,0,-1.6571058,-0.23608231,-0.61
 325553\O,0,-0.75502634,-0.92839008,-1.41075162\C,0,0.10869083,-0.94915
 288,0.72309985\C,0,1.46342333,-0.69031356,0.75829939\C,0,1.64732366,0.
 56214686,0.18529993\C,0,0.41554255,1.06879703,-0.31742132\C,0,-0.68874
 561,0.285285,0.42992409\H,0,-2.20166651,0.56700165,-1.1369664\H,0,-2.4
 0651012,-0.89887883,-0.15239379\H,0,-0.35740418,-1.89736884,0.9551858\

 Normal termination of Gaussian 16 at Wed Apr  9 18:54:59 2025.
