 Gaussian 16, Revision C.01,

 ----------------------------------------------------------------------
 #t hf aug-cc-pvdz symm=none int=(grid=ultrafine) guess=(read,tcheck) s
 table=(opt,rrhf)
 ----------------------------------------------------------------------
 -----
 title
 -----
 Symbolic Z-matrix:
 Charge =  0 Multiplicity = 1

 SCF Done:  E(RHF) =  -320.159444687     A.U. after   18 cycles
 Normal termination of Gaussian 16 at Wed Apr  9 19:19:44 2025.
 Gaussian 16:  ES64L-G16RevC.01  3-Jul-2019

 ----------------------------------------------------------------------
 #t hf aug-cc-pvdz iop(5/13=1,5/36=2,99/5=2) pseudo=read geom=check gue
 ss=(read,tcheck) scf=(maxcycle=1)
 ----------------------------------------------------------------------
 -----
 title
 -----
 Structure from the checkpoint file:  "Grambow2020_wb97xd3_009366_reverse_mol1.chk"
 Charge =  0 Multiplicity = 1

                         Standard orientation:
 ---------------------------------------------------------------------
 Center     Atomic      Atomic             Coordinates (Angstroms)
 Number     Number       Type             X           Y           Z
 ---------------------------------------------------------------------
      1          6           0        2.332621    0.187576   -0.531235
      2          6           0        1.324869   -0.073177    0.069660
      3          6           0       -0.067862    0.738960    0.984581
      4          6           0        0.071320   -0.664777    0.681491
      5          8           0       -0.872915   -1.081799   -0.278518
      6          7           0       -1.523843    0.029423   -0.688063
      7          6           0       -1.061250    1.050561   -0.044620
      8          1           0        3.229758    0.440413   -1.047479
      9          1           0        0.302069   -1.450009    1.392573
     10          1           0       -1.479795    2.023171   -0.259767
 ---------------------------------------------------------------------

 SCF Done:  E(RHF) =  -320.473945779     A.U. after    2 cycles

 The electronic state is 1-A.
 Alpha  occ. eigenvalues --  -20.63336 -15.60964 -11.35281 -11.29336 -11.29195
 Alpha  occ. eigenvalues --  -11.28682 -11.28385  -1.59034  -1.20550  -1.16199
 Alpha  occ. eigenvalues --   -1.04252  -0.86923  -0.86122  -0.77336  -0.75114
 Alpha  occ. eigenvalues --   -0.72338  -0.62503  -0.60069  -0.56552  -0.53834
 Alpha  occ. eigenvalues --   -0.47873  -0.45822  -0.42445  -0.37834
 Alpha virt. eigenvalues --    0.01537   0.02954   0.03812   0.04457   0.07769
 Alpha virt. eigenvalues --    0.08502   0.08868   0.09990   0.10454   0.10712
 Alpha virt. eigenvalues --    0.12671   0.13211   0.14139   0.14995   0.15181

 Mulliken charges:
               1
     1  C   -0.241240
     2  C    0.657746
     3  C   -0.123794
     4  C    0.819529
     5  O   -1.491091
     6  N    1.214918
     7  C   -0.474355
     8  H   -0.445181
     9  H    0.139730
    10  H   -0.056263
 Sum of Mulliken charges =  -0.00000

 Dipole moment (field-independent basis, Debye):
    X=              2.2228    Y=              0.0750    Z=             -0.0596  Tot=              2.2249

 Test job not archived.
 1\1\GINC-SE104\SP\RHF\Aug-CC-pVDZ\C5H3N1O1\OHZDE\09-Apr-2025\0\\#t hf
 aug-cc-pvdz iop(5/13=1,5/36=2,99/5=2) pseudo=read geom=check guess=(re
 ad,tcheck) scf=(maxcycle=1)\\title\\0,1\C,0,2.00281128,0.46542686,0.72
 439432\C,0,0.96448854,0.54760121,0.12459059\C,0,-0.06748926,-0.3630533
 ,-1.11721392\C,0,-0.41848265,0.84830483,-0.41640989\O,0,-1.44473028,0.
 6223226,0.52319142\N,0,-1.67204491,-0.70976632,0.53392291\C,0,-0.88897
 038,-1.27825476,-0.32301929\H,0,2.93421188,0.37935363,1.23466238\H,0,-
 0.47475623,1.84083409,-0.84906598\H,0,-0.94653899,-2.35134983,-0.43522

 Normal termination of Gaussian 16 at Wed Apr  9 19:19:48 2025.
