 Gaussian 16, Revision C.01,

 ----------------------------------------------------------------------
 #t hf aug-cc-pvdz symm=none int=(grid=ultrafine) guess=(read,tcheck) s
 table=(opt,rrhf)
 ----------------------------------------------------------------------
 -----
 title
 -----
 Symbolic Z-matrix:
 Charge =  0 Multiplicity = 1

 SCF Done:  E(RHF) =  -344.877729484     A.U. after   13 cycles

 1\1\GINC-SE232\Stability\RHF\Aug-CC-pVDZ\C5H10O2\OHZDE\09-Apr-2025\0\\
 #t hf aug-cc-pvdz symm=none int=(grid=ultrafine) guess=(read,tcheck) s
 table=(opt,rrhf)\\title\\0,1\O,0,2.66719429,-0.11804998,1.13214487\C,0
 ,2.161738,-0.5734864,-0.1061215\C,0,0.64516476,-0.59906687,-0.02302376
 \C,0,0.03814611,0.76197573,0.12880769\C,0,-3.03096825,-0.21463914,-0.8
 6529017\O,0,-4.08912125,0.34276642,-0.87968882\C,0,-0.75441724,1.13241
 84,1.12212608\H,0,3.62076192,-0.05072401,1.07524804\H,0,2.52862405,-1.
 58272956,-0.3319996\H,0,2.47456654,0.08834823,-0.92543123\H,0,0.345671

 Normal termination of Gaussian 16 at Wed Apr  9 18:24:50 2025.
 Gaussian 16:  ES64L-G16RevC.01  3-Jul-2019

 ----------------------------------------------------------------------
 #t hf aug-cc-pvdz iop(5/13=1,5/36=2,99/5=2) pseudo=read geom=check gue
 ss=(read,tcheck) scf=(maxcycle=1)
 ----------------------------------------------------------------------
 -----
 title
 -----
 Structure from the checkpoint file:  "Grambow2020_wb97xd3_007540_reverse_mol2.chk"
 Charge =  0 Multiplicity = 1

                         Standard orientation:
 ---------------------------------------------------------------------
 Center     Atomic      Atomic             Coordinates (Angstroms)
 Number     Number       Type             X           Y           Z
 ---------------------------------------------------------------------
      1          8           0       -3.093263    0.336417   -0.252596
      2          6           0       -2.377182   -0.800269    0.184880
      3          6           0       -0.920053   -0.627733   -0.208259
      4          6           0       -0.247383    0.508871    0.498571
      5          6           0        2.870023   -0.608233   -0.130180
      6          8           0        3.950052   -0.124218    0.042634
      7          6           0        0.345260    1.529928   -0.099995
      8          1           0       -4.004192    0.261565    0.033178
      9          1           0       -2.770968   -1.713870   -0.278222
     10          1           0       -2.453253   -0.916989    1.274717
     11          1           0       -0.858193   -0.487483   -1.290605
     12          1           0       -0.401456   -1.564203    0.030093
     13          1           0       -0.257947    0.467478    1.586448
     14          1           0        2.378532   -0.612596   -1.121626
     15          1           0        2.300682   -1.082837    0.691600
     16          1           0        0.826924    2.318140    0.465395
     17          1           0        0.361569    1.617825   -1.181386
 ---------------------------------------------------------------------

 SCF Done:  E(RHF) =  -345.236125674     A.U. after    2 cycles

 The electronic state is 1-A.
 Alpha  occ. eigenvalues --  -20.55438 -20.55366 -11.34352 -11.29524 -11.24600
 Alpha  occ. eigenvalues --  -11.24546 -11.23413  -1.48486  -1.45806  -1.09248
 Alpha  occ. eigenvalues --   -0.99763  -0.86579  -0.86108  -0.77172  -0.71784
 Alpha  occ. eigenvalues --   -0.68961  -0.65977  -0.65118  -0.64765  -0.58641
 Alpha  occ. eigenvalues --   -0.57687  -0.55508  -0.53121  -0.50593  -0.49820
 Alpha  occ. eigenvalues --   -0.44782  -0.42352  -0.37755
 Alpha virt. eigenvalues --    0.02818   0.03327   0.03601   0.04400   0.05830
 Alpha virt. eigenvalues --    0.06123   0.06390   0.06902   0.07806   0.09217
 Alpha virt. eigenvalues --    0.11096   0.11898   0.12153   0.13522   0.13904

 Mulliken charges:
               1
     1  O   -1.139611
     2  C    0.601565
     3  C   -0.679511
     4  C    1.008084
     5  C    0.653527
     6  O   -0.898174
     7  C   -0.198007
     8  H    0.305879
     9  H    0.088365
    10  H    0.123156
    11  H    0.116055
    12  H    0.203025
    13  H   -0.211347
    14  H    0.125906
    15  H    0.144163
    16  H   -0.130659
    17  H   -0.112417
 Sum of Mulliken charges =  -0.00000

 Dipole moment (field-independent basis, Debye):
    X=             -3.6104    Y=             -2.2378    Z=              0.4661  Tot=              4.2731

 Test job not archived.
 1\1\GINC-SE232\SP\RHF\Aug-CC-pVDZ\C5H10O2\OHZDE\09-Apr-2025\0\\#t hf a
 ug-cc-pvdz iop(5/13=1,5/36=2,99/5=2) pseudo=read geom=check guess=(rea
 d,tcheck) scf=(maxcycle=1)\\title\\0,1\O,0,2.66719429,-0.11804998,1.13
 214487\C,0,2.161738,-0.5734864,-0.1061215\C,0,0.64516476,-0.59906687,-
 0.02302376\C,0,0.03814611,0.76197573,0.12880769\C,0,-3.03096825,-0.214
 63914,-0.86529017\O,0,-4.08912125,0.34276642,-0.87968882\C,0,-0.754417
 24,1.1324184,1.12212608\H,0,3.62076192,-0.05072401,1.07524804\H,0,2.52
 862405,-1.58272956,-0.3319996\H,0,2.47456654,0.08834823,-0.92543123\H,

 Normal termination of Gaussian 16 at Wed Apr  9 18:24:56 2025.
