 Gaussian 16, Revision C.01,

 ----------------------------------------------------------------------
 #t hf aug-cc-pvdz symm=none int=(grid=ultrafine) guess=(read,tcheck) s
 table=(opt,rrhf)
 ----------------------------------------------------------------------
 -----
 title
 -----
 Symbolic Z-matrix:
 Charge =  0 Multiplicity = 1

 SCF Done:  E(RHF) =  -338.592259349     A.U. after   15 cycles
 Normal termination of Gaussian 16 at Wed Apr  9 19:05:47 2025.
 Gaussian 16:  ES64L-G16RevC.01  3-Jul-2019

 ----------------------------------------------------------------------
 #t hf aug-cc-pvdz iop(5/13=1,5/36=2,99/5=2) pseudo=read geom=check gue
 ss=(read,tcheck) scf=(maxcycle=1)
 ----------------------------------------------------------------------
 -----
 title
 -----
 Structure from the checkpoint file:  "Grambow2020_wb97xd3_008551_reverse_mol2.chk"
 Charge =  0 Multiplicity = 1

                         Standard orientation:
 ---------------------------------------------------------------------
 Center     Atomic      Atomic             Coordinates (Angstroms)
 Number     Number       Type             X           Y           Z
 ---------------------------------------------------------------------
      1          6           0        2.554545   -0.441177    0.000334
      2          6           0        1.096543   -0.120750   -0.000828
      3          7           0        0.742582    1.138984   -0.000630
      4          8           0       -0.647502    1.140418    0.000600
      5          6           0       -0.954256   -0.176240    0.000687
      6          7           0       -2.400245   -0.421766   -0.000206
      7          6           0        0.004520   -1.094823   -0.000170
      8          1           0        3.156461    0.467464   -0.001851
      9          1           0        2.803668   -1.035897    0.880687
     10          1           0        2.804905   -1.040725   -0.876439
     11          1           0       -2.862111   -0.044185   -0.827810
     12          1           0       -2.862690   -0.050934    0.830206
     13          1           0       -2.464685   -1.441647   -0.003871
 ---------------------------------------------------------------------

 SCF Done:  E(RHF) =  -338.938705328     A.U. after    2 cycles

 The electronic state is 1-A.
 Alpha  occ. eigenvalues --  -20.59603 -15.67911 -15.52494 -11.30632 -11.25138
 Alpha  occ. eigenvalues --  -11.21099 -11.16434  -1.54734  -1.35312  -1.15586
 Alpha  occ. eigenvalues --   -1.03432  -0.95885  -0.85467  -0.84817  -0.84666
 Alpha  occ. eigenvalues --   -0.75114  -0.68685  -0.64050  -0.60666  -0.55393
 Alpha  occ. eigenvalues --   -0.52730  -0.52461  -0.47816  -0.39318  -0.34848
 Alpha  occ. eigenvalues --   -0.33195
 Alpha virt. eigenvalues --   -0.00340   0.03597   0.04068   0.05539   0.06984
 Alpha virt. eigenvalues --    0.07358   0.07799   0.09256   0.10829   0.12044
 Alpha virt. eigenvalues --    0.13049   0.13566   0.13967   0.15157   0.15679

 Mulliken charges:
               1
     1  C   -0.087779
     2  C   -1.042879
     3  N    1.233376
     4  O   -1.702184
     5  C    0.333124
     6  N    0.338221
     7  C   -0.819450
     8  H    0.145029
     9  H    0.246011
    10  H    0.245281
    11  H    0.395410
    12  H    0.397048
    13  H    0.318792
 Sum of Mulliken charges =  -0.00000

 Dipole moment (field-independent basis, Debye):
    X=             -7.7612    Y=             -1.0257    Z=              0.0001  Tot=              7.8287

 Test job not archived.
 1\1\GINC-SE229\SP\RHF\Aug-CC-pVDZ\C4H6N2O1\OHZDE\09-Apr-2025\0\\#t hf
 aug-cc-pvdz iop(5/13=1,5/36=2,99/5=2) pseudo=read geom=check guess=(re
 ad,tcheck) scf=(maxcycle=1)\\title\\0,1\C,0,-2.46865965,0.15103562,-0.
 15549008\C,0,-0.99259852,-0.06238848,-0.21980224\N,0,-0.52274911,-0.83
 800016,-1.1631411\O,0,0.85564941,-0.85722389,-0.98429935\C,0,1.0355521
 2,-0.05525507,0.08909142\N,0,2.44626609,0.07765463,0.46775745\C,0,-0.0
 0176205,0.51963145,0.68619393\H,0,-2.97955822,-0.39585575,-0.94784745\
 H,0,-2.84992116,-0.17795554,0.8125912\H,0,-2.69570169,1.21439883,-0.24

 Normal termination of Gaussian 16 at Wed Apr  9 19:05:51 2025.
