 Gaussian 16, Revision C.01,

 ----------------------------------------------------------------------
 #t hf aug-cc-pvdz symm=none int=(grid=ultrafine) guess=(read,tcheck) s
 table=(opt,rrhf)
 ----------------------------------------------------------------------
 -----
 title
 -----
 Symbolic Z-matrix:
 Charge =  0 Multiplicity = 1

 SCF Done:  E(RHF) =  -318.927395976     A.U. after   14 cycles
 Normal termination of Gaussian 16 at Wed Apr  9 17:59:00 2025.
 Gaussian 16:  ES64L-G16RevC.01  3-Jul-2019

 ----------------------------------------------------------------------
 #t hf aug-cc-pvdz iop(5/13=1,5/36=2,99/5=2) pseudo=read geom=check gue
 ss=(read,tcheck) scf=(maxcycle=1)
 ----------------------------------------------------------------------
 -----
 title
 -----
 Structure from the checkpoint file:  "Grambow2020_wb97xd3_006918_reverse_mol2.chk"
 Charge =  0 Multiplicity = 1

                         Standard orientation:
 ---------------------------------------------------------------------
 Center     Atomic      Atomic             Coordinates (Angstroms)
 Number     Number       Type             X           Y           Z
 ---------------------------------------------------------------------
      1          7           0       -2.464811   -0.506130    0.051678
      2          6           0       -1.232696   -0.196372   -0.030838
      3          6           0       -0.013862   -1.015025   -0.041624
      4          6           0        1.055821   -0.209189    0.004671
      5          7           0        2.386961   -0.515897    0.078548
      6          6           0        0.616005    1.230185    0.044050
      7          7           0       -0.810026    1.121030   -0.126744
      8          1           0       -2.573322   -1.512734    0.102576
      9          1           0        0.902823    1.683751    1.001184
     10          1           0       -0.017771   -2.094908   -0.063732
     11          1           0        3.039635    0.184649   -0.224819
     12          1           0        2.656263   -1.456587   -0.149066
     13          1           0        1.086994    1.810800   -0.758307
     14          1           0       -1.431095    1.834416    0.210242
 ---------------------------------------------------------------------

 SCF Done:  E(RHF) =  -319.260098121     A.U. after    2 cycles

 The electronic state is 1-A.
 Alpha  occ. eigenvalues --  -15.53477 -15.50007 -15.44105 -11.30476 -11.30311
 Alpha  occ. eigenvalues --  -11.28692 -11.22228  -1.28507  -1.23691  -1.15410
 Alpha  occ. eigenvalues --   -1.04725  -0.96669  -0.83351  -0.80826  -0.74520
 Alpha  occ. eigenvalues --   -0.72510  -0.67868  -0.66621  -0.62121  -0.60580
 Alpha  occ. eigenvalues --   -0.54958  -0.54775  -0.52207  -0.44301  -0.39559
 Alpha  occ. eigenvalues --   -0.34377
 Alpha virt. eigenvalues --    0.02209   0.03881   0.04147   0.04830   0.05935
 Alpha virt. eigenvalues --    0.06840   0.08298   0.08498   0.11029   0.11378
 Alpha virt. eigenvalues --    0.12916   0.13310   0.13690   0.14021   0.14863

 Mulliken charges:
               1
     1  N    0.810863
     2  C   -2.157969
     3  C    0.842013
     4  C   -1.074390
     5  N    0.756619
     6  C   -0.169233
     7  N    0.671421
     8  H    0.185859
     9  H    0.157313
    10  H   -0.215603
    11  H    0.014046
    12  H    0.053274
    13  H    0.110984
    14  H    0.014802
 Sum of Mulliken charges =  -0.00000

 Dipole moment (field-independent basis, Debye):
    X=              5.7009    Y=              0.1841    Z=             -0.1421  Tot=              5.7057

 Test job not archived.
 1\1\GINC-SE454\SP\RHF\Aug-CC-pVDZ\C4H7N3\OHZDE\09-Apr-2025\0\\#t hf au
 g-cc-pvdz iop(5/13=1,5/36=2,99/5=2) pseudo=read geom=check guess=(read
 ,tcheck) scf=(maxcycle=1)\\title\\0,1\N,0,-2.61231087,-0.47477247,-0.6
 3817472\C,0,-1.39962463,-0.17991006,-0.38655182\C,0,-0.19762248,-1.010
 67821,-0.24205005\C,0,0.81911629,-0.24224055,0.17205424\N,0,2.10238821
 ,-0.58231191,0.50224275\C,0,0.35819153,1.18239175,0.32939949\N,0,-0.98
 818349,1.12823639,-0.1795144\H,0,-2.71288114,-1.47502534,-0.76854736\H
 ,0,0.40934419,1.47855114,1.38475028\H,0,-0.1783886,-2.07418634,-0.4297

 Normal termination of Gaussian 16 at Wed Apr  9 17:59:04 2025.
