 Gaussian 16, Revision C.01,

 ----------------------------------------------------------------------
 #t hf aug-cc-pvdz symm=none int=(grid=ultrafine) guess=(read,tcheck) s
 table=(opt,rrhf)
 ----------------------------------------------------------------------
 -----
 title
 -----
 Symbolic Z-matrix:
 Charge =  0 Multiplicity = 1

 SCF Done:  E(RHF) =  -305.793564613     A.U. after   13 cycles
 Normal termination of Gaussian 16 at Wed Apr  9 15:48:47 2025.
 Gaussian 16:  ES64L-G16RevC.01  3-Jul-2019

 ----------------------------------------------------------------------
 #t hf aug-cc-pvdz iop(5/13=1,5/36=2,99/5=2) pseudo=read geom=check gue
 ss=(read,tcheck) scf=(maxcycle=1)
 ----------------------------------------------------------------------
 -----
 title
 -----
 Structure from the checkpoint file:  "Grambow2020_b97d3_006755_reverse_mol2.chk"
 Charge =  0 Multiplicity = 1

                         Standard orientation:
 ---------------------------------------------------------------------
 Center     Atomic      Atomic             Coordinates (Angstroms)
 Number     Number       Type             X           Y           Z
 ---------------------------------------------------------------------
      1          6           0       -1.613351   -0.732861    0.012283
      2          6           0       -2.492271    0.501730   -0.015055
      3          6           0        0.274742    0.770536    0.013854
      4          8           0       -0.162674   -0.478738    0.003319
      5          6           0        1.778151    0.687233    0.004733
      6          8           0        2.431723   -0.572168   -0.013524
      7          1           0       -1.781680   -1.374536   -0.862431
      8          1           0       -3.541099    0.168484   -0.011842
      9          1           0       -1.780569   -1.333763    0.915740
     10          1           0       -2.315752    1.141157    0.856810
     11          1           0       -2.310131    1.103758   -0.912335
     12          1           0        2.088126    1.297529   -0.868040
     13          1           0        2.095917    1.275756    0.889440
     14          1           0        1.709176   -1.230971   -0.020588
 ---------------------------------------------------------------------

 SCF Done:  E(RHF) =  -306.107572511     A.U. after    2 cycles

 The electronic state is 1-A.
 Alpha  occ. eigenvalues --  -20.61528 -20.54318 -11.31527 -11.30817 -11.28460
 Alpha  occ. eigenvalues --  -11.24331  -1.53073  -1.43693  -1.05908  -0.98459
 Alpha  occ. eigenvalues --   -0.89024  -0.76086  -0.71134  -0.68384  -0.66180
 Alpha  occ. eigenvalues --   -0.62772  -0.58611  -0.56202  -0.55793  -0.53799
 Alpha  occ. eigenvalues --   -0.51623  -0.49598  -0.43968  -0.36995
 Alpha virt. eigenvalues --    0.03141   0.04016   0.04063   0.04564   0.06479
 Alpha virt. eigenvalues --    0.06546   0.07218   0.07651   0.10804   0.10914
 Alpha virt. eigenvalues --    0.11375   0.13105   0.14179   0.14440   0.15102

 Mulliken charges:
               1
     1  C    0.510344
     2  C   -0.528470
     3  C    0.155310
     4  O   -1.217070
     5  C    0.638205
     6  O   -1.231736
     7  H    0.122385
     8  H    0.124877
     9  H    0.125690
    10  H    0.239352
    11  H    0.233018
    12  H    0.209116
    13  H    0.208652
    14  H    0.410327
 Sum of Mulliken charges =  -0.00000

 Dipole moment (field-independent basis, Debye):
    X=             -2.9214    Y=             -0.9345    Z=              0.0020  Tot=              3.0673

 Test job not archived.
 1\1\GINC-SE026\SP\RHF\Aug-CC-pVDZ\C4H8O2\OHZDE\09-Apr-2025\0\\#t hf au
 g-cc-pvdz iop(5/13=1,5/36=2,99/5=2) pseudo=read geom=check guess=(read
 ,tcheck) scf=(maxcycle=1)\\title\\0,1\C,0,-1.27360581,0.60644283,-0.43
 71121\C,0,-2.0184417,-0.68603456,-0.16844466\C,0,0.72854785,-0.5585837
 4,0.24052715\O,0,0.17381923,0.57200661,-0.16711544\C,0,2.1942867,-0.26
 421819,0.42002352\O,0,2.70801187,1.03236519,0.15822236\H,0,-1.64606537
 ,1.43044952,0.1853777\H,0,-3.08026085,-0.51787855,-0.40374707\H,0,-1.3
 4878024,0.91042057,-1.48935977\H,0,-1.63863483,-1.50597097,-0.78782017

 Normal termination of Gaussian 16 at Wed Apr  9 15:48:51 2025.
