 Gaussian 16, Revision C.01,

 ----------------------------------------------------------------------
 #t hf aug-cc-pvdz symm=none int=(grid=ultrafine) guess=(read,tcheck) s
 table=(opt,rrhf)
 ----------------------------------------------------------------------
 -----
 title
 -----
 Symbolic Z-matrix:
 Charge =  0 Multiplicity = 1

 SCF Done:  E(RHF) =  -306.596042519     A.U. after   15 cycles
 Normal termination of Gaussian 16 at Wed Apr  9 19:00:53 2025.
 Gaussian 16:  ES64L-G16RevC.01  3-Jul-2019

 ----------------------------------------------------------------------
 #t hf aug-cc-pvdz iop(5/13=1,5/36=2,99/5=2) pseudo=read geom=check gue
 ss=(read,tcheck) scf=(maxcycle=1)
 ----------------------------------------------------------------------
 -----
 title
 -----
 Structure from the checkpoint file:  "Grambow2020_wb97xd3_008439_reverse_mol2.chk"
 Charge =  0 Multiplicity = 1

                         Standard orientation:
 ---------------------------------------------------------------------
 Center     Atomic      Atomic             Coordinates (Angstroms)
 Number     Number       Type             X           Y           Z
 ---------------------------------------------------------------------
      1          6           0        0.224043    1.503052   -0.214409
      2          6           0       -1.035949    0.680323   -0.351850
      3          6           0       -0.848675   -0.797323   -0.395552
      4          8           0        0.434801   -1.340725   -0.405880
      5          6           0        1.442868   -0.583006    0.238228
      6          6           0        1.452820    0.868856    0.276874
      7          6           0       -1.456467   -0.176760    0.823829
      8          1           0        0.629018    1.746569   -1.221712
      9          1           0        0.057472    2.482717    0.240826
     10          1           0       -1.822704    1.112835   -0.958763
     11          1           0       -1.492343   -1.388144   -1.033484
     12          1           0        2.396771   -0.986690   -0.107598
     13          1           0        1.455931   -0.767742    1.337604
     14          1           0       -0.862753   -0.107938    1.727147
     15          1           0       -2.511636   -0.336655    1.000307
 ---------------------------------------------------------------------

 SCF Done:  E(RHF) =  -306.913361520     A.U. after    2 cycles

 The electronic state is 1-A.
 Alpha  occ. eigenvalues --  -20.55350 -11.29469 -11.29385 -11.26783 -11.25207
 Alpha  occ. eigenvalues --  -11.24545 -11.23972  -1.47777  -1.16193  -1.07779
 Alpha  occ. eigenvalues --   -0.96414  -0.85021  -0.82718  -0.73077  -0.69156
 Alpha  occ. eigenvalues --   -0.68882  -0.63052  -0.61063  -0.57812  -0.57102
 Alpha  occ. eigenvalues --   -0.54178  -0.51742  -0.50038  -0.42756  -0.38717
 Alpha  occ. eigenvalues --   -0.35077
 Alpha virt. eigenvalues --    0.03174   0.03673   0.04067   0.04345   0.06025
 Alpha virt. eigenvalues --    0.06129   0.06406   0.07727   0.08473   0.09133
 Alpha virt. eigenvalues --    0.11395   0.12421   0.13619   0.14009   0.14490

 Mulliken charges:
               1
     1  C   -0.479405
     2  C    0.383343
     3  C    1.467675
     4  O   -1.563722
     5  C    0.421877
     6  C   -0.664244
     7  C    0.108690
     8  H    0.397086
     9  H    0.166389
    10  H   -0.151638
    11  H   -0.208202
    12  H    0.032949
    13  H    0.361203
    14  H   -0.123383
    15  H   -0.148617
 Sum of Mulliken charges =  -0.00000

 Dipole moment (field-independent basis, Debye):
    X=             -1.9761    Y=              0.2572    Z=             -0.3082  Tot=              2.0165

 Test job not archived.
 1\1\GINC-SE224\SP\RHF\Aug-CC-pVDZ\C6H8O1\OHZDE\09-Apr-2025\0\\#t hf au
 g-cc-pvdz iop(5/13=1,5/36=2,99/5=2) pseudo=read geom=check guess=(read
 ,tcheck) scf=(maxcycle=1)\\title\\0,1\C,0,0.6632525,1.26018556,0.26004
 766\C,0,1.10275706,-0.07458793,-0.29544225\C,0,0.2369881,-1.23912625,0
 .04325313\O,0,-0.84713742,-1.07895321,0.90448409\C,0,-1.45447851,0.200
 16785,0.91855218\C,0,-0.72309505,1.4371084,0.7074789\C,0,0.24068472,-0
 .71929514,-1.36072735\H,0,1.11692256,1.42073857,1.26322842\H,0,1.01825
 271,2.1134536,-0.32359429\H,0,2.17270609,-0.23533054,-0.35678958\H,0,0

 Normal termination of Gaussian 16 at Wed Apr  9 19:00:59 2025.
