 Gaussian 16, Revision C.01,

 ----------------------------------------------------------------------
 #t hf aug-cc-pvdz symm=none int=(grid=ultrafine) guess=(read,tcheck) s
 table=(opt,rrhf)
 ----------------------------------------------------------------------
 -----
 title
 -----
 Symbolic Z-matrix:
 Charge =  0 Multiplicity = 1

 SCF Done:  E(RHF) =  -322.590607818     A.U. after   15 cycles
 Normal termination of Gaussian 16 at Wed Apr  9 03:27:19 2025.
 Gaussian 16:  ES64L-G16RevC.01  3-Jul-2019

 ----------------------------------------------------------------------
 #t hf aug-cc-pvdz iop(5/13=1,5/36=2,99/5=2) pseudo=read geom=check gue
 ss=(read,tcheck) scf=(maxcycle=1)
 ----------------------------------------------------------------------
 -----
 title
 -----
 Structure from the checkpoint file:  "Grambow2020_wb97xd3_006637_reverse_mol2.chk"
 Charge =  0 Multiplicity = 1

                         Standard orientation:
 ---------------------------------------------------------------------
 Center     Atomic      Atomic             Coordinates (Angstroms)
 Number     Number       Type             X           Y           Z
 ---------------------------------------------------------------------
      1          8           0       -1.800768   -0.751135   -0.073859
      2          6           0       -1.643879    0.497325    0.301040
      3          6           0       -0.366650    1.064350   -0.153029
      4          6           0        0.909432    0.777053    0.556760
      5          6           0        1.107052   -0.699221    0.861573
      6          6           0        0.982266   -0.913904   -0.658178
      7          7           0        0.791351    0.550209   -0.909855
      8          1           0       -2.642918   -1.058005    0.276985
      9          1           0       -0.481006    2.125259   -0.352516
     10          1           0        1.491091    1.588266    0.978451
     11          1           0        0.363481   -1.169175    1.504712
     12          1           0        2.100054   -0.920972    1.247634
     13          1           0        0.182748   -1.549519   -1.027473
     14          1           0        1.923915   -1.211856   -1.116929
 ---------------------------------------------------------------------

 SCF Done:  E(RHF) =  -322.921586922     A.U. after    2 cycles

 The electronic state is 1-A.
 Alpha  occ. eigenvalues --  -20.62039 -15.50604 -11.31052 -11.28183 -11.26444
 Alpha  occ. eigenvalues --  -11.26009 -11.24205  -1.54219  -1.30401  -1.03611
 Alpha  occ. eigenvalues --   -0.96804  -0.92504  -0.80055  -0.76563  -0.71594
 Alpha  occ. eigenvalues --   -0.69821  -0.66690  -0.62948  -0.59151  -0.56471
 Alpha  occ. eigenvalues --   -0.54490  -0.51463  -0.48090  -0.47228  -0.40167
 Alpha  occ. eigenvalues --   -0.36077
 Alpha virt. eigenvalues --    0.03268   0.03760   0.04566   0.04645   0.05714
 Alpha virt. eigenvalues --    0.06218   0.06724   0.09349   0.09921   0.10281
 Alpha virt. eigenvalues --    0.12073   0.13788   0.13978   0.14346   0.14820

 Mulliken charges:
               1
     1  O   -1.110408
     2  C    0.233323
     3  C   -0.035255
     4  C    0.200726
     5  C    0.083023
     6  C   -0.040036
     7  N    0.385274
     8  H    0.486720
     9  H   -0.096016
    10  H   -0.199079
    11  H    0.013362
    12  H    0.063496
    13  H    0.037822
    14  H   -0.022951
 Sum of Mulliken charges =  -0.00000

 Dipole moment (field-independent basis, Debye):
    X=             -0.1517    Y=             -2.1015    Z=              1.4841  Tot=              2.5772

 Test job not archived.
 1\1\GINC-SE051\SP\RHF\Aug-CC-pVDZ\C5H7N1O1\OHZDE\09-Apr-2025\0\\#t hf
 aug-cc-pvdz iop(5/13=1,5/36=2,99/5=2) pseudo=read geom=check guess=(re
 ad,tcheck) scf=(maxcycle=1)\\title\\0,1\O,0,1.22383885,1.18033203,1.26
 065002\C,0,1.54597876,1.20224897,-0.01197042\C,0,0.40273965,0.90665103
 ,-0.88640465\C,0,-0.06439314,-0.48800305,-1.11323772\C,0,-0.20700434,-
 1.28916254,0.17095689\C,0,-1.18883688,-0.18912593,0.61506056\N,0,-1.01
 636928,0.56599105,-0.66691904\H,0,2.02239926,1.35922018,1.7673811\H,0,
 0.49884601,1.45110807,-1.82060538\H,0,-0.07607356,-0.90086334,-2.11504

 Normal termination of Gaussian 16 at Wed Apr  9 03:27:23 2025.
