 Gaussian 16, Revision C.01,

 ----------------------------------------------------------------------
 #t hf aug-cc-pvdz symm=none int=(grid=ultrafine) guess=(read,tcheck) s
 table=(opt,rrhf)
 ----------------------------------------------------------------------
 -----
 title
 -----
 Symbolic Z-matrix:
 Charge =  0 Multiplicity = 1

 SCF Done:  E(RHF) =  -343.569719709     A.U. after   15 cycles
 Normal termination of Gaussian 16 at Wed Apr  9 03:28:55 2025.
 Gaussian 16:  ES64L-G16RevC.01  3-Jul-2019

 ----------------------------------------------------------------------
 #t hf aug-cc-pvdz iop(5/13=1,5/36=2,99/5=2) pseudo=read geom=check gue
 ss=(read,tcheck) scf=(maxcycle=1)
 ----------------------------------------------------------------------
 -----
 title
 -----
 Structure from the checkpoint file:  "Grambow2020_wb97xd3_006713_forward_mol1.chk"
 Charge =  0 Multiplicity = 1

                         Standard orientation:
 ---------------------------------------------------------------------
 Center     Atomic      Atomic             Coordinates (Angstroms)
 Number     Number       Type             X           Y           Z
 ---------------------------------------------------------------------
      1          8           0        2.496127    0.193010   -0.258681
      2          6           0        1.411387   -0.695495   -0.139194
      3          6           0        0.293621   -0.063756    0.659142
      4          8           0       -0.187390    1.146997    0.042055
      5          6           0       -1.515586    0.618437    0.012743
      6          6           0       -1.798112   -0.363960   -1.023286
      7          6           0       -1.095724   -0.705159    0.627038
      8          1           0        2.172457    0.977543   -0.710218
      9          1           0        1.031274   -0.997099   -1.121915
     10          1           0        1.776867   -1.583266    0.382876
     11          1           0        0.614442    0.143232    1.684155
     12          1           0       -2.277871    1.253272    0.449471
     13          1           0       -1.111597   -1.390552   -0.382202
     14          1           0       -2.829675   -0.701966   -0.842379
     15          1           0       -1.619303   -1.161611    1.454562
 ---------------------------------------------------------------------

 SCF Done:  E(RHF) =  -343.922514273     A.U. after    2 cycles

 The electronic state is 1-A.
 Alpha  occ. eigenvalues --  -20.55500 -20.54819 -11.31815 -11.31400 -11.29436
 Alpha  occ. eigenvalues --  -11.28849 -11.26233  -1.49543  -1.45141  -1.15064
 Alpha  occ. eigenvalues --   -1.02939  -0.90662  -0.82942  -0.79287  -0.74670
 Alpha  occ. eigenvalues --   -0.70223  -0.65694  -0.63818  -0.59323  -0.58493
 Alpha  occ. eigenvalues --   -0.57452  -0.55404  -0.50379  -0.48037  -0.45237
 Alpha  occ. eigenvalues --   -0.42270  -0.35372
 Alpha virt. eigenvalues --    0.02527   0.03463   0.03837   0.04951   0.05928
 Alpha virt. eigenvalues --    0.06283   0.07154   0.08017   0.09584   0.11579
 Alpha virt. eigenvalues --    0.12504   0.13069   0.13510   0.13817   0.14528

 Mulliken charges:
               1
     1  O   -1.171678
     2  C    0.694587
     3  C    0.667112
     4  O   -1.533476
     5  C    1.410397
     6  C   -0.656822
     7  C   -0.601068
     8  H    0.317750
     9  H    0.170634
    10  H    0.115617
    11  H   -0.002792
    12  H   -0.052027
    13  H    0.699665
    14  H    0.060482
    15  H   -0.118379
 Sum of Mulliken charges =   0.00000

 Dipole moment (field-independent basis, Debye):
    X=             -2.5949    Y=             -1.2612    Z=              2.4809  Tot=              3.8052

 Test job not archived.
 1\1\GINC-SE115\SP\RHF\Aug-CC-pVDZ\C5H8O2\OHZDE\09-Apr-2025\0\\#t hf au
 g-cc-pvdz iop(5/13=1,5/36=2,99/5=2) pseudo=read geom=check guess=(read
 ,tcheck) scf=(maxcycle=1)\\title\\0,1\O,0,2.48535267,0.80646835,0.7671
 6157\C,0,1.65077981,0.17907661,-0.17636726\C,0,0.43827825,-0.41759472,
 0.50161485\O,0,-0.33866202,0.58396711,1.18814782\C,0,-1.50061743,0.209
 91663,0.44364515\C,0,-1.56915172,0.68500389,-0.93035543\C,0,-0.7558894
 ,-0.8450372,-0.35510361\H,0,1.96873277,1.50017465,1.18670224\H,0,1.325
 13642,0.88158086,-0.95201886\H,0,2.23495867,-0.61598076,-0.64635425\H,

 Normal termination of Gaussian 16 at Wed Apr  9 03:29:01 2025.
