 Gaussian 16, Revision C.01,

 ----------------------------------------------------------------------
 #t hf aug-cc-pvdz symm=none int=(grid=ultrafine) guess=(read,tcheck) s
 table=(opt,rrhf)
 ----------------------------------------------------------------------
 -----
 title
 -----
 Symbolic Z-matrix:
 Charge =  0 Multiplicity = 1

 SCF Done:  E(RHF) =  -266.639566579     A.U. after   15 cycles
 Normal termination of Gaussian 16 at Wed Apr  9 15:42:35 2025.
 Gaussian 16:  ES64L-G16RevC.01  3-Jul-2019

 ----------------------------------------------------------------------
 #t hf aug-cc-pvdz iop(5/13=1,5/36=2,99/5=2) pseudo=read geom=check gue
 ss=(read,tcheck) scf=(maxcycle=1)
 ----------------------------------------------------------------------
 -----
 title
 -----
 Structure from the checkpoint file:  "Grambow2020_b97d3_006693_forward_mol1.chk"
 Charge =  0 Multiplicity = 1

                         Standard orientation:
 ---------------------------------------------------------------------
 Center     Atomic      Atomic             Coordinates (Angstroms)
 Number     Number       Type             X           Y           Z
 ---------------------------------------------------------------------
      1          6           0       -0.377475    1.127160    0.078508
      2          6           0       -1.243290   -0.126303   -0.064188
      3          8           0       -0.215768   -1.189035   -0.054913
      4          6           0        0.979026   -0.557761    0.016099
      5          8           0        0.897822    0.715082   -0.304250
      6          1           0        0.168699    0.660719    1.685854
      7          1           0       -0.639618    2.083523   -0.364283
      8          1           0       -1.911602   -0.292618    0.792244
      9          1           0       -1.820005   -0.236532   -1.002224
     10          1           0        0.722526    0.036871    1.816356
     11          1           0        1.874001   -1.118912   -0.237161
 ---------------------------------------------------------------------

 SCF Done:  E(RHF) =  -266.910036795     A.U. after    2 cycles

 The electronic state is 1-A.
 Alpha  occ. eigenvalues --  -20.64454 -20.60703 -11.41617 -11.31546 -11.27236
 Alpha  occ. eigenvalues --   -1.60614  -1.48791  -1.04206  -0.89465  -0.85660
 Alpha  occ. eigenvalues --   -0.77544  -0.73272  -0.64837  -0.62510  -0.60771
 Alpha  occ. eigenvalues --   -0.57042  -0.53975  -0.51865  -0.49627  -0.27327
 Alpha virt. eigenvalues --    0.03528   0.04048   0.04885   0.05332   0.07469
 Alpha virt. eigenvalues --    0.07982   0.08864   0.09933   0.10231   0.12299
 Alpha virt. eigenvalues --    0.14041   0.14851   0.15193   0.15351   0.16628

 Mulliken charges:
               1
     1  C    0.240369
     2  C    0.421849
     3  O   -1.181910
     4  C    1.273620
     5  O   -1.085489
     6  H    0.069439
     7  H   -0.078352
     8  H    0.100893
     9  H    0.044417
    10  H    0.104150
    11  H    0.091013
 Sum of Mulliken charges =   0.00000

 Dipole moment (field-independent basis, Debye):
    X=             -0.1565    Y=             -0.7385    Z=             -1.5647  Tot=              1.7373

 Test job not archived.
 1\1\GINC-SE113\SP\RHF\Aug-CC-pVDZ\C3H6O2\OHZDE\09-Apr-2025\0\\#t hf au
 g-cc-pvdz iop(5/13=1,5/36=2,99/5=2) pseudo=read geom=check guess=(read
 ,tcheck) scf=(maxcycle=1)\\title\\0,1\C,0,0.46272134,0.88532733,0.3639
 3442\C,0,1.03609077,-0.46925252,-0.05740831\O,0,-0.19906985,-1.2598377
 9,-0.24352833\C,0,-1.22384335,-0.44369908,0.09535174\O,0,-0.83043441,0
 .59686551,0.79663724\H,0,-0.32308037,1.12389821,-1.19331719\H,0,0.9725
 1216,1.55989297,1.04546708\H,0,1.56644593,-0.43638484,-1.01939556\H,0,
 1.65949915,-1.00523276,0.68336741\H,0,-1.01207395,0.69543633,-1.427089

 Normal termination of Gaussian 16 at Wed Apr  9 15:42:38 2025.
