 Gaussian 16, Revision C.01,

 ----------------------------------------------------------------------
 #t hf aug-cc-pvdz symm=none int=(grid=ultrafine) guess=(read,tcheck) s
 table=(opt,rrhf)
 ----------------------------------------------------------------------
 -----
 title
 -----
 Symbolic Z-matrix:
 Charge =  0 Multiplicity = 1

 SCF Done:  E(RHF) =  -310.151280294     A.U. after   14 cycles

 1\1\GINC-SE103\Stability\RHF\Aug-CC-pVDZ\C6H14O1\OHZDE\09-Apr-2025\0\\
 #t hf aug-cc-pvdz symm=none int=(grid=ultrafine) guess=(read,tcheck) s
 table=(opt,rrhf)\\title\\0,1\C,0,2.51544412,-0.88654847,-1.16419688\O,
 0,2.23353741,-1.56260293,0.07122562\C,0,2.35988871,-0.87288107,1.15471
 376\C,0,-0.81329034,0.57873908,0.1221061\C,0,-1.55300155,1.8446278,-0.
 29906513\C,0,-1.19606919,-0.60077841,-0.76683678\C,0,-1.06930694,0.256
 95438,1.59084763\H,0,2.79473187,0.1432518,-0.94546805\H,0,1.61526731,-
 0.93195285,-1.77539794\H,0,3.32641144,-1.42166869,-1.65565451\H,0,0.26

 Normal termination of Gaussian 16 at Wed Apr  9 03:59:16 2025.
 Gaussian 16:  ES64L-G16RevC.01  3-Jul-2019

 ----------------------------------------------------------------------
 #t hf aug-cc-pvdz iop(5/13=1,5/36=2,99/5=2) pseudo=read geom=check gue
 ss=(read,tcheck) scf=(maxcycle=1)
 ----------------------------------------------------------------------
 -----
 title
 -----
 Structure from the checkpoint file:  "Grambow2020_wb97xd3_008658_reverse_mol2.chk"
 Charge =  0 Multiplicity = 1

                         Standard orientation:
 ---------------------------------------------------------------------
 Center     Atomic      Atomic             Coordinates (Angstroms)
 Number     Number       Type             X           Y           Z
 ---------------------------------------------------------------------
      1          6           0        2.380661   -1.090140   -0.357105
      2          8           0        2.370083    0.189871    0.294241
      3          6           0        2.078099    1.212880   -0.436392
      4          6           0       -1.323899   -0.040005   -0.121384
      5          6           0       -2.545837   -0.592181   -0.848709
      6          6           0       -1.037110   -0.834812    1.149063
      7          6           0       -1.496405    1.442420    0.193179
      8          1           0        2.120507   -0.952937   -1.405832
      9          1           0        1.655027   -1.722833    0.151915
     10          1           0        3.380210   -1.507857   -0.247714
     11          1           0       -0.460372   -0.136804   -0.790321
     12          1           0        2.137517    2.054650    0.291158
     13          1           0       -2.738115   -0.044130   -1.773618
     14          1           0       -3.438893   -0.510622   -0.221503
     15          1           0       -2.414727   -1.646350   -1.104259
     16          1           0       -0.139112   -0.468844    1.653348
     17          1           0       -0.897745   -1.897564    0.933652
     18          1           0       -1.869227   -0.749654    1.854387
     19          1           0       -0.618534    1.846212    0.703331
     20          1           0       -2.360470    1.601899    0.845668
     21          1           0       -1.649787    2.026898   -0.716056
 ---------------------------------------------------------------------

 SCF Done:  E(RHF) =  -310.486629097     A.U. after    2 cycles

 The electronic state is 1-A.
 Alpha  occ. eigenvalues --  -20.61709 -11.30286 -11.30082 -11.22736 -11.21856
 Alpha  occ. eigenvalues --  -11.21690 -11.21568  -1.54461  -1.08466  -1.00388
 Alpha  occ. eigenvalues --   -0.92877  -0.92710  -0.82356  -0.77031  -0.69970
 Alpha  occ. eigenvalues --   -0.66769  -0.63614  -0.61339  -0.59808  -0.59668
 Alpha  occ. eigenvalues --   -0.55627  -0.53940  -0.53800  -0.51607  -0.51394
 Alpha  occ. eigenvalues --   -0.47175  -0.47148  -0.46379  -0.36269
 Alpha virt. eigenvalues --    0.03293   0.03739   0.04103   0.04260   0.05600
 Alpha virt. eigenvalues --    0.06083   0.06334   0.06758   0.07157   0.08383
 Alpha virt. eigenvalues --    0.09077   0.09544   0.09836   0.10484   0.11415

 Mulliken charges:
               1
     1  C    0.352057
     2  O   -0.952316
     3  C    0.173782
     4  C   -1.675188
     5  C   -0.002019
     6  C    0.046991
     7  C    0.032657
     8  H    0.235136
     9  H    0.123990
    10  H    0.035552
    11  H    0.172888
    12  H    0.062363
    13  H    0.149132
    14  H    0.215987
    15  H    0.141456
    16  H    0.143178
    17  H    0.153262
    18  H    0.133541
    19  H    0.100029
    20  H    0.209230
    21  H    0.148294
 Sum of Mulliken charges =  -0.00000

 Dipole moment (field-independent basis, Debye):
    X=              0.4802    Y=             -1.6018    Z=              0.6939  Tot=              1.8105

 Test job not archived.
 1\1\GINC-SE103\SP\RHF\Aug-CC-pVDZ\C6H14O1\OHZDE\09-Apr-2025\0\\#t hf a
 ug-cc-pvdz iop(5/13=1,5/36=2,99/5=2) pseudo=read geom=check guess=(rea
 d,tcheck) scf=(maxcycle=1)\\title\\0,1\C,0,2.51544412,-0.88654847,-1.1
 6419688\O,0,2.23353741,-1.56260293,0.07122562\C,0,2.35988871,-0.872881
 07,1.15471376\C,0,-0.81329034,0.57873908,0.1221061\C,0,-1.55300155,1.8
 446278,-0.29906513\C,0,-1.19606919,-0.60077841,-0.76683678\C,0,-1.0693
 0694,0.25695438,1.59084763\H,0,2.79473187,0.1432518,-0.94546805\H,0,1.
 61526731,-0.93195285,-1.77539794\H,0,3.32641144,-1.42166869,-1.6556545

 Normal termination of Gaussian 16 at Wed Apr  9 03:59:25 2025.
