 Gaussian 16, Revision C.01,

 ----------------------------------------------------------------------
 #t hf aug-cc-pvdz symm=none int=(grid=ultrafine) guess=(read,tcheck) s
 table=(opt,rrhf)
 ----------------------------------------------------------------------
 -----
 title
 -----
 Symbolic Z-matrix:
 Charge =  0 Multiplicity = 1

 SCF Done:  E(RHF) =  -379.552137955     A.U. after   13 cycles
 Normal termination of Gaussian 16 at Wed Apr  9 19:04:48 2025.
 Gaussian 16:  ES64L-G16RevC.01  3-Jul-2019

 ----------------------------------------------------------------------
 #t hf aug-cc-pvdz iop(5/13=1,5/36=2,99/5=2) pseudo=read geom=check gue
 ss=(read,tcheck) scf=(maxcycle=1)
 ----------------------------------------------------------------------
 -----
 title
 -----
 Structure from the checkpoint file:  "Grambow2020_wb97xd3_008537_forward_mol2.chk"
 Charge =  0 Multiplicity = 1

                         Standard orientation:
 ---------------------------------------------------------------------
 Center     Atomic      Atomic             Coordinates (Angstroms)
 Number     Number       Type             X           Y           Z
 ---------------------------------------------------------------------
      1          8           0        0.641421    1.522875    0.001027
      2          6           0        0.058874    0.271122   -0.000675
      3          6           0       -1.064221   -0.001696   -1.024190
      4          8           0       -1.907247   -0.539725    0.000671
      5          6           0       -1.060752   -0.007581    1.025915
      6          6           0        1.102921   -0.813660   -0.004155
      7          8           0        2.277971   -0.563030    0.000579
      8          1           0        1.599438    1.387768    0.006834
      9          1           0       -0.877172   -0.718393   -1.827773
     10          1           0       -1.450513    0.935171   -1.436377
     11          1           0       -1.445149    0.927375    1.443883
     12          1           0       -0.871613   -0.728361    1.825279
     13          1           0        0.726911   -1.853643   -0.011435
 ---------------------------------------------------------------------

 SCF Done:  E(RHF) =  -379.933606958     A.U. after    2 cycles

 The electronic state is 1-A.
 Alpha  occ. eigenvalues --  -20.57830 -20.56905 -20.56154 -11.36548 -11.32122
 Alpha  occ. eigenvalues --  -11.30944 -11.30848  -1.52291  -1.49571  -1.47238
 Alpha  occ. eigenvalues --   -1.06151  -0.96637  -0.89552  -0.78834  -0.75649
 Alpha  occ. eigenvalues --   -0.72485  -0.68827  -0.66175  -0.65111  -0.60334
 Alpha  occ. eigenvalues --   -0.57172  -0.56341  -0.53877  -0.51256  -0.46105
 Alpha  occ. eigenvalues --   -0.44569  -0.42280
 Alpha virt. eigenvalues --    0.03596   0.04022   0.04211   0.05296   0.06504
 Alpha virt. eigenvalues --    0.06651   0.08881   0.10258   0.10342   0.10598
 Alpha virt. eigenvalues --    0.13814   0.13958   0.14741   0.15119   0.15200

 Mulliken charges:
               1
     1  O   -1.567087
     2  C    0.616884
     3  C    0.798688
     4  O   -1.270892
     5  C    0.798407
     6  C    1.033791
     7  O   -1.152725
     8  H    0.288296
     9  H    0.094781
    10  H    0.081144
    11  H    0.080541
    12  H    0.094428
    13  H    0.103744
 Sum of Mulliken charges =  -0.00000

 Dipole moment (field-independent basis, Debye):
    X=             -0.4141    Y=             -0.6885    Z=             -0.0015  Tot=              0.8035

 Test job not archived.
 1\1\GINC-SE115\SP\RHF\Aug-CC-pVDZ\C4H6O3\OHZDE\09-Apr-2025\0\\#t hf au
 g-cc-pvdz iop(5/13=1,5/36=2,99/5=2) pseudo=read geom=check guess=(read
 ,tcheck) scf=(maxcycle=1)\\title\\0,1\O,0,1.02192014,0.54230623,-1.299
 73988\C,0,0.27074888,0.09262306,-0.23213682\C,0,-0.91393159,-0.8516769
 3,-0.52909564\O,0,-1.78803724,-0.05673,0.27991998\C,0,-0.84085366,1.01
 692075,0.31112871\C,0,1.15252788,-0.43510308,0.86821263\O,0,2.35051242
 ,-0.43412419,0.77648836\H,0,1.95135215,0.40946888,-1.06608579\H,0,-0.8
 5641644,-1.88750949,-0.18539346\H,0,-1.17969881,-0.82019849,-1.5898585

 Normal termination of Gaussian 16 at Wed Apr  9 19:04:52 2025.
