 Gaussian 16, Revision C.01,

 ----------------------------------------------------------------------
 #t hf aug-cc-pvdz symm=none int=(grid=ultrafine) guess=(read,tcheck) s
 table=(opt,rrhf)
 ----------------------------------------------------------------------
 -----
 title
 -----
 Symbolic Z-matrix:
 Charge =  0 Multiplicity = 1

 SCF Done:  E(RHF) =  -323.686019479     A.U. after   18 cycles
 Normal termination of Gaussian 16 at Wed Apr  9 17:47:50 2025.
 Gaussian 16:  ES64L-G16RevC.01  3-Jul-2019

 ----------------------------------------------------------------------
 #t hf aug-cc-pvdz iop(5/13=1,5/36=2,99/5=2) pseudo=read geom=check gue
 ss=(read,tcheck) scf=(maxcycle=1)
 ----------------------------------------------------------------------
 -----
 title
 -----
 Structure from the checkpoint file:  "Grambow2020_wb97xd3_006824_forward_mol1.chk"
 Charge =  0 Multiplicity = 1

                         Standard orientation:
 ---------------------------------------------------------------------
 Center     Atomic      Atomic             Coordinates (Angstroms)
 Number     Number       Type             X           Y           Z
 ---------------------------------------------------------------------
      1          6           0       -1.869985   -1.334966    0.255914
      2          6           0       -1.043235   -0.246635   -0.398041
      3          6           0       -1.296154    1.218048    0.029911
      4          6           0        0.220010    1.478681    0.086365
      5          6           0        0.399431   -0.087183    0.050828
      6          7           0        1.491988   -0.614014   -0.553869
      7          8           0        2.425803   -0.453195    0.300531
      8          1           0       -2.920065   -1.256453   -0.035192
      9          1           0       -1.812187   -1.261932    1.344426
     10          1           0       -1.512385   -2.325053   -0.033599
     11          1           0       -1.079930   -0.343568   -1.488111
     12          1           0       -1.865626    1.844231   -0.655102
     13          1           0       -1.751389    1.268369    1.020027
     14          1           0        0.608489    2.020960    0.944603
     15          1           0        0.605987    1.923060   -0.831952
     16          1           0        1.416362   -0.113628    1.057872
 ---------------------------------------------------------------------

 SCF Done:  E(RHF) =  -324.021573349     A.U. after    2 cycles

 The electronic state is 1-A.
 Alpha  occ. eigenvalues --  -20.60889 -15.64582 -11.26505 -11.25216 -11.24724
 Alpha  occ. eigenvalues --  -11.24247 -11.22931  -1.57564  -1.17997  -1.08267
 Alpha  occ. eigenvalues --   -0.99907  -0.87928  -0.85981  -0.79999  -0.70683
 Alpha  occ. eigenvalues --   -0.69318  -0.65471  -0.62766  -0.59022  -0.58448
 Alpha  occ. eigenvalues --   -0.53603  -0.51794  -0.50534  -0.49755  -0.46651
 Alpha  occ. eigenvalues --   -0.45016  -0.35900
 Alpha virt. eigenvalues --    0.02296   0.03447   0.03824   0.03996   0.04725
 Alpha virt. eigenvalues --    0.05798   0.06164   0.06880   0.06998   0.08464
 Alpha virt. eigenvalues --    0.12249   0.12465   0.12957   0.13887   0.14050

 Mulliken charges:
               1
     1  C   -0.255343
     2  C   -0.384286
     3  C    0.082086
     4  C    0.088325
     5  C   -1.724700
     6  N    1.687471
     7  O   -1.227309
     8  H    0.174525
     9  H    0.217426
    10  H    0.181277
    11  H    0.079491
    12  H    0.031739
    13  H    0.074389
    14  H    0.022168
    15  H    0.155715
    16  H    0.797029
 Sum of Mulliken charges =  -0.00000

 Dipole moment (field-independent basis, Debye):
    X=             -2.2575    Y=              1.5012    Z=              0.6237  Tot=              2.7819

 Test job not archived.
 1\1\GINC-SE226\SP\RHF\Aug-CC-pVDZ\C5H9N1O1\OHZDE\09-Apr-2025\0\\#t hf
 aug-cc-pvdz iop(5/13=1,5/36=2,99/5=2) pseudo=read geom=check guess=(re
 ad,tcheck) scf=(maxcycle=1)\\title\\0,1\C,0,-1.54478401,-1.27010328,-0
 .05889637\C,0,-0.49319946,-0.2963691,-0.55047288\C,0,-0.65370834,1.197
 45633,-0.18287231\C,0,0.84520056,1.29025155,0.15555282\C,0,0.84965979,
 -0.28624613,0.16003241\N,0,1.96869976,-0.94543321,-0.22741112\O,0,2.73
 975044,-0.86765537,0.78614963\H,0,-2.50680357,-1.08326591,-0.54179015\
 H,0,-1.68219261,-1.17692409,1.02090433\H,0,-1.25407532,-2.30052175,-0.

 Normal termination of Gaussian 16 at Wed Apr  9 17:47:55 2025.
