 Gaussian 16, Revision C.01,

 ----------------------------------------------------------------------
 #t hf aug-cc-pvdz symm=none int=(grid=ultrafine) guess=(read,tcheck) s
 table=(opt,rrhf)
 ----------------------------------------------------------------------
 -----
 title
 -----
 Symbolic Z-matrix:
 Charge =  0 Multiplicity = 1

 SCF Done:  E(RHF) =  -342.430231524     A.U. after   15 cycles
 Normal termination of Gaussian 16 at Wed Apr  9 19:04:50 2025.
 Gaussian 16:  ES64L-G16RevC.01  3-Jul-2019

 ----------------------------------------------------------------------
 #t hf aug-cc-pvdz iop(5/13=1,5/36=2,99/5=2) pseudo=read geom=check gue
 ss=(read,tcheck) scf=(maxcycle=1)
 ----------------------------------------------------------------------
 -----
 title
 -----
 Structure from the checkpoint file:  "Grambow2020_wb97xd3_008520_forward_mol1.chk"
 Charge =  0 Multiplicity = 1

                         Standard orientation:
 ---------------------------------------------------------------------
 Center     Atomic      Atomic             Coordinates (Angstroms)
 Number     Number       Type             X           Y           Z
 ---------------------------------------------------------------------
      1          8           0       -2.173266   -0.549691   -0.238590
      2          6           0       -1.026884   -0.252220    0.245289
      3          6           0       -0.555020    1.159178    0.255249
      4          8           0        0.636754    1.371922   -0.141416
      5          6           0        1.249368    0.113785   -0.548241
      6          6           0        1.504120   -0.843721    0.558741
      7          6           0        0.265624   -0.967301   -0.276104
      8          1           0       -0.924397   -0.307966    1.413989
      9          1           0       -1.120412    2.026660    0.584158
     10          1           0        1.892051    0.264014   -1.402273
     11          1           0        1.398904   -0.474306    1.574059
     12          1           0        2.310340   -1.551700    0.415942
     13          1           0        0.112358   -1.792876   -0.955433
 ---------------------------------------------------------------------

 SCF Done:  E(RHF) =  -342.776492621     A.U. after    2 cycles

 The electronic state is 1-A.
 Alpha  occ. eigenvalues --  -20.68576 -20.41623 -11.41490 -11.33976 -11.30548
 Alpha  occ. eigenvalues --  -11.27294 -11.26232  -1.62539  -1.34809  -1.19651
 Alpha  occ. eigenvalues --   -1.04655  -0.92459  -0.85146  -0.82555  -0.77285
 Alpha  occ. eigenvalues --   -0.72124  -0.67411  -0.64074  -0.63115  -0.58255
 Alpha  occ. eigenvalues --   -0.55876  -0.53328  -0.46870  -0.46627  -0.34118
 Alpha  occ. eigenvalues --   -0.32546
 Alpha virt. eigenvalues --    0.02509   0.02966   0.03412   0.04239   0.05051
 Alpha virt. eigenvalues --    0.05742   0.06910   0.09419   0.09935   0.10390
 Alpha virt. eigenvalues --    0.11169   0.13272   0.13944   0.14545   0.14934

 Mulliken charges:
               1
     1  O   -1.549722
     2  C    0.790907
     3  C    0.591833
     4  O   -1.288309
     5  C    1.201071
     6  C    0.136112
     7  C    0.248555
     8  H    0.471400
     9  H   -0.023399
    10  H   -0.161946
    11  H   -0.121741
    12  H   -0.125514
    13  H   -0.169248
 Sum of Mulliken charges =  -0.00000

 Dipole moment (field-independent basis, Debye):
    X=              6.2299    Y=              2.7718    Z=              1.0063  Tot=              6.8925

 Test job not archived.
 1\1\GINC-SE145\SP\RHF\Aug-CC-pVDZ\C5H6O2\OHZDE\09-Apr-2025\0\\#t hf au
 g-cc-pvdz iop(5/13=1,5/36=2,99/5=2) pseudo=read geom=check guess=(read
 ,tcheck) scf=(maxcycle=1)\\title\\0,1\O,0,1.37013374,2.07704882,0.3106
 5352\C,0,0.87889769,0.89790848,0.38231651\C,0,1.45955925,-0.21176177,-
 0.42158854\O,0,0.64095413,-0.95849198,-1.05024417\C,0,-0.7205204,-0.48
 899818,-0.82736266\C,0,-1.21972042,-0.65698793,0.56177511\C,0,-0.64609
 889,0.65500765,0.11935251\H,0,1.08869783,0.30564254,1.3746254\H,0,2.51
 326047,-0.46039934,-0.51252203\H,0,-1.31360877,-0.60850021,-1.7212002\

 Normal termination of Gaussian 16 at Wed Apr  9 19:04:55 2025.
