 Gaussian 16, Revision C.01,

 ----------------------------------------------------------------------
 #t hf aug-cc-pvdz symm=none int=(grid=ultrafine) guess=(read,tcheck) s
 table=(opt,rrhf)
 ----------------------------------------------------------------------
 -----
 title
 -----
 Symbolic Z-matrix:
 Charge =  0 Multiplicity = 1

 SCF Done:  E(RHF) =  -247.701881009     A.U. after   16 cycles
 Normal termination of Gaussian 16 at Wed Apr  9 16:53:06 2025.
 Gaussian 16:  ES64L-G16RevC.01  3-Jul-2019

 ----------------------------------------------------------------------
 #t hf aug-cc-pvdz iop(5/13=1,5/36=2,99/5=2) pseudo=read geom=check gue
 ss=(read,tcheck) scf=(maxcycle=1)
 ----------------------------------------------------------------------
 -----
 title
 -----
 Structure from the checkpoint file:  "Grambow2020_wb97xd3_006164_forward_mol1.chk"
 Charge =  0 Multiplicity = 1

                         Standard orientation:
 ---------------------------------------------------------------------
 Center     Atomic      Atomic             Coordinates (Angstroms)
 Number     Number       Type             X           Y           Z
 ---------------------------------------------------------------------
      1          6           0        0.297320    1.547492    0.016641
      2          6           0        1.130815    0.448902   -0.331831
      3          6           0        1.085986   -0.831109    0.464786
      4          6           0       -0.134982   -1.368898   -0.223736
      5          6           0       -1.213295   -0.541295   -0.081129
      6          7           0       -1.872590    0.402458    0.149060
      7          1           0        0.051699    2.307751   -0.712075
      8          1           0        1.726470    1.439569    0.112974
      9          1           0        0.036179    1.714396    1.051866
     10          1           0        1.428007    0.367336   -1.371589
     11          1           0        0.965820   -0.641683    1.533258
     12          1           0        1.962090   -1.455132    0.304711
     13          1           0       -0.057199   -2.080001   -1.030942
 ---------------------------------------------------------------------

 SCF Done:  E(RHF) =  -247.958641035     A.U. after    2 cycles

 The electronic state is 1-A.
 Alpha  occ. eigenvalues --  -15.46413 -11.35204 -11.32118 -11.26977 -11.24647
 Alpha  occ. eigenvalues --  -11.20346  -1.20358  -1.15713  -1.04391  -0.90063
 Alpha  occ. eigenvalues --   -0.83454  -0.73034  -0.67397  -0.66411  -0.62941
 Alpha  occ. eigenvalues --   -0.57491  -0.56310  -0.54499  -0.53930  -0.47329
 Alpha  occ. eigenvalues --   -0.44720  -0.27611
 Alpha virt. eigenvalues --    0.02187   0.03176   0.03354   0.04566   0.05677
 Alpha virt. eigenvalues --    0.05837   0.06732   0.07064   0.10675   0.11040
 Alpha virt. eigenvalues --    0.12575   0.13158   0.13868   0.14054   0.14683

 Mulliken charges:
               1
     1  C   -0.288548
     2  C    0.134866
     3  C   -0.123214
     4  C    0.711707
     5  C   -1.932979
     6  N    0.986440
     7  H   -0.022779
     8  H    0.410134
     9  H    0.077295
    10  H   -0.017257
    11  H    0.125636
    12  H    0.097440
    13  H   -0.158742
 Sum of Mulliken charges =  -0.00000

 Dipole moment (field-independent basis, Debye):
    X=              6.4266    Y=              2.3974    Z=             -0.8060  Tot=              6.9064

 Test job not archived.
 1\1\GINC-SE168\SP\RHF\Aug-CC-pVDZ\C5H7N1\OHZDE\09-Apr-2025\0\\#t hf au
 g-cc-pvdz iop(5/13=1,5/36=2,99/5=2) pseudo=read geom=check guess=(read
 ,tcheck) scf=(maxcycle=1)\\title\\0,1\C,0,1.13690605,0.9021088,-0.0784
 8633\C,0,0.72609956,-0.4595908,-0.08618473\C,0,-0.47679871,-0.90257029
 ,0.70869976\C,0,-1.47970852,-0.45693565,-0.3158124\C,0,-1.39535854,0.8
 8327692,-0.57024763\N,0,-1.00171657,1.98860829,-0.61042496\H,0,1.74219
 356,1.30125691,-0.8807683\H,0,1.80345101,-0.23935679,0.48380457\H,0,0.
 98249059,1.50311502,0.80621117\H,0,0.97139232,-1.04241192,-0.96722012\

 Normal termination of Gaussian 16 at Wed Apr  9 16:53:09 2025.
