 Gaussian 16, Revision C.01,

 ----------------------------------------------------------------------
 #t hf aug-cc-pvdz symm=none int=(grid=ultrafine) guess=(read,tcheck) s
 table=(opt,rrhf)
 ----------------------------------------------------------------------
 -----
 title
 -----
 Symbolic Z-matrix:
 Charge =  0 Multiplicity = 1

 SCF Done:  E(RHF) =  -287.939106224     A.U. after   16 cycles

 1\1\GINC-SE329\Stability\RHF\Aug-CC-pVDZ\C6H11N1\OHZDE\09-Apr-2025\0\\
 #t hf aug-cc-pvdz symm=none int=(grid=ultrafine) guess=(read,tcheck) s
 table=(opt,rrhf)\\title\\0,1\C,0,2.09646699,-0.56117847,-0.12913617\C,
 0,0.73742564,-0.04473101,0.38852138\C,0,0.55724272,1.43102975,0.040349
 31\C,0,-0.23523347,-1.03033554,-0.18669644\C,0,-2.27114268,-0.23064955
 ,0.70010478\C,0,-0.60321437,-0.83582868,-1.54063246\N,0,-0.86749224,-0
 .78624283,-2.66562018\H,0,2.25704806,-1.60559901,0.13621795\H,0,2.8921
 9467,0.03943151,0.31353475\H,0,2.16420418,-0.46456482,-1.2147272\H,0,0

 Normal termination of Gaussian 16 at Wed Apr  9 03:46:52 2025.
 Gaussian 16:  ES64L-G16RevC.01  3-Jul-2019

 ----------------------------------------------------------------------
 #t hf aug-cc-pvdz iop(5/13=1,5/36=2,99/5=2) pseudo=read geom=check gue
 ss=(read,tcheck) scf=(maxcycle=1)
 ----------------------------------------------------------------------
 -----
 title
 -----
 Structure from the checkpoint file:  "Grambow2020_wb97xd3_007881_reverse_mol1.chk"
 Charge =  0 Multiplicity = 1

                         Standard orientation:
 ---------------------------------------------------------------------
 Center     Atomic      Atomic             Coordinates (Angstroms)
 Number     Number       Type             X           Y           Z
 ---------------------------------------------------------------------
      1          6           0        2.078059    0.430615   -0.609818
      2          6           0        0.939096   -0.546683   -0.250189
      3          6           0        0.964876   -0.873981    1.241042
      4          6           0       -0.275151    0.138134   -0.802446
      5          6           0       -1.957882   -1.435054   -0.288307
      6          6           0       -0.827753    1.175627   -0.012114
      7          7           0       -1.266402    2.092302    0.540328
      8          1           0        2.095091    0.653009   -1.676244
      9          1           0        3.030495   -0.021996   -0.330745
     10          1           0        1.976308    1.369255   -0.061154
     11          1           0        1.101135   -1.457767   -0.832678
     12          1           0        1.934075   -1.290227    1.523129
     13          1           0        0.201843   -1.606863    1.506279
     14          1           0        0.794132    0.024350    1.838993
     15          1           0       -1.317627   -0.774710   -1.031717
     16          1           0       -2.933936   -1.358563   -0.765320
     17          1           0       -1.545339   -2.438811   -0.354350
     18          1           0       -1.998825   -1.075742    0.732505
 ---------------------------------------------------------------------

 SCF Done:  E(RHF) =  -288.242587962     A.U. after    2 cycles

 The electronic state is 1-A.
 Alpha  occ. eigenvalues --  -15.51470 -11.30797 -11.27779 -11.27328 -11.26839
 Alpha  occ. eigenvalues --  -11.24494 -11.23853  -1.23378  -1.12604  -1.01236
 Alpha  occ. eigenvalues --   -0.95745  -0.94287  -0.82868  -0.67068  -0.66509
 Alpha  occ. eigenvalues --   -0.62767  -0.61054  -0.60327  -0.60015  -0.57798
 Alpha  occ. eigenvalues --   -0.56395  -0.53628  -0.52896  -0.50622  -0.50166
 Alpha  occ. eigenvalues --   -0.49197  -0.36063
 Alpha virt. eigenvalues --    0.02333   0.02879   0.03613   0.04286   0.04713
 Alpha virt. eigenvalues --    0.05552   0.05848   0.06644   0.07330   0.08293
 Alpha virt. eigenvalues --    0.08994   0.09663   0.10574   0.12891   0.13656

 Mulliken charges:
               1
     1  C   -0.049144
     2  C   -1.154704
     3  C    0.017403
     4  C    0.095131
     5  C   -0.526815
     6  C   -1.673965
     7  N    1.024610
     8  H    0.188701
     9  H    0.154253
    10  H    0.255000
    11  H    0.113365
    12  H    0.156972
    13  H    0.141048
    14  H    0.311116
    15  H    0.490325
    16  H    0.045042
    17  H    0.149717
    18  H    0.261944
 Sum of Mulliken charges =  -0.00000

 Dipole moment (field-independent basis, Debye):
    X=              1.5777    Y=             -4.7633    Z=             -0.5121  Tot=              5.0438

 Test job not archived.
 1\1\GINC-SE329\SP\RHF\Aug-CC-pVDZ\C6H11N1\OHZDE\09-Apr-2025\0\\#t hf a
 ug-cc-pvdz iop(5/13=1,5/36=2,99/5=2) pseudo=read geom=check guess=(rea
 d,tcheck) scf=(maxcycle=1)\\title\\0,1\C,0,2.09646699,-0.56117847,-0.1
 2913617\C,0,0.73742564,-0.04473101,0.38852138\C,0,0.55724272,1.4310297
 5,0.04034931\C,0,-0.23523347,-1.03033554,-0.18669644\C,0,-2.27114268,-
 0.23064955,0.70010478\C,0,-0.60321437,-0.83582868,-1.54063246\N,0,-0.8
 6749224,-0.78624283,-2.66562018\H,0,2.25704806,-1.60559901,0.13621795\
 H,0,2.89219467,0.03943151,0.31353475\H,0,2.16420418,-0.46456482,-1.214

 Normal termination of Gaussian 16 at Wed Apr  9 03:46:59 2025.
