 Gaussian 16, Revision C.01,

 ----------------------------------------------------------------------
 #t hf aug-cc-pvdz symm=none int=(grid=ultrafine) guess=(read,tcheck) s
 table=(opt,rrhf)
 ----------------------------------------------------------------------
 -----
 title
 -----
 Symbolic Z-matrix:
 Charge =  0 Multiplicity = 1

 SCF Done:  E(RHF) =  -283.583994347     A.U. after   16 cycles
 Normal termination of Gaussian 16 at Wed Apr  9 03:16:23 2025.
 Gaussian 16:  ES64L-G16RevC.01  3-Jul-2019

 ----------------------------------------------------------------------
 #t hf aug-cc-pvdz iop(5/13=1,5/36=2,99/5=2) pseudo=read geom=check gue
 ss=(read,tcheck) scf=(maxcycle=1)
 ----------------------------------------------------------------------
 -----
 title
 -----
 Structure from the checkpoint file:  "Grambow2020_b97d3_006995_forward_mol1.chk"
 Charge =  0 Multiplicity = 1

                         Standard orientation:
 ---------------------------------------------------------------------
 Center     Atomic      Atomic             Coordinates (Angstroms)
 Number     Number       Type             X           Y           Z
 ---------------------------------------------------------------------
      1          6           0        1.313816   -1.095966   -0.136462
      2          6           0        0.660017    0.245325   -0.074810
      3          8           0        1.006713    1.367857   -0.226525
      4          6           0       -1.466328   -0.146510   -0.981429
      5          6           0       -1.223448   -0.054759    0.365542
      6          7           0       -0.697291   -0.004609    1.456945
      7          1           0        1.821528   -1.185467   -1.106154
      8          1           0        0.603643   -1.912735   -0.007623
      9          1           0        2.069055   -1.137690    0.661124
     10          1           0       -1.682271   -1.117615   -1.422736
     11          1           0       -1.688971    0.754377   -1.548076
 ---------------------------------------------------------------------

 SCF Done:  E(RHF) =  -283.864579818     A.U. after    2 cycles

 The electronic state is 1-A.
 Alpha  occ. eigenvalues --  -20.60703 -15.52726 -11.46436 -11.32034 -11.30572
 Alpha  occ. eigenvalues --  -11.25380  -1.54856  -1.24637  -1.07098  -1.01219
 Alpha  occ. eigenvalues --   -0.80039  -0.71416  -0.69211  -0.68357  -0.66160
 Alpha  occ. eigenvalues --   -0.63584  -0.60771  -0.59094  -0.57159  -0.49820
 Alpha  occ. eigenvalues --   -0.47483  -0.33325
 Alpha virt. eigenvalues --    0.02688   0.04200   0.04468   0.04804   0.06218
 Alpha virt. eigenvalues --    0.07756   0.07969   0.10549   0.11324   0.11780
 Alpha virt. eigenvalues --    0.12543   0.13193   0.13694   0.14260   0.14499

 Mulliken charges:
               1
     1  C   -0.266181
     2  C    0.987692
     3  O   -1.238744
     4  C    0.319090
     5  C   -1.223762
     6  N    0.657188
     7  H    0.299415
     8  H    0.220640
     9  H    0.288804
    10  H   -0.031061
    11  H   -0.013081
 Sum of Mulliken charges =  -0.00000

 Dipole moment (field-independent basis, Debye):
    X=              1.6373    Y=             -2.7577    Z=             -3.1871  Tot=              4.5214

 Test job not archived.
 1\1\GINC-SE083\SP\RHF\Aug-CC-pVDZ\C4H5N1O1\OHZDE\09-Apr-2025\0\\#t hf
 aug-cc-pvdz iop(5/13=1,5/36=2,99/5=2) pseudo=read geom=check guess=(re
 ad,tcheck) scf=(maxcycle=1)\\title\\0,1\C,0,-1.31129522,0.39941469,-0.
 43186517\C,0,-0.4222226,0.13675891,0.73897933\O,0,-0.57736016,-0.17580
 708,1.87102619\C,0,1.43422863,-0.92773439,-0.21876753\C,0,1.41959494,0
 .3987853,0.13033287\N,0,1.08337578,1.5169852,0.45759835\H,0,-1.9680998
 5,-0.4705656,-0.56538395\H,0,-0.75078247,0.59070981,-1.34690002\H,0,-1
 .9314306,1.27476021,-0.19212885\H,0,1.3998942,-1.20620076,-1.27029309\

 Normal termination of Gaussian 16 at Wed Apr  9 03:16:29 2025.
