 Gaussian 16, Revision C.01,

 ----------------------------------------------------------------------
 #t hf aug-cc-pvdz symm=none int=(grid=ultrafine) guess=(read,tcheck) s
 table=(opt,rrhf)
 ----------------------------------------------------------------------
 -----
 title
 -----
 Symbolic Z-matrix:
 Charge =  0 Multiplicity = 1

 SCF Done:  E(RHF) =  -305.357993821     A.U. after   15 cycles
 Normal termination of Gaussian 16 at Wed Apr  9 18:55:47 2025.
 Gaussian 16:  ES64L-G16RevC.01  3-Jul-2019

 ----------------------------------------------------------------------
 #t hf aug-cc-pvdz iop(5/13=1,5/36=2,99/5=2) pseudo=read geom=check gue
 ss=(read,tcheck) scf=(maxcycle=1)
 ----------------------------------------------------------------------
 -----
 title
 -----
 Structure from the checkpoint file:  "Grambow2020_wb97xd3_008350_reverse_mol1.chk"
 Charge =  0 Multiplicity = 1

                         Standard orientation:
 ---------------------------------------------------------------------
 Center     Atomic      Atomic             Coordinates (Angstroms)
 Number     Number       Type             X           Y           Z
 ---------------------------------------------------------------------
      1          8           0       -0.772645   -1.298679   -0.813038
      2          6           0       -0.883224   -0.493333    0.288700
      3          6           0        0.446708   -0.357343    1.063066
      4          6           0        1.578707    0.044587    0.235047
      5          6           0        2.482398    0.361615   -0.484418
      6          6           0       -2.055567    0.820879   -0.083694
      7          6           0       -0.965550    1.410597   -0.191520
      8          1           0       -0.069732   -0.966975   -1.382075
      9          1           0       -1.589467   -0.952854    0.970908
     10          1           0        0.655302   -1.348446    1.474850
     11          1           0        0.323095    0.327395    1.903151
     12          1           0        3.300425    0.641281   -1.106344
     13          1           0       -0.059303    1.967027   -0.319267
 ---------------------------------------------------------------------

 SCF Done:  E(RHF) =  -305.669066184     A.U. after    2 cycles

 The electronic state is 1-A.
 Alpha  occ. eigenvalues --  -20.57665 -11.36760 -11.29344 -11.27152 -11.26466
 Alpha  occ. eigenvalues --  -11.26335 -11.23700  -1.49750  -1.12488  -1.07207
 Alpha  occ. eigenvalues --   -1.01076  -0.88834  -0.76086  -0.75535  -0.70748
 Alpha  occ. eigenvalues --   -0.69753  -0.66054  -0.61874  -0.59274  -0.52200
 Alpha  occ. eigenvalues --   -0.44962  -0.43380  -0.42834  -0.41227  -0.40678
 Alpha virt. eigenvalues --    0.02547   0.03256   0.04093   0.05233   0.05725
 Alpha virt. eigenvalues --    0.06190   0.09033   0.09161   0.10467   0.10875
 Alpha virt. eigenvalues --    0.11492   0.12107   0.13176   0.13370   0.14685

 Mulliken charges:
               1
     1  O   -1.385935
     2  C    1.031701
     3  C   -0.882883
     4  C    0.471249
     5  C    0.209254
     6  C   -0.481340
     7  C    0.579055
     8  H    0.326366
     9  H    0.042285
    10  H    0.224135
    11  H    0.254535
    12  H   -0.442421
    13  H    0.054000
 Sum of Mulliken charges =  -0.00000

 Dipole moment (field-independent basis, Debye):
    X=              4.3752    Y=              0.3402    Z=              0.7719  Tot=              4.4558

 Test job not archived.
 1\1\GINC-SE097\SP\RHF\Aug-CC-pVDZ\C6H6O1\OHZDE\09-Apr-2025\0\\#t hf au
 g-cc-pvdz iop(5/13=1,5/36=2,99/5=2) pseudo=read geom=check guess=(read
 ,tcheck) scf=(maxcycle=1)\\title\\0,1\O,0,0.08108862,-0.61883884,1.766
 40609\C,0,0.5162349,-0.94744769,0.51050064\C,0,-0.54726482,-0.67925596
 ,-0.57756969\C,0,-1.0956461,0.67250422,-0.5529538\C,0,-1.52848167,1.78
 746106,-0.48723077\C,0,2.27827399,-0.59365525,0.40916623\C,0,1.7866250
 8,0.37221591,-0.20149304\H,0,-0.20318982,0.30149797,1.77547245\H,0,0.7
 1216913,-2.01355728,0.49135589\H,0,-1.35941571,-1.38454328,-0.38175258

 Normal termination of Gaussian 16 at Wed Apr  9 18:55:51 2025.
