 Gaussian 16, Revision C.01,

 ----------------------------------------------------------------------
 #t hf aug-cc-pvdz symm=none int=(grid=ultrafine) guess=(read,tcheck) s
 table=(opt,rrhf)
 ----------------------------------------------------------------------
 -----
 title
 -----
 Symbolic Z-matrix:
 Charge =  0 Multiplicity = 1

 SCF Done:  E(RHF) =  -286.823125540     A.U. after   13 cycles
 Normal termination of Gaussian 16 at Wed Apr  9 18:43:40 2025.
 Gaussian 16:  ES64L-G16RevC.01  3-Jul-2019

 ----------------------------------------------------------------------
 #t hf aug-cc-pvdz iop(5/13=1,5/36=2,99/5=2) pseudo=read geom=check gue
 ss=(read,tcheck) scf=(maxcycle=1)
 ----------------------------------------------------------------------
 -----
 title
 -----
 Structure from the checkpoint file:  "Grambow2020_wb97xd3_008002_reverse_mol2.chk"
 Charge =  0 Multiplicity = 1

                         Standard orientation:
 ---------------------------------------------------------------------
 Center     Atomic      Atomic             Coordinates (Angstroms)
 Number     Number       Type             X           Y           Z
 ---------------------------------------------------------------------
      1          6           0        3.148327    0.676496   -0.197855
      2          6           0        2.111520   -0.040524    0.122338
      3          6           0        1.074208   -0.763346    0.427640
      4          6           0       -0.172095   -0.857320   -0.412559
      5          6           0       -1.387445   -0.335795    0.314180
      6          6           0       -1.765473    1.088245    0.253422
      7          7           0       -2.503838    0.089375   -0.519649
      8          1           0        3.234302    1.709997    0.117553
      9          1           0        3.956406    0.258522   -0.787259
     10          1           0        1.101962   -1.331873    1.354499
     11          1           0       -0.345786   -1.901199   -0.693641
     12          1           0       -0.047338   -0.292837   -1.337684
     13          1           0       -1.629359   -0.855482    1.238560
     14          1           0       -1.165836    1.771341   -0.337796
     15          1           0       -2.241433    1.532090    1.120564
     16          1           0       -3.390301   -0.122714   -0.080244
 ---------------------------------------------------------------------

 SCF Done:  E(RHF) =  -287.131589814     A.U. after    2 cycles

 The electronic state is 1-A.
 Alpha  occ. eigenvalues --  -15.49834 -11.26635 -11.25908 -11.25891 -11.24686
 Alpha  occ. eigenvalues --  -11.24240 -11.24059  -1.26985  -1.09527  -1.01800
 Alpha  occ. eigenvalues --   -0.93146  -0.89107  -0.80467  -0.74162  -0.70476
 Alpha  occ. eigenvalues --   -0.65260  -0.63887  -0.61500  -0.60188  -0.55758
 Alpha  occ. eigenvalues --   -0.52234  -0.51020  -0.48575  -0.42115  -0.38151
 Alpha  occ. eigenvalues --   -0.37176
 Alpha virt. eigenvalues --    0.03315   0.03845   0.04016   0.04387   0.05555
 Alpha virt. eigenvalues --    0.05810   0.06676   0.06733   0.07703   0.10421
 Alpha virt. eigenvalues --    0.11205   0.12354   0.13002   0.13152   0.13572

 Mulliken charges:
               1
     1  C   -0.029510
     2  C   -0.232283
     3  C    0.893024
     4  C   -0.668494
     5  C   -0.550724
     6  C    0.252075
     7  N    0.428345
     8  H   -0.052216
     9  H   -0.043763
    10  H   -0.190793
    11  H    0.254157
    12  H    0.135515
    13  H   -0.239531
    14  H   -0.079530
    15  H   -0.101418
    16  H    0.225147
 Sum of Mulliken charges =   0.00000

 Dipole moment (field-independent basis, Debye):
    X=             -0.1369    Y=             -0.0083    Z=              1.8025  Tot=              1.8077

 Test job not archived.
 1\1\GINC-SE029\SP\RHF\Aug-CC-pVDZ\C6H9N1\OHZDE\09-Apr-2025\0\\#t hf au
 g-cc-pvdz iop(5/13=1,5/36=2,99/5=2) pseudo=read geom=check guess=(read
 ,tcheck) scf=(maxcycle=1)\\title\\0,1\C,0,2.76874813,1.09070649,1.3827
 7088\C,0,1.74976762,0.28554832,1.31200311\C,0,0.73840595,-0.52816683,1
 .23008166\C,0,0.12207233,-0.98880122,-0.06451688\C,0,-1.31499168,-0.54
 798194,-0.19770423\C,0,-1.66605662,0.75424195,-0.79390418\N,0,-1.84646
 034,-0.48365103,-1.55261288\H,0,2.63226946,2.16510482,1.42795224\H,0,3
 .78292294,0.70833672,1.40106198\H,0,0.30108321,-0.8952206,2.15586945\H

 Normal termination of Gaussian 16 at Wed Apr  9 18:43:46 2025.
