 Gaussian 16, Revision C.01,

 ----------------------------------------------------------------------
 #t hf aug-cc-pvdz symm=none int=(grid=ultrafine) guess=(read,tcheck) s
 table=(opt,rrhf)
 ----------------------------------------------------------------------
 -----
 title
 -----
 Symbolic Z-matrix:
 Charge =  0 Multiplicity = 1

 SCF Done:  E(RHF) =  -284.762016495     A.U. after   15 cycles
 Normal termination of Gaussian 16 at Wed Apr  9 17:07:17 2025.
 Gaussian 16:  ES64L-G16RevC.01  3-Jul-2019

 ----------------------------------------------------------------------
 #t hf aug-cc-pvdz iop(5/13=1,5/36=2,99/5=2) pseudo=read geom=check gue
 ss=(read,tcheck) scf=(maxcycle=1)
 ----------------------------------------------------------------------
 -----
 title
 -----
 Structure from the checkpoint file:  "Grambow2020_wb97xd3_006246_reverse_mol2.chk"
 Charge =  0 Multiplicity = 1

                         Standard orientation:
 ---------------------------------------------------------------------
 Center     Atomic      Atomic             Coordinates (Angstroms)
 Number     Number       Type             X           Y           Z
 ---------------------------------------------------------------------
      1          8           0        1.807969   -0.937988   -0.013277
      2          6           0        1.314398    0.162598   -0.125410
      3          7           0        0.005650    0.440442    0.076775
      4          6           0       -0.882440   -0.629157    0.494537
      5          6           0       -1.795657   -1.287760   -0.391353
      6          6           0       -0.537880    1.771633   -0.045295
      7          1           0        1.902227    1.051587   -0.411623
      8          1           0       -0.265266   -1.576844    0.521754
      9          1           0       -1.223468   -0.493328    1.524772
     10          1           0       -1.480122   -1.046996   -1.424988
     11          1           0       -0.978455    2.103050    0.898990
     12          1           0        0.258878    2.464723   -0.314670
     13          1           0       -1.307616    1.814730   -0.820325
 ---------------------------------------------------------------------

 SCF Done:  E(RHF) =  -285.052738349     A.U. after    2 cycles

 The electronic state is 1-A.
 Alpha  occ. eigenvalues --  -20.52255 -15.54330 -11.36684 -11.29696 -11.29273
 Alpha  occ. eigenvalues --  -11.28309  -1.47324  -1.28107  -1.06811  -0.99274
 Alpha  occ. eigenvalues --   -0.87831  -0.77980  -0.74325  -0.69877  -0.66771
 Alpha  occ. eigenvalues --   -0.61943  -0.59475  -0.58712  -0.56337  -0.53852
 Alpha  occ. eigenvalues --   -0.44243  -0.42213  -0.38034
 Alpha virt. eigenvalues --    0.02668   0.04031   0.04090   0.05013   0.05653
 Alpha virt. eigenvalues --    0.06364   0.07359   0.07686   0.08956   0.09292
 Alpha virt. eigenvalues --    0.12249   0.13348   0.13996   0.14860   0.15253

 Mulliken charges:
               1
     1  O   -1.104107
     2  C    0.740481
     3  N    0.939266
     4  C   -0.724998
     5  C   -0.330920
     6  C   -0.441081
     7  H    0.083018
     8  H    0.361766
     9  H    0.076195
    10  H    0.072878
    11  H    0.158488
    12  H    0.025284
    13  H    0.143731
 Sum of Mulliken charges =   0.00000

 Dipole moment (field-independent basis, Debye):
    X=             -0.5441    Y=              4.3889    Z=             -0.0986  Tot=              4.4236

 Test job not archived.
 1\1\GINC-SE232\SP\RHF\Aug-CC-pVDZ\C4H7N1O1\OHZDE\09-Apr-2025\0\\#t hf
 aug-cc-pvdz iop(5/13=1,5/36=2,99/5=2) pseudo=read geom=check guess=(re
 ad,tcheck) scf=(maxcycle=1)\\title\\0,1\O,0,1.95352839,1.4056654,-0.32
 98687\C,0,1.56225221,0.26013846,-0.37621584\N,0,0.26281172,-0.11001873
 ,-0.30317727\C,0,-0.75540396,0.9194782,-0.2000111\C,0,-1.42188336,1.25
 01625,1.02431564\C,0,-0.16279374,-1.48642263,-0.38544907\H,0,2.2474590
 8,-0.59852458,-0.48086974\H,0,-0.21490444,1.91168845,-0.14402253\H,0,-
 1.35821134,0.98561184,-1.11016634\H,0,-0.82475518,0.81626673,1.8496057

 Normal termination of Gaussian 16 at Wed Apr  9 17:07:21 2025.
