 Gaussian 16, Revision C.01,

 ----------------------------------------------------------------------
 #t hf aug-cc-pvdz symm=none int=(grid=ultrafine) guess=(read,tcheck) s
 table=(opt,rrhf)
 ----------------------------------------------------------------------
 -----
 title
 -----
 Symbolic Z-matrix:
 Charge =  0 Multiplicity = 1

 SCF Done:  E(RHF) =  -352.360261180     A.U. after   17 cycles
 Normal termination of Gaussian 16 at Wed Apr  9 03:51:46 2025.
 Gaussian 16:  ES64L-G16RevC.01  3-Jul-2019

 ----------------------------------------------------------------------
 #t hf aug-cc-pvdz iop(5/13=1,5/36=2,99/5=2) pseudo=read geom=check gue
 ss=(read,tcheck) scf=(maxcycle=1)
 ----------------------------------------------------------------------
 -----
 title
 -----
 Structure from the checkpoint file:  "Grambow2020_wb97xd3_008228_forward_mol2.chk"
 Charge =  0 Multiplicity = 1

                         Standard orientation:
 ---------------------------------------------------------------------
 Center     Atomic      Atomic             Coordinates (Angstroms)
 Number     Number       Type             X           Y           Z
 ---------------------------------------------------------------------
      1          7           0       -2.730891   -0.262505    0.000084
      2          6           0       -1.584825   -0.165541   -0.000324
      3          6           0       -0.172810   -0.095321   -0.000856
      4          6           0        0.739937   -1.237862    0.000762
      5          8           0        1.938459   -1.133395   -0.000684
      6          7           0        0.957938    2.057514    0.000683
      7          7           0        0.398463    1.100840   -0.000228
      8          1           0        0.219959   -2.211441    0.004199
 ---------------------------------------------------------------------

 SCF Done:  E(RHF) =  -352.693930752     A.U. after    2 cycles

 The electronic state is 1-A.
 Alpha  occ. eigenvalues --  -20.56855 -15.75343 -15.70049 -15.53886 -11.38518
 Alpha  occ. eigenvalues --  -11.34909 -11.31339  -1.58290  -1.50804  -1.27087
 Alpha  occ. eigenvalues --   -1.23080  -0.97850  -0.89122  -0.80706  -0.80001
 Alpha  occ. eigenvalues --   -0.77895  -0.70656  -0.67121  -0.62882  -0.59573
 Alpha  occ. eigenvalues --   -0.55359  -0.53806  -0.46163  -0.40777
 Alpha virt. eigenvalues --    0.01110   0.01778   0.03512   0.05343   0.07759
 Alpha virt. eigenvalues --    0.08805   0.10142   0.10896   0.11172   0.11403
 Alpha virt. eigenvalues --    0.12598   0.12847   0.14056   0.14602   0.15734

 Mulliken charges:
               1
     1  N    1.009456
     2  C   -1.981539
     3  C    0.633134
     4  C    1.300884
     5  O   -1.231537
     6  N    1.042740
     7  N   -0.917252
     8  H    0.144114
 Sum of Mulliken charges =  -0.00000

 Dipole moment (field-independent basis, Debye):
    X=              1.4435    Y=              0.6739    Z=              0.0035  Tot=              1.5931

 Test job not archived.
 1\1\GINC-SE029\SP\RHF\Aug-CC-pVDZ\C3H1N3O1\OHZDE\09-Apr-2025\0\\#t hf
 aug-cc-pvdz iop(5/13=1,5/36=2,99/5=2) pseudo=read geom=check guess=(re
 ad,tcheck) scf=(maxcycle=1)\\title\\0,1\N,0,2.68110009,-0.31870002,0.0
 3184735\C,0,1.53294746,-0.27142265,0.0806325\C,0,0.12433629,-0.1644952
 5,0.13629448\C,0,-0.64196568,1.07912434,0.06772896\O,0,-1.84308876,1.1
 2545002,0.11800781\N,0,-1.25801592,-2.15130325,0.37078589\N,0,-0.58722
 645,-1.27554749,0.26434277\H,0,-0.00808704,1.97689429,-0.03450577\\Ver
 sion=ES64L-G16RevC.01\State=1-A\HF=-352.6939308\RMSD=7.089e-02\Dipole=

 Normal termination of Gaussian 16 at Wed Apr  9 03:51:49 2025.
