 Gaussian 16, Revision C.01,

 ----------------------------------------------------------------------
 #t hf aug-cc-pvdz symm=none int=(grid=ultrafine) guess=(read,tcheck) s
 table=(opt,rrhf)
 ----------------------------------------------------------------------
 -----
 title
 -----
 Symbolic Z-matrix:
 Charge =  0 Multiplicity = 1

 SCF Done:  E(RHF) =  -343.629937831     A.U. after   16 cycles
 Normal termination of Gaussian 16 at Wed Apr  9 03:27:58 2025.
 Gaussian 16:  ES64L-G16RevC.01  3-Jul-2019

 ----------------------------------------------------------------------
 #t hf aug-cc-pvdz iop(5/13=1,5/36=2,99/5=2) pseudo=read geom=check gue
 ss=(read,tcheck) scf=(maxcycle=1)
 ----------------------------------------------------------------------
 -----
 title
 -----
 Structure from the checkpoint file:  "Grambow2020_wb97xd3_006673_reverse_mol1.chk"
 Charge =  0 Multiplicity = 1

                         Standard orientation:
 ---------------------------------------------------------------------
 Center     Atomic      Atomic             Coordinates (Angstroms)
 Number     Number       Type             X           Y           Z
 ---------------------------------------------------------------------
      1          6           0        2.247294   -0.588432   -0.231160
      2          6           0        0.876356   -0.041192   -0.421568
      3          8           0       -0.090713   -0.793519    0.849520
      4          6           0        0.578270    1.352747    0.050689
      5          6           0       -0.950389    1.262134    0.076400
      6          6           0       -1.124589   -0.225382   -0.060575
      7          8           0       -1.985967   -0.923453   -0.478991
      8          1           0        2.667108   -0.405824    0.767580
      9          1           0        2.317532   -1.652157   -0.466147
     10          1           0        2.877899   -0.066558   -0.958302
     11          1           0       -0.108819   -1.741467    0.659385
     12          1           0        1.013145    1.634238    1.019782
     13          1           0        0.937958    2.055447   -0.703198
     14          1           0       -1.418674    1.605558    1.002116
     15          1           0       -1.434377    1.747289   -0.768166
 ---------------------------------------------------------------------

 SCF Done:  E(RHF) =  -343.982211992     A.U. after    2 cycles

 The electronic state is 1-A.
 Alpha  occ. eigenvalues --  -20.62594 -20.54640 -11.41421 -11.26456 -11.26126
 Alpha  occ. eigenvalues --  -11.24457 -11.23605  -1.55064  -1.47483  -1.11795
 Alpha  occ. eigenvalues --   -1.01948  -0.90809  -0.84011  -0.75368  -0.72629
 Alpha  occ. eigenvalues --   -0.67587  -0.65620  -0.63360  -0.61527  -0.58497
 Alpha  occ. eigenvalues --   -0.56902  -0.55813  -0.52498  -0.50444  -0.49444
 Alpha  occ. eigenvalues --   -0.44442  -0.32190
 Alpha virt. eigenvalues --    0.03550   0.03791   0.04027   0.04610   0.05939
 Alpha virt. eigenvalues --    0.06288   0.06856   0.08238   0.09917   0.10220
 Alpha virt. eigenvalues --    0.12551   0.13475   0.13954   0.14220   0.14958

 Mulliken charges:
               1
     1  C   -0.453063
     2  C   -0.486026
     3  O   -1.241374
     4  C   -0.085185
     5  C   -0.450850
     6  C    2.373663
     7  O   -1.424751
     8  H    0.227947
     9  H    0.135228
    10  H    0.244613
    11  H    0.431754
    12  H    0.130259
    13  H    0.163042
    14  H    0.214316
    15  H    0.220427
 Sum of Mulliken charges =  -0.00000

 Dipole moment (field-independent basis, Debye):
    X=              1.9801    Y=              1.1819    Z=              1.5410  Tot=              2.7735

 Test job not archived.
 1\1\GINC-SE220\SP\RHF\Aug-CC-pVDZ\C5H8O2\OHZDE\09-Apr-2025\0\\#t hf au
 g-cc-pvdz iop(5/13=1,5/36=2,99/5=2) pseudo=read geom=check guess=(read
 ,tcheck) scf=(maxcycle=1)\\title\\0,1\C,0,-1.97837859,-0.38072497,0.16
 483291\C,0,-0.51817832,-0.41983537,-0.12062024\O,0,-0.14590949,1.17137
 748,-0.78870828\C,0,0.44914242,-0.26873477,1.01797913\C,0,1.69848601,0
 .09161988,0.20868543\C,0,1.06900997,0.37790702,-1.12683352\O,0,1.45039
 08,0.33722349,-2.2481006\H,0,-2.28030218,0.43038723,0.84159772\H,0,-2.
 58824475,-0.34536115,-0.73986337\H,0,-2.2088825,-1.33021513,0.65888533

 Normal termination of Gaussian 16 at Wed Apr  9 03:28:03 2025.
