 Gaussian 16, Revision C.01,

 ----------------------------------------------------------------------
 #t hf aug-cc-pvdz symm=none int=(grid=ultrafine) guess=(read,tcheck) s
 table=(opt,rrhf)
 ----------------------------------------------------------------------
 -----
 title
 -----
 Symbolic Z-matrix:
 Charge =  0 Multiplicity = 1

 SCF Done:  E(RHF) =  -358.483527927     A.U. after   15 cycles
 Normal termination of Gaussian 16 at Wed Apr  9 17:44:20 2025.
 Gaussian 16:  ES64L-G16RevC.01  3-Jul-2019

 ----------------------------------------------------------------------
 #t hf aug-cc-pvdz iop(5/13=1,5/36=2,99/5=2) pseudo=read geom=check gue
 ss=(read,tcheck) scf=(maxcycle=1)
 ----------------------------------------------------------------------
 -----
 title
 -----
 Structure from the checkpoint file:  "Grambow2020_wb97xd3_006800_reverse_mol2.chk"
 Charge =  0 Multiplicity = 1

                         Standard orientation:
 ---------------------------------------------------------------------
 Center     Atomic      Atomic             Coordinates (Angstroms)
 Number     Number       Type             X           Y           Z
 ---------------------------------------------------------------------
      1          8           0       -0.262245    2.002203    0.276224
      2          6           0        0.221266    1.246185   -0.517808
      3          6           0        1.043798    0.082999   -0.085847
      4          6           0        1.851418   -1.087158   -0.338164
      5          7           0        1.356895   -0.491251    0.975531
      6          6           0       -2.093381   -0.756489    0.455632
      7          8           0       -1.666310   -0.795491   -0.665266
      8          1           0        0.092538    1.360159   -1.605513
      9          1           0       -1.612780   -0.145984    1.241609
     10          1           0        2.913250   -0.990666   -0.537712
     11          1           0        1.386449   -2.017820   -0.646239
     12          1           0       -2.987887   -1.333853    0.748595
 ---------------------------------------------------------------------

 SCF Done:  E(RHF) =  -358.840141026     A.U. after    2 cycles

 The electronic state is 1-A.
 Alpha  occ. eigenvalues --  -20.57597 -20.57593 -15.54522 -11.37437 -11.36084
 Alpha  occ. eigenvalues --  -11.30874 -11.29094  -1.50988  -1.50510  -1.33444
 Alpha  occ. eigenvalues --   -0.95643  -0.90305  -0.88301  -0.76381  -0.71576
 Alpha  occ. eigenvalues --   -0.70919  -0.67519  -0.67012  -0.66231  -0.58913
 Alpha  occ. eigenvalues --   -0.56293  -0.54957  -0.48413  -0.45425  -0.44541
 Alpha  occ. eigenvalues --   -0.42770
 Alpha virt. eigenvalues --    0.03190   0.03846   0.04380   0.04673   0.05310
 Alpha virt. eigenvalues --    0.06864   0.07294   0.08625   0.09895   0.10643
 Alpha virt. eigenvalues --    0.11458   0.13752   0.14779   0.15122   0.15524

 Mulliken charges:
               1
     1  O   -1.157444
     2  C    1.019366
     3  C   -0.740936
     4  C    0.088328
     5  N    0.711504
     6  C    0.580085
     7  O   -0.805726
     8  H    0.110644
     9  H    0.213089
    10  H   -0.025648
    11  H   -0.053379
    12  H    0.060118
 Sum of Mulliken charges =   0.00000

 Dipole moment (field-independent basis, Debye):
    X=             -0.5093    Y=             -1.1164    Z=             -1.7062  Tot=              2.1016

 Test job not archived.
 1\1\GINC-SE232\SP\RHF\Aug-CC-pVDZ\C4H5N1O2\OHZDE\09-Apr-2025\0\\#t hf
 aug-cc-pvdz iop(5/13=1,5/36=2,99/5=2) pseudo=read geom=check guess=(re
 ad,tcheck) scf=(maxcycle=1)\\title\\0,1\O,0,1.38437033,-1.14127167,-1.
 31849577\C,0,1.37096723,-0.13694453,-0.66505708\C,0,0.22189398,0.80834
 729,-0.71201065\C,0,-0.46540297,2.01922532,-0.32915524\N,0,-0.92351994
 ,0.85573321,-1.20200571\C,0,-0.74637362,-1.72529852,1.15425066\O,0,-0.
 01226695,-0.90205047,1.62719088\H,0,2.19692573,0.15100355,0.0039291\H,
 0,-0.83845665,-1.86537408,0.0618435\H,0,-0.26377527,2.95279681,-0.8433

 Normal termination of Gaussian 16 at Wed Apr  9 17:44:25 2025.
