 Gaussian 16, Revision C.01,

 ----------------------------------------------------------------------
 #t hf aug-cc-pvdz symm=none int=(grid=ultrafine) guess=(read,tcheck) s
 table=(opt,rrhf)
 ----------------------------------------------------------------------
 -----
 title
 -----
 Symbolic Z-matrix:
 Charge =  0 Multiplicity = 1

 SCF Done:  E(RHF) =  -264.989886545     A.U. after   14 cycles
 Normal termination of Gaussian 16 at Wed Apr  9 15:51:52 2025.
 Gaussian 16:  ES64L-G16RevC.01  3-Jul-2019

 ----------------------------------------------------------------------
 #t hf aug-cc-pvdz iop(5/13=1,5/36=2,99/5=2) pseudo=read geom=check gue
 ss=(read,tcheck) scf=(maxcycle=1)
 ----------------------------------------------------------------------
 -----
 title
 -----
 Structure from the checkpoint file:  "Grambow2020_b97d3_006849_reverse_mol2.chk"
 Charge =  0 Multiplicity = 1

                         Standard orientation:
 ---------------------------------------------------------------------
 Center     Atomic      Atomic             Coordinates (Angstroms)
 Number     Number       Type             X           Y           Z
 ---------------------------------------------------------------------
      1          6           0       -1.464856   -0.679826    0.001949
      2          7           0       -0.102897   -1.157736    0.066213
      3          6           0        0.712483    0.060714    0.419420
      4          6           0        2.098960    0.012455   -0.221628
      5          6           0       -0.093734    1.312380    0.065239
      6          7           0       -1.286795    0.820710   -0.182746
      7          1           0       -2.004217   -0.838574    0.949353
      8          1           0       -2.039131   -1.123699   -0.821876
      9          1           0       -2.091516    1.414012   -0.385011
     10          1           0        0.178585   -1.432430   -0.879235
     11          1           0        0.830504    0.089488    1.519204
     12          1           0        2.697116    0.869868    0.108612
     13          1           0        2.620482   -0.914564    0.052864
     14          1           0        2.018901    0.060745   -1.318066
 ---------------------------------------------------------------------

 SCF Done:  E(RHF) =  -265.267419439     A.U. after    2 cycles

 The electronic state is 1-A.
 Alpha  occ. eigenvalues --  -15.54336 -15.49969 -11.30940 -11.26402 -11.24886
 Alpha  occ. eigenvalues --  -11.23100  -1.29154  -1.17145  -1.03546  -0.93187
 Alpha  occ. eigenvalues --   -0.87325  -0.79717  -0.70686  -0.69997  -0.63291
 Alpha  occ. eigenvalues --   -0.61198  -0.59674  -0.53464  -0.52927  -0.50774
 Alpha  occ. eigenvalues --   -0.48185  -0.43891  -0.35722
 Alpha virt. eigenvalues --    0.03144   0.04476   0.04786   0.05058   0.05377
 Alpha virt. eigenvalues --    0.05647   0.06357   0.08253   0.10235   0.10954
 Alpha virt. eigenvalues --    0.12213   0.12645   0.14262   0.14960   0.15084

 Mulliken charges:
               1
     1  C   -0.372995
     2  N    0.491723
     3  C   -1.140947
     4  C   -0.066994
     5  C   -0.666244
     6  N    0.591772
     7  H    0.054391
     8  H    0.040287
     9  H    0.054068
    10  H    0.365662
    11  H    0.079487
    12  H    0.165871
    13  H    0.220772
    14  H    0.183147
 Sum of Mulliken charges =  -0.00000

 Dipole moment (field-independent basis, Debye):
    X=             -1.6540    Y=             -1.4434    Z=             -0.9455  Tot=              2.3902

 Test job not archived.
 1\1\GINC-SE057\SP\RHF\Aug-CC-pVDZ\C4H8N2\OHZDE\09-Apr-2025\0\\#t hf au
 g-cc-pvdz iop(5/13=1,5/36=2,99/5=2) pseudo=read geom=check guess=(read
 ,tcheck) scf=(maxcycle=1)\\title\\0,1\C,0,1.63467674,0.13648316,0.4319
 1777\N,0,0.63306068,-0.85178923,0.10398116\C,0,-0.44880315,-0.07722158
 ,-0.60583439\C,0,-1.83290138,-0.66048007,-0.32357736\C,0,-0.3119738,1.
 40363076,-0.24465609\N,0,0.85683114,1.44277185,0.35450422\H,0,2.436323
 12,0.17929529,-0.32254564\H,0,2.07815285,-0.01225381,1.42524994\H,0,1.
 28462976,2.31617456,0.66215669\H,0,0.22370509,-1.18708716,0.98065958\H

 Normal termination of Gaussian 16 at Wed Apr  9 15:51:56 2025.
