 Gaussian 16, Revision C.01,

 ----------------------------------------------------------------------
 #t hf aug-cc-pvdz symm=none int=(grid=ultrafine) guess=(read,tcheck) s
 table=(opt,rrhf)
 ----------------------------------------------------------------------
 -----
 title
 -----
 Symbolic Z-matrix:
 Charge =  0 Multiplicity = 1

 SCF Done:  E(RHF) =  -343.553297827     A.U. after   15 cycles
 Normal termination of Gaussian 16 at Wed Apr  9 03:58:17 2025.
 Gaussian 16:  ES64L-G16RevC.01  3-Jul-2019

 ----------------------------------------------------------------------
 #t hf aug-cc-pvdz iop(5/13=1,5/36=2,99/5=2) pseudo=read geom=check gue
 ss=(read,tcheck) scf=(maxcycle=1)
 ----------------------------------------------------------------------
 -----
 title
 -----
 Structure from the checkpoint file:  "Grambow2020_wb97xd3_008647_reverse_mol1.chk"
 Charge =  0 Multiplicity = 1

                         Standard orientation:
 ---------------------------------------------------------------------
 Center     Atomic      Atomic             Coordinates (Angstroms)
 Number     Number       Type             X           Y           Z
 ---------------------------------------------------------------------
      1          6           0        2.334374    0.633230   -0.172693
      2          6           0        1.578542   -0.648957   -0.407682
      3          8           0        0.741423   -0.913198    0.723891
      4          6           0       -0.178903   -0.264661   -0.066187
      5          6           0       -1.594602   -0.793767   -0.261332
      6          8           0       -2.104925    0.538931   -0.113433
      7          6           0       -0.828918    1.070517    0.276065
      8          1           0        2.612802    1.100840   -1.117388
      9          1           0        1.866265    1.357869    0.501129
     10          1           0        3.262678    0.293991    0.300057
     11          1           0        0.390631   -0.297950   -1.131686
     12          1           0       -1.851332   -1.237040   -1.224530
     13          1           0       -1.901196   -1.454340    0.555341
     14          1           0       -0.789210    1.309814    1.342578
     15          1           0       -0.545581    1.942772   -0.318185
 ---------------------------------------------------------------------

 SCF Done:  E(RHF) =  -343.903779775     A.U. after    2 cycles

 The electronic state is 1-A.
 Alpha  occ. eigenvalues --  -20.58056 -20.56148 -11.34256 -11.32393 -11.31110
 Alpha  occ. eigenvalues --  -11.30993 -11.24411  -1.53038  -1.48821  -1.03362
 Alpha  occ. eigenvalues --   -1.02799  -0.96987  -0.86068  -0.77955  -0.71669
 Alpha  occ. eigenvalues --   -0.70234  -0.67764  -0.61387  -0.60524  -0.59715
 Alpha  occ. eigenvalues --   -0.58061  -0.55261  -0.53868  -0.48914  -0.46700
 Alpha  occ. eigenvalues --   -0.43480  -0.35275
 Alpha virt. eigenvalues --    0.03442   0.03774   0.04209   0.04601   0.06018
 Alpha virt. eigenvalues --    0.06611   0.07143   0.07856   0.09388   0.11029
 Alpha virt. eigenvalues --    0.11896   0.13081   0.13308   0.13679   0.14715

 Mulliken charges:
               1
     1  C   -0.378695
     2  C   -0.369706
     3  O   -1.373995
     4  C    0.328713
     5  C    0.575624
     6  O   -1.284897
     7  C    0.713883
     8  H    0.212300
     9  H    0.159136
    10  H    0.209605
    11  H    0.714044
    12  H    0.091488
    13  H    0.166505
    14  H    0.155952
    15  H    0.080044
 Sum of Mulliken charges =  -0.00000

 Dipole moment (field-independent basis, Debye):
    X=              0.1876    Y=              1.6436    Z=             -0.1175  Tot=              1.6584

 Test job not archived.
 1\1\GINC-SE038\SP\RHF\Aug-CC-pVDZ\C5H8O2\OHZDE\09-Apr-2025\0\\#t hf au
 g-cc-pvdz iop(5/13=1,5/36=2,99/5=2) pseudo=read geom=check guess=(read
 ,tcheck) scf=(maxcycle=1)\\title\\0,1\C,0,2.10276627,-0.40299632,0.408
 91384\C,0,1.29531764,0.86743038,0.47634417\O,0,0.61853753,1.05892256,-
 0.77119296\C,0,-0.38920928,0.42119554,-0.08593732\C,0,-1.82889365,0.91
 998756,-0.11337869\O,0,-2.28608695,-0.43121243,-0.26706704\C,0,-0.9576
 0832,-0.94480546,-0.45106584\H,0,2.25660908,-0.82088604,1.40406692\H,0
 ,1.74801613,-1.16895908,-0.28802009\H,0,3.08063048,-0.05997104,0.05332

 Normal termination of Gaussian 16 at Wed Apr  9 03:58:22 2025.
