 Gaussian 16, Revision C.01,

 ----------------------------------------------------------------------
 #t hf aug-cc-pvdz symm=none int=(grid=ultrafine) guess=(read,tcheck) s
 table=(opt,rrhf)
 ----------------------------------------------------------------------
 -----
 title
 -----
 Symbolic Z-matrix:
 Charge =  0 Multiplicity = 1

 SCF Done:  E(RHF) =  -269.894720065     A.U. after   16 cycles

 1\1\GINC-SE129\Stability\RHF\Aug-CC-pVDZ\C5H10O1\OHZDE\09-Apr-2025\0\\
 #t hf aug-cc-pvdz symm=none int=(grid=ultrafine) guess=(read,tcheck) s
 table=(opt,rrhf)\\title\\0,1\C,0,2.2679351,0.64040012,-0.7912697\C,0,0
 .79671264,0.37902347,-0.55332191\C,0,0.34903179,-0.66867797,0.28568338
 \O,0,-0.66250844,0.45749303,1.5761141\C,0,-1.0758103,-0.62000978,0.742
 05811\C,0,-2.19758525,-0.34115599,-0.25630324\H,0,2.86954828,0.3611143
 4,0.08433637\H,0,2.45556078,1.70140603,-1.00776477\H,0,2.63943327,0.06
 1354,-1.65254186\H,0,0.1568896,0.97503601,0.50182837\H,0,0.1344605,0.6

 Normal termination of Gaussian 16 at Wed Apr  9 03:09:04 2025.
 Gaussian 16:  ES64L-G16RevC.01  3-Jul-2019

 ----------------------------------------------------------------------
 #t hf aug-cc-pvdz iop(5/13=1,5/36=2,99/5=2) pseudo=read geom=check gue
 ss=(read,tcheck) scf=(maxcycle=1)
 ----------------------------------------------------------------------
 -----
 title
 -----
 Structure from the checkpoint file:  "Grambow2020_b97d3_006621_forward_mol1.chk"
 Charge =  0 Multiplicity = 1

                         Standard orientation:
 ---------------------------------------------------------------------
 Center     Atomic      Atomic             Coordinates (Angstroms)
 Number     Number       Type             X           Y           Z
 ---------------------------------------------------------------------
      1          6           0       -2.596996    0.198138   -0.082043
      2          6           0       -1.098736    0.396444   -0.155008
      3          6           0       -0.214566   -0.243435    0.745451
      4          8           0        0.852188   -1.233393   -0.610538
      5          6           0        1.235119   -0.278625    0.373973
      6          6           0        1.938245    0.986197   -0.114599
      7          1           0       -2.849196   -0.801581    0.296880
      8          1           0       -3.064252    0.314695   -1.069916
      9          1           0       -3.062942    0.938798    0.588339
     10          1           0       -0.330799   -0.454557   -0.906019
     11          1           0       -0.772000    1.379834   -0.514075
     12          1           0       -0.562974   -1.010711    1.438675
     13          1           0        1.850826   -0.751217    1.158663
     14          1           0        1.362043    1.521352   -0.879403
     15          1           0        2.902423    0.705305   -0.559194
     16          1           0        2.130972    1.672921    0.723707
 ---------------------------------------------------------------------

 SCF Done:  E(RHF) =  -270.183776427     A.U. after    2 cycles

 The electronic state is 1-A.
 Alpha  occ. eigenvalues --  -20.48270 -11.33614 -11.29129 -11.24794 -11.24573
 Alpha  occ. eigenvalues --  -11.23123  -1.37174  -1.09848  -1.00962  -0.95396
 Alpha  occ. eigenvalues --   -0.85872  -0.76459  -0.68906  -0.64156  -0.60492
 Alpha  occ. eigenvalues --   -0.58965  -0.56270  -0.55774  -0.54317  -0.52064
 Alpha  occ. eigenvalues --   -0.50701  -0.48210  -0.38556  -0.33652
 Alpha virt. eigenvalues --    0.02867   0.03459   0.03759   0.04786   0.05808
 Alpha virt. eigenvalues --    0.05921   0.06307   0.06840   0.08601   0.09003
 Alpha virt. eigenvalues --    0.09637   0.12399   0.12766   0.13737   0.14177

 Mulliken charges:
               1
     1  C   -0.531016
     2  C   -0.425983
     3  C    0.262072
     4  O   -1.492543
     5  C    0.658050
     6  C   -0.511154
     7  H    0.168628
     8  H    0.192221
     9  H    0.242299
    10  H    0.952208
    11  H   -0.044562
    12  H   -0.104518
    13  H    0.045588
    14  H    0.175066
    15  H    0.199994
    16  H    0.213650
 Sum of Mulliken charges =  -0.00000

 Dipole moment (field-independent basis, Debye):
    X=             -1.6729    Y=              2.2932    Z=              2.3010  Tot=              3.6541

 Test job not archived.
 1\1\GINC-SE129\SP\RHF\Aug-CC-pVDZ\C5H10O1\OHZDE\09-Apr-2025\0\\#t hf a
 ug-cc-pvdz iop(5/13=1,5/36=2,99/5=2) pseudo=read geom=check guess=(rea
 d,tcheck) scf=(maxcycle=1)\\title\\0,1\C,0,2.2679351,0.64040012,-0.791
 2697\C,0,0.79671264,0.37902347,-0.55332191\C,0,0.34903179,-0.66867797,
 0.28568338\O,0,-0.66250844,0.45749303,1.5761141\C,0,-1.0758103,-0.6200
 0978,0.74205811\C,0,-2.19758525,-0.34115599,-0.25630324\H,0,2.86954828
 ,0.36111434,0.08433637\H,0,2.45556078,1.70140603,-1.00776477\H,0,2.639
 43327,0.061354,-1.65254186\H,0,0.1568896,0.97503601,0.50182837\H,0,0.1

 Normal termination of Gaussian 16 at Wed Apr  9 03:09:09 2025.
