 Gaussian 16, Revision C.01,

 ----------------------------------------------------------------------
 #t hf aug-cc-pvdz symm=none int=(grid=ultrafine) guess=(read,tcheck) s
 table=(opt,rrhf)
 ----------------------------------------------------------------------
 -----
 title
 -----
 Symbolic Z-matrix:
 Charge =  0 Multiplicity = 1

 SCF Done:  E(RHF) =  -283.479876570     A.U. after   16 cycles
 Normal termination of Gaussian 16 at Wed Apr  9 16:29:44 2025.
 Gaussian 16:  ES64L-G16RevC.01  3-Jul-2019

 ----------------------------------------------------------------------
 #t hf aug-cc-pvdz iop(5/13=1,5/36=2,99/5=2) pseudo=read geom=check gue
 ss=(read,tcheck) scf=(maxcycle=1)
 ----------------------------------------------------------------------
 -----
 title
 -----
 Structure from the checkpoint file:  "Grambow2020_wb97xd3_006131_forward_mol1.chk"
 Charge =  0 Multiplicity = 1

                         Standard orientation:
 ---------------------------------------------------------------------
 Center     Atomic      Atomic             Coordinates (Angstroms)
 Number     Number       Type             X           Y           Z
 ---------------------------------------------------------------------
      1          7           0        2.630098    0.012211    0.171598
      2          6           0        1.518173   -0.016842   -0.103705
      3          6           0        0.123483   -0.054878   -0.488552
      4          6           0       -0.923758   -0.997370    0.105211
      5          8           0       -1.810718    0.047170    0.077418
      6          6           0       -0.880706    0.967411   -0.082733
      7          1           0        0.021091   -0.174009   -1.573859
      8          1           0       -0.336765   -0.267993    1.809650
      9          1           0       -1.274488   -1.949547   -0.274087
     10          1           0       -0.271341    0.520045    1.823048
     11          1           0       -1.086581    2.018751   -0.186603
 ---------------------------------------------------------------------

 SCF Done:  E(RHF) =  -283.762164692     A.U. after    2 cycles

 The electronic state is 1-A.
 Alpha  occ. eigenvalues --  -20.67988 -15.52767 -11.36943 -11.32751 -11.31432
 Alpha  occ. eigenvalues --  -11.29573  -1.62459  -1.25161  -1.10936  -0.98417
 Alpha  occ. eigenvalues --   -0.86360  -0.77447  -0.76605  -0.70287  -0.64097
 Alpha  occ. eigenvalues --   -0.61199  -0.59505  -0.58600  -0.53383  -0.50965
 Alpha  occ. eigenvalues --   -0.50353  -0.31211
 Alpha virt. eigenvalues --    0.02590   0.03151   0.04352   0.04925   0.06196
 Alpha virt. eigenvalues --    0.07462   0.08400   0.10154   0.10554   0.11598
 Alpha virt. eigenvalues --    0.11953   0.13751   0.13975   0.14877   0.15232

 Mulliken charges:
               1
     1  N    0.940492
     2  C   -1.934457
     3  C    0.075155
     4  C    0.784138
     5  O   -1.130816
     6  C    1.059539
     7  H    0.163935
     8  H    0.116047
     9  H   -0.087504
    10  H    0.043120
    11  H   -0.029649
 Sum of Mulliken charges =  -0.00000

 Dipole moment (field-independent basis, Debye):
    X=             -3.8958    Y=              0.9114    Z=             -2.7783  Tot=              4.8710

 Test job not archived.
 1\1\GINC-SE131\SP\RHF\Aug-CC-pVDZ\C4H5N1O1\OHZDE\09-Apr-2025\0\\#t hf
 aug-cc-pvdz iop(5/13=1,5/36=2,99/5=2) pseudo=read geom=check guess=(re
 ad,tcheck) scf=(maxcycle=1)\\title\\0,1\N,0,2.48432777,-0.90263185,1.0
 4511011\C,0,1.53216738,-0.70765982,0.43815948\C,0,0.34210253,-0.485991
 11,-0.3551395\C,0,-1.08936135,-0.53810399,0.17942086\O,0,-1.37447403,0
 .54281422,-0.61358606\C,0,-0.11059483,0.85419429,-0.82110949\H,0,0.333
 47948,-1.13819891,-1.23668217\H,0,-0.44956988,0.76170309,1.47666128\H,
 0,-1.79320611,-1.36133146,0.15898489\H,0,-0.02602937,1.35282352,1.1657

 Normal termination of Gaussian 16 at Wed Apr  9 16:29:48 2025.
