 Gaussian 16, Revision C.01,

 ----------------------------------------------------------------------
 #t hf aug-cc-pvdz symm=none int=(grid=ultrafine) guess=(read,tcheck) s
 table=(opt,rrhf)
 ----------------------------------------------------------------------
 -----
 title
 -----
 Symbolic Z-matrix:
 Charge =  0 Multiplicity = 1

 SCF Done:  E(RHF) =  -338.539130861     A.U. after   16 cycles
 Normal termination of Gaussian 16 at Wed Apr  9 19:05:53 2025.
 Gaussian 16:  ES64L-G16RevC.01  3-Jul-2019

 ----------------------------------------------------------------------
 #t hf aug-cc-pvdz iop(5/13=1,5/36=2,99/5=2) pseudo=read geom=check gue
 ss=(read,tcheck) scf=(maxcycle=1)
 ----------------------------------------------------------------------
 -----
 title
 -----
 Structure from the checkpoint file:  "Grambow2020_wb97xd3_008560_reverse_mol2.chk"
 Charge =  0 Multiplicity = 1

                         Standard orientation:
 ---------------------------------------------------------------------
 Center     Atomic      Atomic             Coordinates (Angstroms)
 Number     Number       Type             X           Y           Z
 ---------------------------------------------------------------------
      1          7           0       -0.059111   -0.914564   -0.416555
      2          6           0        1.046326   -0.930544    0.424653
      3          8           0        1.929923    0.019677    0.347582
      4          6           0        1.969317    1.055868   -0.416868
      5          6           0       -1.889956    0.648057    0.756332
      6          6           0       -1.169140   -0.193517   -0.149751
      7          7           0       -2.275834    0.134948   -0.634421
      8          1           0       -0.017453   -1.353223   -1.327361
      9          1           0        1.249405   -1.685123    1.163367
     10          1           0        1.174223    1.240307   -1.124139
     11          1           0        2.822258    1.694854   -0.267119
     12          1           0       -2.418779    0.220368    1.604243
     13          1           0       -1.643711    1.703534    0.840985
 ---------------------------------------------------------------------

 SCF Done:  E(RHF) =  -338.885600775     A.U. after    2 cycles

 The electronic state is 1-A.
 Alpha  occ. eigenvalues --  -20.70143 -15.55637 -15.49608 -11.32446 -11.32320
 Alpha  occ. eigenvalues --  -11.30976 -11.27303  -1.62184  -1.32355  -1.25118
 Alpha  occ. eigenvalues --   -1.04546  -0.90424  -0.87822  -0.82329  -0.77818
 Alpha  occ. eigenvalues --   -0.76621  -0.67831  -0.66509  -0.65469  -0.64769
 Alpha  occ. eigenvalues --   -0.57473  -0.54851  -0.53939  -0.43186  -0.41011
 Alpha  occ. eigenvalues --   -0.27723
 Alpha virt. eigenvalues --    0.03249   0.03961   0.04115   0.04582   0.05635
 Alpha virt. eigenvalues --    0.06316   0.06506   0.09228   0.10033   0.10475
 Alpha virt. eigenvalues --    0.12252   0.13513   0.14343   0.14703   0.14917

 Mulliken charges:
               1
     1  N    0.650872
     2  C    0.384525
     3  O   -0.941678
     4  C    0.410336
     5  C    0.322019
     6  C   -1.570655
     7  N    0.707081
     8  H    0.283836
     9  H   -0.128893
    10  H    0.086209
    11  H   -0.096995
    12  H   -0.044610
    13  H   -0.062048
 Sum of Mulliken charges =  -0.00000

 Dipole moment (field-independent basis, Debye):
    X=              3.3062    Y=             -0.2045    Z=              0.9608  Tot=              3.4490

 Test job not archived.
 1\1\GINC-SE014\SP\RHF\Aug-CC-pVDZ\C4H6N2O1\OHZDE\09-Apr-2025\0\\#t hf
 aug-cc-pvdz iop(5/13=1,5/36=2,99/5=2) pseudo=read geom=check guess=(re
 ad,tcheck) scf=(maxcycle=1)\\title\\0,1\N,0,-0.53106883,0.7781703,-0.4
 9802042\C,0,-1.38872689,-0.04348186,0.22252514\O,0,-1.31077631,-1.3340
 2003,0.08821692\C,0,-0.52058405,-2.04624199,-0.63839453\C,0,1.73783024
 ,0.94124374,0.9144048\C,0,0.72602971,1.05682308,-0.09143367\N,0,1.7733
 9664,1.64394126,-0.44623081\H,0,-0.78463136,1.09922983,-1.42341311\H,0
 ,-2.1421359,0.30029128,0.90847237\H,0,0.23023024,-1.57069036,-1.252033

 Normal termination of Gaussian 16 at Wed Apr  9 19:05:58 2025.
