 Gaussian 16, Revision C.01,

 ----------------------------------------------------------------------
 #t hf aug-cc-pvdz symm=none int=(grid=ultrafine) guess=(read,tcheck) s
 table=(opt,rrhf)
 ----------------------------------------------------------------------
 -----
 title
 -----
 Symbolic Z-matrix:
 Charge =  0 Multiplicity = 1

 SCF Done:  E(RHF) =  -299.587408994     A.U. after   15 cycles
 Normal termination of Gaussian 16 at Wed Apr  9 16:17:40 2025.
 Gaussian 16:  ES64L-G16RevC.01  3-Jul-2019

 ----------------------------------------------------------------------
 #t hf aug-cc-pvdz iop(5/13=1,5/36=2,99/5=2) pseudo=read geom=check gue
 ss=(read,tcheck) scf=(maxcycle=1)
 ----------------------------------------------------------------------
 -----
 title
 -----
 Structure from the checkpoint file:  "Grambow2020_b97d3_007184_reverse_mol2.chk"
 Charge =  0 Multiplicity = 1

                         Standard orientation:
 ---------------------------------------------------------------------
 Center     Atomic      Atomic             Coordinates (Angstroms)
 Number     Number       Type             X           Y           Z
 ---------------------------------------------------------------------
      1          6           0       -2.122380    0.028470    0.001521
      2          6           0       -0.766385   -0.090316   -0.000134
      3          7           0        0.047696   -1.218872   -0.001282
      4          8           0        1.399442   -0.684019    0.000655
      5          6           0        1.368930    0.611902    0.000620
      6          7           0        0.118702    1.048645   -0.001163
      7          1           0       -2.746458   -0.858322   -0.000024
      8          1           0       -2.596944    1.006008   -0.000775
      9          1           0       -0.178338    2.018533   -0.001716
     10          1           0        2.280431    1.197186    0.002340
 ---------------------------------------------------------------------

 SCF Done:  E(RHF) =  -299.884610362     A.U. after    2 cycles

 The electronic state is 1-A.
 Alpha  occ. eigenvalues --  -20.65748 -15.61348 -15.51161 -11.43845 -11.32336
 Alpha  occ. eigenvalues --  -11.18757  -1.59650  -1.32102  -1.15138  -0.98156
 Alpha  occ. eigenvalues --   -0.94477  -0.87252  -0.80547  -0.71358  -0.70911
 Alpha  occ. eigenvalues --   -0.64151  -0.59330  -0.55088  -0.54329  -0.50676
 Alpha  occ. eigenvalues --   -0.46739  -0.28262
 Alpha virt. eigenvalues --    0.01206   0.03180   0.05146   0.05231   0.06878
 Alpha virt. eigenvalues --    0.08585   0.10054   0.10514   0.11992   0.12416
 Alpha virt. eigenvalues --    0.13084   0.14525   0.15460   0.16507   0.17967

 Mulliken charges:
               1
     1  C    0.783562
     2  C   -1.674535
     3  N    1.128740
     4  O   -1.297649
     5  C    0.456781
     6  N    0.705710
     7  H   -0.075128
     8  H   -0.164540
     9  H    0.028752
    10  H    0.108308
 Sum of Mulliken charges =   0.00000

 Dipole moment (field-independent basis, Debye):
    X=              3.5822    Y=              6.4263    Z=             -0.0017  Tot=              7.3573

 Test job not archived.
 1\1\GINC-SE220\SP\RHF\Aug-CC-pVDZ\C3H4N2O1\OHZDE\09-Apr-2025\0\\#t hf
 aug-cc-pvdz iop(5/13=1,5/36=2,99/5=2) pseudo=read geom=check guess=(re
 ad,tcheck) scf=(maxcycle=1)\\title\\0,1\C,0,-1.76661934,-0.36550364,-0
 .23128414\C,0,-0.41231173,-0.2679138,-0.32701121\N,0,0.4733113,-0.7918
 5542,-1.26377439\O,0,1.77888301,-0.33751097,-0.81395164\C,0,1.65963207
 ,0.37307692,0.26363191\N,0,0.3881764,0.4661669,0.62217518\H,0,-2.32552
 239,-0.92736296,-0.97143051\H,0,-2.30511812,0.1185382,0.57897422\H,0,0
 .0266288,0.96572178,1.42755939\H,0,2.524619,0.80289899,0.75398318\\Ver

 Normal termination of Gaussian 16 at Wed Apr  9 16:17:43 2025.
