 Gaussian 16, Revision C.01,

 ----------------------------------------------------------------------
 #t hf aug-cc-pvdz symm=none int=(grid=ultrafine) guess=(read,tcheck) s
 table=(opt,rrhf)
 ----------------------------------------------------------------------
 -----
 title
 -----
 Symbolic Z-matrix:
 Charge =  0 Multiplicity = 1

 SCF Done:  E(RHF) =  -269.843864857     A.U. after   16 cycles

 1\1\GINC-SE141\Stability\RHF\Aug-CC-pVDZ\C5H10O1\OHZDE\09-Apr-2025\0\\
 #t hf aug-cc-pvdz symm=none int=(grid=ultrafine) guess=(read,tcheck) s
 table=(opt,rrhf)\\title\\0,1\O,0,2.40113104,-0.49852789,1.17370595\C,0
 ,1.45184678,0.26988739,0.44897617\C,0,0.8209001,-0.48768998,-0.6319111
 6\C,0,-0.59885597,-0.72671697,-0.91714874\C,0,-1.43564525,-0.04460342,
 0.17189316\C,0,-1.01012071,1.35309188,0.11036431\H,0,1.97034132,-1.311
 02116,1.44842173\H,0,0.63803877,0.73953702,1.06081805\H,0,2.01096881,1
 .14259703,0.10585397\H,0,1.52296425,-1.14238529,-1.15000711\H,0,-0.811

 Normal termination of Gaussian 16 at Wed Apr  9 16:52:17 2025.
 Gaussian 16:  ES64L-G16RevC.01  3-Jul-2019

 ----------------------------------------------------------------------
 #t hf aug-cc-pvdz iop(5/13=1,5/36=2,99/5=2) pseudo=read geom=check gue
 ss=(read,tcheck) scf=(maxcycle=1)
 ----------------------------------------------------------------------
 -----
 title
 -----
 Structure from the checkpoint file:  "Grambow2020_wb97xd3_006156_forward_mol1.chk"
 Charge =  0 Multiplicity = 1

                         Standard orientation:
 ---------------------------------------------------------------------
 Center     Atomic      Atomic             Coordinates (Angstroms)
 Number     Number       Type             X           Y           Z
 ---------------------------------------------------------------------
      1          8           0       -2.399372   -0.204083    0.354762
      2          6           0       -1.156073   -0.424709   -0.295136
      3          6           0       -0.388829    0.807617   -0.476911
      4          6           0        0.983264    1.136963   -0.073063
      5          6           0        1.577989   -0.071216    0.660500
      6          6           0        1.453335   -1.159623   -0.308129
      7          1           0       -2.224106    0.284932    1.161818
      8          1           0       -0.483329   -1.181152    0.186959
      9          1           0       -1.420892   -0.919765   -1.231492
     10          1           0       -1.017916    1.656911   -0.746898
     11          1           0        1.035163    2.093442    0.466307
     12          1           0        1.644787    1.258937   -0.946472
     13          1           0        2.604807    0.179018    0.953081
     14          1           0        1.031555   -0.292962    1.584906
     15          1           0        1.404552   -2.194779    0.010843
     16          1           0        1.802242   -0.986113   -1.320709
 ---------------------------------------------------------------------

 SCF Done:  E(RHF) =  -270.132025148     A.U. after    2 cycles

 The electronic state is 1-A.
 Alpha  occ. eigenvalues --  -20.54171 -11.28941 -11.27234 -11.25698 -11.25078
 Alpha  occ. eigenvalues --  -11.24384  -1.44541  -1.11711  -1.00119  -0.93930
 Alpha  occ. eigenvalues --   -0.82731  -0.77896  -0.70250  -0.66440  -0.64230
 Alpha  occ. eigenvalues --   -0.60713  -0.58107  -0.57038  -0.53808  -0.51486
 Alpha  occ. eigenvalues --   -0.49988  -0.49106  -0.44171  -0.23563
 Alpha virt. eigenvalues --    0.01325   0.03251   0.03708   0.03912   0.04350
 Alpha virt. eigenvalues --    0.06222   0.06567   0.06726   0.06974   0.07343
 Alpha virt. eigenvalues --    0.09971   0.13504   0.13594   0.14214   0.14620

 Mulliken charges:
               1
     1  O   -1.240352
     2  C    0.639975
     3  C    0.182529
     4  C   -0.434140
     5  C   -0.128054
     6  C    0.066571
     7  H    0.315348
     8  H    0.095742
     9  H    0.158822
    10  H   -0.183688
    11  H    0.097276
    12  H    0.287418
    13  H    0.120353
    14  H    0.152395
    15  H   -0.021454
    16  H   -0.108741
 Sum of Mulliken charges =  -0.00000

 Dipole moment (field-independent basis, Debye):
    X=              1.7501    Y=              0.9307    Z=              0.7237  Tot=              2.1101

 Test job not archived.
 1\1\GINC-SE141\SP\RHF\Aug-CC-pVDZ\C5H10O1\OHZDE\09-Apr-2025\0\\#t hf a
 ug-cc-pvdz iop(5/13=1,5/36=2,99/5=2) pseudo=read geom=check guess=(rea
 d,tcheck) scf=(maxcycle=1)\\title\\0,1\O,0,2.40113104,-0.49852789,1.17
 370595\C,0,1.45184678,0.26988739,0.44897617\C,0,0.8209001,-0.48768998,
 -0.63191116\C,0,-0.59885597,-0.72671697,-0.91714874\C,0,-1.43564525,-0
 .04460342,0.17189316\C,0,-1.01012071,1.35309188,0.11036431\H,0,1.97034
 132,-1.31102116,1.44842173\H,0,0.63803877,0.73953702,1.06081805\H,0,2.
 01096881,1.14259703,0.10585397\H,0,1.52296425,-1.14238529,-1.15000711\

 Normal termination of Gaussian 16 at Wed Apr  9 16:52:21 2025.
