 Gaussian 16, Revision C.01,

 ----------------------------------------------------------------------
 #t hf aug-cc-pvdz symm=none int=(grid=ultrafine) guess=(read,tcheck) s
 table=(opt,rrhf)
 ----------------------------------------------------------------------
 -----
 title
 -----
 Symbolic Z-matrix:
 Charge =  0 Multiplicity = 1

 SCF Done:  E(RHF) =  -286.605919832     A.U. after   16 cycles
 Normal termination of Gaussian 16 at Wed Apr  9 18:43:49 2025.
 Gaussian 16:  ES64L-G16RevC.01  3-Jul-2019

 ----------------------------------------------------------------------
 #t hf aug-cc-pvdz iop(5/13=1,5/36=2,99/5=2) pseudo=read geom=check gue
 ss=(read,tcheck) scf=(maxcycle=1)
 ----------------------------------------------------------------------
 -----
 title
 -----
 Structure from the checkpoint file:  "Grambow2020_wb97xd3_007999_forward_mol1.chk"
 Charge =  0 Multiplicity = 1

                         Standard orientation:
 ---------------------------------------------------------------------
 Center     Atomic      Atomic             Coordinates (Angstroms)
 Number     Number       Type             X           Y           Z
 ---------------------------------------------------------------------
      1          6           0        2.646362   -0.310091    0.060306
      2          6           0        1.646895    0.604547    0.105526
      3          6           0        0.407213    0.709077   -0.029474
      4          6           0       -0.906518    1.383620    0.047432
      5          6           0       -1.687859    0.127364   -0.253149
      6          6           0       -0.614757   -0.889510   -0.488104
      7          7           0       -1.441401   -0.937425    0.704333
      8          1           0        3.041154   -0.708807    0.990149
      9          1           0        3.334818   -0.327594   -0.780116
     10          1           0        1.677548   -1.496762   -0.268116
     11          1           0       -1.021568    2.125046   -0.746046
     12          1           0       -1.116312    1.852225    1.010333
     13          1           0       -2.623137    0.137287   -0.800916
     14          1           0        0.795723   -1.497979   -0.346559
     15          1           0       -0.791779   -1.618507   -1.273246
     16          1           0       -2.154659   -1.652977    0.628974
 ---------------------------------------------------------------------

 SCF Done:  E(RHF) =  -286.915506024     A.U. after    2 cycles

 The electronic state is 1-A.
 Alpha  occ. eigenvalues --  -15.50426 -11.28097 -11.27912 -11.27119 -11.25891
 Alpha  occ. eigenvalues --  -11.25127 -11.22483  -1.28488  -1.09329  -1.03593
 Alpha  occ. eigenvalues --   -0.91958  -0.87810  -0.80803  -0.75050  -0.68134
 Alpha  occ. eigenvalues --   -0.65246  -0.64246  -0.62062  -0.59683  -0.55542
 Alpha  occ. eigenvalues --   -0.52713  -0.50479  -0.43973  -0.37307  -0.35669
 Alpha  occ. eigenvalues --   -0.34614
 Alpha virt. eigenvalues --    0.03188   0.03721   0.04229   0.04543   0.05285
 Alpha virt. eigenvalues --    0.05974   0.06394   0.07083   0.08991   0.09893
 Alpha virt. eigenvalues --    0.10505   0.11194   0.12804   0.12974   0.14019

 Mulliken charges:
               1
     1  C   -0.572371
     2  C   -0.429318
     3  C    0.773066
     4  C   -0.630739
     5  C   -0.148392
     6  C   -0.402353
     7  N    0.443799
     8  H    0.131020
     9  H    0.104269
    10  H   -0.238192
    11  H    0.259073
    12  H    0.231132
    13  H   -0.199200
    14  H    0.774631
    15  H   -0.265539
    16  H    0.169112
 Sum of Mulliken charges =   0.00000

 Dipole moment (field-independent basis, Debye):
    X=             -0.9080    Y=             -0.5987    Z=             -1.7173  Tot=              2.0327

 Test job not archived.
 1\1\GINC-SE131\SP\RHF\Aug-CC-pVDZ\C6H9N1\OHZDE\09-Apr-2025\0\\#t hf au
 g-cc-pvdz iop(5/13=1,5/36=2,99/5=2) pseudo=read geom=check guess=(read
 ,tcheck) scf=(maxcycle=1)\\title\\0,1\C,0,1.97639772,1.24721936,1.1963
 9125\C,0,1.67268093,0.10918385,0.52544232\C,0,0.69732888,-0.53148444,0
 .07356072\C,0,0.02369999,-1.58623631,-0.71417882\C,0,-1.3511737,-0.988
 51404,-0.53677237\C,0,-1.09570943,0.18746327,0.35350758\N,0,-1.4493320
 8,0.37008119,-1.04260948\H,0,2.34185749,2.10668228,0.64213002\H,0,2.28
 326112,1.20344072,2.23778707\H,0,0.48041077,1.70084167,1.30079079\H,0,

 Normal termination of Gaussian 16 at Wed Apr  9 18:43:55 2025.
