 Gaussian 16, Revision C.01,

 ----------------------------------------------------------------------
 #t hf aug-cc-pvdz symm=none int=(grid=ultrafine) guess=(read,tcheck) s
 table=(opt,rrhf)
 ----------------------------------------------------------------------
 -----
 title
 -----
 Symbolic Z-matrix:
 Charge =  0 Multiplicity = 1

 SCF Done:  E(RHF) =  -320.732225471     A.U. after   14 cycles
 Normal termination of Gaussian 16 at Wed Apr  9 16:06:42 2025.
 Gaussian 16:  ES64L-G16RevC.01  3-Jul-2019

 ----------------------------------------------------------------------
 #t hf aug-cc-pvdz iop(5/13=1,5/36=2,99/5=2) pseudo=read geom=check gue
 ss=(read,tcheck) scf=(maxcycle=1)
 ----------------------------------------------------------------------
 -----
 title
 -----
 Structure from the checkpoint file:  "Grambow2020_b97d3_007121_forward_mol2.chk"
 Charge =  0 Multiplicity = 1

                         Standard orientation:
 ---------------------------------------------------------------------
 Center     Atomic      Atomic             Coordinates (Angstroms)
 Number     Number       Type             X           Y           Z
 ---------------------------------------------------------------------
      1          6           0        2.154767   -0.585619   -0.000611
      2          7           0        0.704068   -0.615762    0.000541
      3          6           0       -0.067695    0.502668    0.000532
      4          8           0        0.322442    1.672173    0.000333
      5          6           0       -1.568482    0.183584   -0.000529
      6          8           0       -2.024910   -0.946616    0.000077
      7          1           0        2.458606    0.466127   -0.008567
      8          1           0        2.560060   -1.073830    0.897452
      9          1           0        2.558101   -1.087152   -0.892146
     10          1           0        0.204331   -1.501955    0.002588
     11          1           0       -2.201374    1.098893   -0.002748
 ---------------------------------------------------------------------

 SCF Done:  E(RHF) =  -321.051794807     A.U. after    2 cycles

 The electronic state is 1-A.
 Alpha  occ. eigenvalues --  -20.59115 -20.53897 -15.54822 -11.38348 -11.37672
 Alpha  occ. eigenvalues --  -11.28601  -1.50919  -1.47081  -1.25790  -1.01114
 Alpha  occ. eigenvalues --   -0.92085  -0.83001  -0.75497  -0.69844  -0.66196
 Alpha  occ. eigenvalues --   -0.65878  -0.63258  -0.58385  -0.57325  -0.52957
 Alpha  occ. eigenvalues --   -0.50285  -0.43122  -0.43016
 Alpha virt. eigenvalues --    0.03216   0.04717   0.05053   0.05291   0.05468
 Alpha virt. eigenvalues --    0.06814   0.08866   0.10417   0.10726   0.12633
 Alpha virt. eigenvalues --    0.13270   0.13876   0.14618   0.16375   0.17193

 Mulliken charges:
               1
     1  C   -0.430153
     2  N    0.529876
     3  C    0.608385
     4  O   -1.276199
     5  C    1.012137
     6  O   -1.177459
     7  H    0.081233
     8  H    0.152801
     9  H    0.151620
    10  H    0.141647
    11  H    0.206110
 Sum of Mulliken charges =  -0.00000

 Dipole moment (field-independent basis, Debye):
    X=              1.0927    Y=             -1.6211    Z=             -0.0007  Tot=              1.9550

 Test job not archived.
 1\1\GINC-SE125\SP\RHF\Aug-CC-pVDZ\C3H5N1O2\OHZDE\09-Apr-2025\0\\#t hf
 aug-cc-pvdz iop(5/13=1,5/36=2,99/5=2) pseudo=read geom=check guess=(re
 ad,tcheck) scf=(maxcycle=1)\\title\\0,1\C,0,-1.02766358,1.40523504,-0.
 02433147\N,0,0.09288592,0.48643592,-0.09926152\C,0,-0.0142837,-0.84602
 148,0.14481819\O,0,-1.03547639,-1.46249924,0.45637571\C,0,1.32295753,-
 1.58283176,-0.0070878\O,0,2.37021006,-1.0385321,-0.3115228\H,0,-1.9118
 6817,0.81906843,0.24611499\H,0,-0.85513574,2.17603619,0.74067051\H,0,-
 1.19948912,1.89617642,-0.99309458\H,0,1.02206915,0.82142496,-0.3431465

 Normal termination of Gaussian 16 at Wed Apr  9 16:06:46 2025.
