 Gaussian 16, Revision C.01,

 ----------------------------------------------------------------------
 #t hf aug-cc-pvdz symm=none int=(grid=ultrafine) guess=(read,tcheck) s
 table=(opt,rrhf)
 ----------------------------------------------------------------------
 -----
 title
 -----
 Symbolic Z-matrix:
 Charge =  0 Multiplicity = 1

 SCF Done:  E(RHF) =  -302.675140199     A.U. after   16 cycles
 Normal termination of Gaussian 16 at Wed Apr  9 18:12:19 2025.
 Gaussian 16:  ES64L-G16RevC.01  3-Jul-2019

 ----------------------------------------------------------------------
 #t hf aug-cc-pvdz iop(5/13=1,5/36=2,99/5=2) pseudo=read geom=check gue
 ss=(read,tcheck) scf=(maxcycle=1)
 ----------------------------------------------------------------------
 -----
 title
 -----
 Structure from the checkpoint file:  "Grambow2020_wb97xd3_007175_forward_mol1.chk"
 Charge =  0 Multiplicity = 1

                         Standard orientation:
 ---------------------------------------------------------------------
 Center     Atomic      Atomic             Coordinates (Angstroms)
 Number     Number       Type             X           Y           Z
 ---------------------------------------------------------------------
      1          6           0        1.731553    1.436950    0.394368
      2          6           0        1.540230   -0.640748   -0.338566
      3          6           0        0.718115   -1.336406    0.653503
      4          7           0        0.247085   -0.724312   -0.587745
      5          6           0       -0.592671    0.389769   -0.681257
      6          6           0       -1.885792    0.248180   -0.084731
      7          7           0       -2.905165    0.189175    0.446534
      8          1           0        2.428273    0.935335    1.067402
      9          1           0        1.329489    2.270767    0.982851
     10          1           0        2.284584    1.859355   -0.443512
     11          1           0        2.450758   -0.676232   -0.912028
     12          1           0        0.613258   -2.414234    0.698236
     13          1           0        0.528285   -0.798731    1.582330
     14          1           0        0.507100    1.137638    0.020958
     15          1           0       -0.603800    0.845595   -1.667666
 ---------------------------------------------------------------------

 SCF Done:  E(RHF) =  -302.992972007     A.U. after    2 cycles

 The electronic state is 1-A.
 Alpha  occ. eigenvalues --  -15.57840 -15.49377 -11.35285 -11.31763 -11.28754
 Alpha  occ. eigenvalues --  -11.26674 -11.23702  -1.37984  -1.21862  -1.07922
 Alpha  occ. eigenvalues --   -0.95991  -0.91705  -0.85416  -0.76703  -0.74115
 Alpha  occ. eigenvalues --   -0.70170  -0.61766  -0.60565  -0.57703  -0.56677
 Alpha  occ. eigenvalues --   -0.56136  -0.52914  -0.50441  -0.48804  -0.44288
 Alpha  occ. eigenvalues --   -0.32566
 Alpha virt. eigenvalues --    0.02346   0.03153   0.03561   0.04112   0.04866
 Alpha virt. eigenvalues --    0.06093   0.06319   0.07157   0.08568   0.08928
 Alpha virt. eigenvalues --    0.10685   0.12102   0.12705   0.13337   0.13755

 Mulliken charges:
               1
     1  C   -0.614704
     2  C   -0.272852
     3  C    0.234388
     4  N    0.833210
     5  C   -0.202466
     6  C   -1.859970
     7  N    0.943234
     8  H    0.115529
     9  H   -0.024747
    10  H    0.109707
    11  H   -0.241076
    12  H   -0.059929
    13  H   -0.000487
    14  H    1.118943
    15  H   -0.078781
 Sum of Mulliken charges =  -0.00000

 Dipole moment (field-independent basis, Debye):
    X=              6.6362    Y=             -0.9582    Z=             -1.0959  Tot=              6.7940

 Test job not archived.
 1\1\GINC-SE113\SP\RHF\Aug-CC-pVDZ\C5H8N2\OHZDE\09-Apr-2025\0\\#t hf au
 g-cc-pvdz iop(5/13=1,5/36=2,99/5=2) pseudo=read geom=check guess=(read
 ,tcheck) scf=(maxcycle=1)\\title\\0,1\C,0,-1.32756013,-1.06013908,-0.4
 4302781\C,0,-0.66515231,1.04835108,-0.52122396\C,0,-0.20001109,1.36757
 475,0.82998103\N,0,0.62981873,0.93625972,-0.29366248\C,0,1.32455842,-0
 .2742419,-0.37813852\C,0,2.31334411,-0.49791994,0.63197112\N,0,3.06483
 575,-0.73694886,1.47040463\H,0,-2.16753372,-0.58043198,0.06128942\H,0,
 -1.25978776,-2.05413179,0.01588861\H,0,-1.57279489,-1.19728301,-1.4953

 Normal termination of Gaussian 16 at Wed Apr  9 18:12:24 2025.
