 Gaussian 16, Revision C.01,

 ----------------------------------------------------------------------
 #t hf aug-cc-pvdz symm=none int=(grid=ultrafine) guess=(read,tcheck) s
 table=(opt,rrhf)
 ----------------------------------------------------------------------
 -----
 title
 -----
 Symbolic Z-matrix:
 Charge =  0 Multiplicity = 1

 SCF Done:  E(RHF) =  -344.819497542     A.U. after   14 cycles

 1\1\GINC-SE103\Stability\RHF\Aug-CC-pVDZ\C5H10O2\OHZDE\09-Apr-2025\0\\
 #t hf aug-cc-pvdz symm=none int=(grid=ultrafine) guess=(read,tcheck) s
 table=(opt,rrhf)\\title\\0,1\C,0,-2.22411782,-0.67709619,-0.54484042\C
 ,0,-1.13594323,0.37716035,-0.68604015\C,0,0.00956572,0.17498975,0.2763
 6898\O,0,0.74273101,-1.0567208,-0.04916079\C,0,1.22029661,1.08758028,0
 .09433647\C,0,2.12039907,-0.13655737,-0.13390874\O,0,2.68648661,-0.702
 92778,0.89525942\H,0,-3.01887948,-0.51873758,-1.27483407\H,0,-1.815392
 58,-1.67654253,-0.70072658\H,0,-2.67465504,-0.64819271,0.45009689\H,0,

 Normal termination of Gaussian 16 at Wed Apr  9 18:37:42 2025.
 Gaussian 16:  ES64L-G16RevC.01  3-Jul-2019

 ----------------------------------------------------------------------
 #t hf aug-cc-pvdz iop(5/13=1,5/36=2,99/5=2) pseudo=read geom=check gue
 ss=(read,tcheck) scf=(maxcycle=1)
 ----------------------------------------------------------------------
 -----
 title
 -----
 Structure from the checkpoint file:  "Grambow2020_wb97xd3_007830_reverse_mol1.chk"
 Charge =  0 Multiplicity = 1

                         Standard orientation:
 ---------------------------------------------------------------------
 Center     Atomic      Atomic             Coordinates (Angstroms)
 Number     Number       Type             X           Y           Z
 ---------------------------------------------------------------------
      1          6           0        2.698628   -0.544659   -0.035824
      2          6           0        1.674422    0.557709    0.190682
      3          6           0        0.336030    0.258009   -0.440335
      4          8           0       -0.302483   -0.885039    0.227763
      5          6           0       -0.798005    1.230795   -0.124930
      6          6           0       -1.621515    0.086995    0.486909
      7          8           0       -2.412370   -0.603556   -0.286464
      8          1           0        3.641737   -0.309691    0.459100
      9          1           0        2.336369   -1.494834    0.359380
     10          1           0        2.905055   -0.678678   -1.100318
     11          1           0        1.521741    0.722077    1.261880
     12          1           0        2.032381    1.505279   -0.225163
     13          1           0        0.455956    0.026051   -1.501609
     14          1           0       -1.257652   -1.195801   -0.411626
     15          1           0       -1.300728    1.672970   -0.982028
     16          1           0       -0.515264    2.004518    0.589322
     17          1           0       -1.838141    0.123768    1.561666
 ---------------------------------------------------------------------

 SCF Done:  E(RHF) =  -345.181349915     A.U. after    2 cycles

 The electronic state is 1-A.
 Alpha  occ. eigenvalues --  -20.57520 -20.49916 -11.36978 -11.31081 -11.24954
 Alpha  occ. eigenvalues --  -11.24651 -11.23255  -1.51862  -1.39323  -1.09081
 Alpha  occ. eigenvalues --   -1.03346  -0.91912  -0.84141  -0.78515  -0.73572
 Alpha  occ. eigenvalues --   -0.69890  -0.66036  -0.61729  -0.60619  -0.59221
 Alpha  occ. eigenvalues --   -0.56358  -0.54245  -0.52541  -0.50819  -0.49283
 Alpha  occ. eigenvalues --   -0.47445  -0.41414  -0.40384
 Alpha virt. eigenvalues --    0.03209   0.03269   0.03617   0.04474   0.06066
 Alpha virt. eigenvalues --    0.06257   0.06481   0.06874   0.07842   0.09269
 Alpha virt. eigenvalues --    0.11344   0.12609   0.13554   0.13730   0.14388

 Mulliken charges:
               1
     1  C   -0.332049
     2  C   -0.432637
     3  C    0.764190
     4  O   -1.542716
     5  C   -0.260309
     6  C    1.740571
     7  O   -1.490892
     8  H    0.135182
     9  H    0.187252
    10  H    0.166158
    11  H    0.174836
    12  H    0.181219
    13  H   -0.027536
    14  H    0.492114
    15  H    0.084789
    16  H    0.043343
    17  H    0.116484
 Sum of Mulliken charges =  -0.00000

 Dipole moment (field-independent basis, Debye):
    X=              3.0236    Y=              2.3218    Z=              0.4051  Tot=              3.8337

 Test job not archived.
 1\1\GINC-SE103\SP\RHF\Aug-CC-pVDZ\C5H10O2\OHZDE\09-Apr-2025\0\\#t hf a
 ug-cc-pvdz iop(5/13=1,5/36=2,99/5=2) pseudo=read geom=check guess=(rea
 d,tcheck) scf=(maxcycle=1)\\title\\0,1\C,0,-2.22411782,-0.67709619,-0.
 54484042\C,0,-1.13594323,0.37716035,-0.68604015\C,0,0.00956572,0.17498
 975,0.27636898\O,0,0.74273101,-1.0567208,-0.04916079\C,0,1.22029661,1.
 08758028,0.09433647\C,0,2.12039907,-0.13655737,-0.13390874\O,0,2.68648
 661,-0.70292778,0.89525942\H,0,-3.01887948,-0.51873758,-1.27483407\H,0
 ,-1.81539258,-1.67654253,-0.70072658\H,0,-2.67465504,-0.64819271,0.450

 Normal termination of Gaussian 16 at Wed Apr  9 18:37:48 2025.
