 Gaussian 16, Revision C.01,

 ----------------------------------------------------------------------
 #t hf aug-cc-pvdz symm=none int=(grid=ultrafine) guess=(read,tcheck) s
 table=(opt,rrhf)
 ----------------------------------------------------------------------
 -----
 title
 -----
 Symbolic Z-matrix:
 Charge =  0 Multiplicity = 1

 SCF Done:  E(RHF) =  -302.726034795     A.U. after   16 cycles
 Normal termination of Gaussian 16 at Wed Apr  9 19:13:05 2025.
 Gaussian 16:  ES64L-G16RevC.01  3-Jul-2019

 ----------------------------------------------------------------------
 #t hf aug-cc-pvdz iop(5/13=1,5/36=2,99/5=2) pseudo=read geom=check gue
 ss=(read,tcheck) scf=(maxcycle=1)
 ----------------------------------------------------------------------
 -----
 title
 -----
 Structure from the checkpoint file:  "Grambow2020_wb97xd3_008917_reverse_mol1.chk"
 Charge =  0 Multiplicity = 1

                         Standard orientation:
 ---------------------------------------------------------------------
 Center     Atomic      Atomic             Coordinates (Angstroms)
 Number     Number       Type             X           Y           Z
 ---------------------------------------------------------------------
      1          6           0        0.144333    1.570310    0.749966
      2          7           0       -0.032206    0.734458   -0.531634
      3          6           0       -1.419322    0.377464   -0.520815
      4          6           0       -1.584550   -0.815315    0.037059
      5          6           0       -0.236611   -1.216740    0.502268
      6          6           0        0.648519   -0.410295   -0.264640
      7          7           0        1.983715   -0.433646   -0.280193
      8          1           0        1.201875    1.825169    0.859117
      9          1           0       -0.403411    2.506656    0.615704
     10          1           0       -0.111645   -0.231389    1.363517
     11          1           0       -2.137955    1.101425   -0.871039
     12          1           0       -2.507123   -1.329744    0.250956
     13          1           0        0.006393   -2.201690    0.879475
     14          1           0        2.487669    0.386020   -0.567436
     15          1           0        2.489413   -1.194675    0.129468
 ---------------------------------------------------------------------

 SCF Done:  E(RHF) =  -303.044469297     A.U. after    2 cycles

 The electronic state is 1-A.
 Alpha  occ. eigenvalues --  -15.55783 -15.51460 -11.35629 -11.25970 -11.25733
 Alpha  occ. eigenvalues --  -11.23733 -11.20153  -1.33194  -1.23739  -1.06731
 Alpha  occ. eigenvalues --   -0.99571  -0.88032  -0.83630  -0.82134  -0.75016
 Alpha  occ. eigenvalues --   -0.72724  -0.66073  -0.64866  -0.59508  -0.55516
 Alpha  occ. eigenvalues --   -0.54389  -0.52228  -0.49485  -0.47278  -0.35138
 Alpha  occ. eigenvalues --   -0.26084
 Alpha virt. eigenvalues --    0.02257   0.03741   0.04333   0.05133   0.05755
 Alpha virt. eigenvalues --    0.06617   0.07018   0.07567   0.08524   0.09907
 Alpha virt. eigenvalues --    0.11367   0.11720   0.13136   0.13477   0.14153

 Mulliken charges:
               1
     1  C   -0.297008
     2  N    0.922900
     3  C   -0.317964
     4  C    0.760499
     5  C   -0.381094
     6  C   -2.217465
     7  N    0.999885
     8  H   -0.069388
     9  H   -0.037108
    10  H    0.798521
    11  H   -0.195853
    12  H   -0.139962
    13  H   -0.144743
    14  H    0.152096
    15  H    0.166683
 Sum of Mulliken charges =  -0.00000

 Dipole moment (field-independent basis, Debye):
    X=              2.1150    Y=             -3.2460    Z=             -0.7210  Tot=              3.9408

 Test job not archived.
 1\1\GINC-SE028\SP\RHF\Aug-CC-pVDZ\C5H8N2\OHZDE\09-Apr-2025\0\\#t hf au
 g-cc-pvdz iop(5/13=1,5/36=2,99/5=2) pseudo=read geom=check guess=(read
 ,tcheck) scf=(maxcycle=1)\\title\\0,1\C,0,-1.02478676,-1.00045174,0.80
 215593\N,0,-0.30047709,-0.7388646,-0.53173325\C,0,1.02442462,-1.234338
 68,-0.3063623\C,0,1.82408354,-0.25110257,0.08738741\C,0,0.94635206,0.9
 3516325,0.21723813\C,0,-0.18892162,0.61416211,-0.57653092\N,0,-1.24687
 919,1.3806594,-0.85355453\H,0,-2.0327388,-0.58137942,0.74155433\H,0,-1
 .12909696,-2.08227991,0.91860627\H,0,0.20401596,0.42726089,1.17601638\

 Normal termination of Gaussian 16 at Wed Apr  9 19:13:10 2025.
