 Gaussian 16, Revision C.01,

 ----------------------------------------------------------------------
 #t hf aug-cc-pvdz symm=none int=(grid=ultrafine) guess=(read,tcheck) s
 table=(opt,rrhf)
 ----------------------------------------------------------------------
 -----
 title
 -----
 Symbolic Z-matrix:
 Charge =  0 Multiplicity = 1

 SCF Done:  E(RHF) =  -317.713159987     A.U. after   14 cycles
 Normal termination of Gaussian 16 at Wed Apr  9 18:47:23 2025.
 Gaussian 16:  ES64L-G16RevC.01  3-Jul-2019

 ----------------------------------------------------------------------
 #t hf aug-cc-pvdz iop(5/13=1,5/36=2,99/5=2) pseudo=read geom=check gue
 ss=(read,tcheck) scf=(maxcycle=1)
 ----------------------------------------------------------------------
 -----
 title
 -----
 Structure from the checkpoint file:  "Grambow2020_wb97xd3_008059_reverse_mol2.chk"
 Charge =  0 Multiplicity = 1

                         Standard orientation:
 ---------------------------------------------------------------------
 Center     Atomic      Atomic             Coordinates (Angstroms)
 Number     Number       Type             X           Y           Z
 ---------------------------------------------------------------------
      1          7           0        2.826010    0.027952   -0.003759
      2          6           0        3.985196   -0.043848    0.014118
      3          6           0       -0.735725   -1.017630   -0.006981
      4          6           0       -2.187417   -0.688555    0.008290
      5          7           0       -2.209683    0.757421    0.008475
      6          6           0       -0.987145    1.104008   -0.003853
      7          7           0       -0.030025    0.049546   -0.013619
      8          1           0       -0.292038   -2.006765   -0.013327
      9          1           0       -2.715946   -1.087531   -0.863540
     10          1           0       -2.696666   -1.086927    0.891876
     11          1           0       -0.649113    2.132523   -0.006478
     12          1           0        1.800189    0.080417   -0.015651
 ---------------------------------------------------------------------

 SCF Done:  E(RHF) =  -318.031110440     A.U. after    2 cycles

 The electronic state is 1-A.
 Alpha  occ. eigenvalues --  -15.54913 -15.52605 -15.50977 -11.33917 -11.33497
 Alpha  occ. eigenvalues --  -11.30404 -11.26844  -1.36259  -1.24529  -1.20660
 Alpha  occ. eigenvalues --   -1.04846  -0.88498  -0.87275  -0.83129  -0.75712
 Alpha  occ. eigenvalues --   -0.68708  -0.66664  -0.62202  -0.54621  -0.53678
 Alpha  occ. eigenvalues --   -0.52820  -0.52723  -0.51385  -0.46950  -0.46000
 Alpha virt. eigenvalues --    0.02356   0.04000   0.04059   0.04190   0.04571
 Alpha virt. eigenvalues --    0.06058   0.08072   0.09144   0.09557   0.11041
 Alpha virt. eigenvalues --    0.11145   0.11275   0.11946   0.12996   0.13804

 Mulliken charges:
               1
     1  N    0.398259
     2  C   -0.791259
     3  C   -0.617838
     4  C   -0.396575
     5  N    0.678518
     6  C   -0.679794
     7  N    0.828957
     8  H   -0.085776
     9  H    0.165793
    10  H    0.166995
    11  H   -0.031766
    12  H    0.364486
 Sum of Mulliken charges =  -0.00000

 Dipole moment (field-independent basis, Debye):
    X=             -4.6154    Y=             -2.3796    Z=             -0.0317  Tot=              5.1928

 Test job not archived.
 1\1\GINC-SE041\SP\RHF\Aug-CC-pVDZ\C4H5N3\OHZDE\09-Apr-2025\0\\#t hf au
 g-cc-pvdz iop(5/13=1,5/36=2,99/5=2) pseudo=read geom=check guess=(read
 ,tcheck) scf=(maxcycle=1)\\title\\0,1\N,0,2.69295726,0.71593185,1.3667
 0195\C,0,3.75499741,0.8895906,1.80385078\C,0,-0.03577334,-0.69748969,-
 0.7154784\C,0,-1.4736721,-0.78286019,-1.09110196\N,0,-2.11256504,0.174
 84053,-0.21590753\C,0,-1.16872755,0.66145253,0.48212751\N,0,0.13777808
 ,0.16014422,0.21793616\H,0,0.7843241,-1.26155005,-1.14508538\H,0,-1.64
 731801,-0.52881207,-2.14177798\H,0,-1.8860233,-1.78576043,-0.93971274\

 Normal termination of Gaussian 16 at Wed Apr  9 18:47:27 2025.
