 Gaussian 16, Revision C.01,

 ----------------------------------------------------------------------
 #t hf aug-cc-pvdz symm=none int=(grid=ultrafine) guess=(read,tcheck) s
 table=(opt,rrhf)
 ----------------------------------------------------------------------
 -----
 title
 -----
 Symbolic Z-matrix:
 Charge =  0 Multiplicity = 1

 SCF Done:  E(RHF) =  -338.655683023     A.U. after   15 cycles
 Normal termination of Gaussian 16 at Wed Apr  9 19:05:47 2025.
 Gaussian 16:  ES64L-G16RevC.01  3-Jul-2019

 ----------------------------------------------------------------------
 #t hf aug-cc-pvdz iop(5/13=1,5/36=2,99/5=2) pseudo=read geom=check gue
 ss=(read,tcheck) scf=(maxcycle=1)
 ----------------------------------------------------------------------
 -----
 title
 -----
 Structure from the checkpoint file:  "Grambow2020_wb97xd3_008565_forward_mol1.chk"
 Charge =  0 Multiplicity = 1

                         Standard orientation:
 ---------------------------------------------------------------------
 Center     Atomic      Atomic             Coordinates (Angstroms)
 Number     Number       Type             X           Y           Z
 ---------------------------------------------------------------------
      1          7           0        1.962885    1.095276    0.130800
      2          6           0        2.100950   -0.111125   -0.199100
      3          8           0        1.129858   -1.023459   -0.081810
      4          6           0       -0.082350   -0.603467    0.544279
      5          6           0       -0.910853    0.237524   -0.405442
      6          6           0       -2.366863    0.566567    0.530499
      7          7           0       -2.720810   -0.076353   -0.400455
      8          1           0        2.818397    1.614692   -0.023800
      9          1           0        2.994655   -0.579535   -0.613964
     10          1           0        0.139826   -0.047323    1.454996
     11          1           0       -0.608821   -1.523764    0.788098
     12          1           0       -0.585801    1.268157   -0.489337
     13          1           0       -0.936942   -0.214009   -1.395345
 ---------------------------------------------------------------------

 SCF Done:  E(RHF) =  -338.996510737     A.U. after    2 cycles

 The electronic state is 1-A.
 Alpha  occ. eigenvalues --  -20.60195 -15.54954 -15.50112 -11.36442 -11.32394
 Alpha  occ. eigenvalues --  -11.31705 -11.27514  -1.53928  -1.29313  -1.22772
 Alpha  occ. eigenvalues --   -1.05697  -0.91730  -0.82282  -0.77677  -0.73662
 Alpha  occ. eigenvalues --   -0.69517  -0.67436  -0.64590  -0.59812  -0.57297
 Alpha  occ. eigenvalues --   -0.55619  -0.52729  -0.51461  -0.49799  -0.47365
 Alpha  occ. eigenvalues --   -0.44731
 Alpha virt. eigenvalues --    0.02879   0.04487   0.04891   0.05112   0.06514
 Alpha virt. eigenvalues --    0.06795   0.08775   0.09380   0.09978   0.10998
 Alpha virt. eigenvalues --    0.11584   0.12794   0.13672   0.14285   0.14633

 Mulliken charges:
               1
     1  N    0.612749
     2  C   -0.037523
     3  O   -1.225410
     4  C    0.482316
     5  C   -0.537648
     6  C   -0.665800
     7  N    0.449215
     8  H    0.058983
     9  H   -0.004858
    10  H    0.292433
    11  H    0.044286
    12  H    0.298226
    13  H    0.233032
 Sum of Mulliken charges =  -0.00000

 Dipole moment (field-independent basis, Debye):
    X=              4.0533    Y=             -0.7076    Z=             -0.8974  Tot=              4.2113

 Test job not archived.
 1\1\GINC-SE362\SP\RHF\Aug-CC-pVDZ\C4H6N2O1\OHZDE\09-Apr-2025\0\\#t hf
 aug-cc-pvdz iop(5/13=1,5/36=2,99/5=2) pseudo=read geom=check guess=(re
 ad,tcheck) scf=(maxcycle=1)\\title\\0,1\N,0,-1.7570096,1.01270905,-0.1
 4439888\C,0,-1.83983577,-0.1156821,0.4062141\O,0,-0.87090707,-1.036137
 14,0.3508056\C,0,0.26267574,-0.7362368,-0.46336739\C,0,1.17084245,0.25
 850049,0.23045038\C,0,2.51631066,0.41342587,-0.89646296\N,0,2.97556814
 ,-0.05461835,0.09111865\H,0,-2.60051948,1.55290302,0.00485432\H,0,-2.6
 7774281,-0.50132728,0.98880985\H,0,-0.06198121,-0.350239,-1.42963232\H

 Normal termination of Gaussian 16 at Wed Apr  9 19:05:51 2025.
