 Gaussian 16, Revision C.01,

 ----------------------------------------------------------------------
 #t hf aug-cc-pvdz symm=none int=(grid=ultrafine) guess=(read,tcheck) s
 table=(opt,rrhf)
 ----------------------------------------------------------------------
 -----
 title
 -----
 Symbolic Z-matrix:
 Charge =  0 Multiplicity = 1

 SCF Done:  E(RHF) =  -344.889327385     A.U. after   13 cycles

 1\1\GINC-SE362\Stability\RHF\Aug-CC-pVDZ\C5H10O2\OHZDE\09-Apr-2025\0\\
 #t hf aug-cc-pvdz symm=none int=(grid=ultrafine) guess=(read,tcheck) s
 table=(opt,rrhf)\\title\\0,1\C,0,2.15460571,0.46188527,-1.73439776\C,0
 ,1.15882317,-0.13393759,-1.09812745\C,0,0.44396349,-0.28066819,2.04260
 415\O,0,-0.75793349,0.1535602,1.44813019\C,0,-0.89175326,-0.16967944,0
 .10514988\C,0,-2.27504638,0.23573323,-0.33479304\O,0,0.05256512,0.5287
 4848,-0.68965577\H,0,3.00567573,-0.12037468,-2.05529199\H,0,1.31109659
 ,0.24383725,1.63091325\H,0,2.13417342,1.52252598,-1.94700999\H,0,1.168

 Normal termination of Gaussian 16 at Wed Apr  9 18:07:12 2025.
 Gaussian 16:  ES64L-G16RevC.01  3-Jul-2019

 ----------------------------------------------------------------------
 #t hf aug-cc-pvdz iop(5/13=1,5/36=2,99/5=2) pseudo=read geom=check gue
 ss=(read,tcheck) scf=(maxcycle=1)
 ----------------------------------------------------------------------
 -----
 title
 -----
 Structure from the checkpoint file:  "Grambow2020_wb97xd3_007111_reverse_mol2.chk"
 Charge =  0 Multiplicity = 1

                         Standard orientation:
 ---------------------------------------------------------------------
 Center     Atomic      Atomic             Coordinates (Angstroms)
 Number     Number       Type             X           Y           Z
 ---------------------------------------------------------------------
      1          6           0        2.818476   -0.035429   -0.170827
      2          6           0        1.603335   -0.070179    0.352291
      3          6           0       -0.908262    1.920644   -0.001620
      4          8           0       -1.450805    0.649106   -0.276117
      5          6           0       -0.748282   -0.413515    0.274597
      6          6           0       -1.530400   -1.674422    0.010376
      7          8           0        0.531860   -0.548753   -0.320552
      8          1           0        3.641754    0.339179    0.419259
      9          1           0        0.062275    2.059308   -0.486744
     10          1           0        3.009197   -0.380201   -1.178467
     11          1           0        1.400820    0.271947    1.365913
     12          1           0       -1.609885    2.655990   -0.390915
     13          1           0       -0.792292    2.076353    1.078994
     14          1           0       -0.602875   -0.243395    1.354422
     15          1           0       -1.629647   -1.817209   -1.065602
     16          1           0       -1.013406   -2.533133    0.437064
     17          1           0       -2.523593   -1.594252    0.450522
 ---------------------------------------------------------------------

 SCF Done:  E(RHF) =  -345.249022549     A.U. after    2 cycles

 The electronic state is 1-A.
 Alpha  occ. eigenvalues --  -20.56952 -20.55383 -11.35068 -11.30286 -11.28514
 Alpha  occ. eigenvalues --  -11.22859 -11.21999  -1.52689  -1.46082  -1.06485
 Alpha  occ. eigenvalues --   -1.00832  -0.93103  -0.85044  -0.81385  -0.72046
 Alpha  occ. eigenvalues --   -0.70417  -0.66633  -0.62957  -0.62273  -0.57947
 Alpha  occ. eigenvalues --   -0.57394  -0.54735  -0.53830  -0.52133  -0.50455
 Alpha  occ. eigenvalues --   -0.48836  -0.44093  -0.34681
 Alpha virt. eigenvalues --    0.03434   0.04053   0.04157   0.04393   0.06020
 Alpha virt. eigenvalues --    0.06279   0.06504   0.07226   0.07494   0.09139
 Alpha virt. eigenvalues --    0.11945   0.12166   0.13451   0.14159   0.14433

 Mulliken charges:
               1
     1  C   -0.088302
     2  C    1.143960
     3  C    0.214952
     4  O   -1.436988
     5  C    1.704799
     6  C   -0.586434
     7  O   -1.566188
     8  H   -0.076044
     9  H    0.203411
    10  H   -0.143016
    11  H   -0.117256
    12  H   -0.043588
    13  H    0.169790
    14  H    0.080294
    15  H    0.201689
    16  H    0.165682
    17  H    0.173240
 Sum of Mulliken charges =  -0.00000

 Dipole moment (field-independent basis, Debye):
    X=             -0.1944    Y=              0.6419    Z=              1.7359  Tot=              1.8610

 Test job not archived.
 1\1\GINC-SE362\SP\RHF\Aug-CC-pVDZ\C5H10O2\OHZDE\09-Apr-2025\0\\#t hf a
 ug-cc-pvdz iop(5/13=1,5/36=2,99/5=2) pseudo=read geom=check guess=(rea
 d,tcheck) scf=(maxcycle=1)\\title\\0,1\C,0,2.15460571,0.46188527,-1.73
 439776\C,0,1.15882317,-0.13393759,-1.09812745\C,0,0.44396349,-0.280668
 19,2.04260415\O,0,-0.75793349,0.1535602,1.44813019\C,0,-0.89175326,-0.
 16967944,0.10514988\C,0,-2.27504638,0.23573323,-0.33479304\O,0,0.05256
 512,0.52874848,-0.68965577\H,0,3.00567573,-0.12037468,-2.05529199\H,0,
 1.31109659,0.24383725,1.63091325\H,0,2.13417342,1.52252598,-1.94700999

 Normal termination of Gaussian 16 at Wed Apr  9 18:07:17 2025.
