 Gaussian 16, Revision C.01,

 ----------------------------------------------------------------------
 #t hf aug-cc-pvdz symm=none int=(grid=ultrafine) guess=(read,tcheck) s
 table=(opt,rrhf)
 ----------------------------------------------------------------------
 -----
 title
 -----
 Symbolic Z-matrix:
 Charge =  0 Multiplicity = 1

 SCF Done:  E(RHF) =  -360.791649323     A.U. after   16 cycles
 Normal termination of Gaussian 16 at Wed Apr  9 17:39:51 2025.
 Gaussian 16:  ES64L-G16RevC.01  3-Jul-2019

 ----------------------------------------------------------------------
 #t hf aug-cc-pvdz iop(5/13=1,5/36=2,99/5=2) pseudo=read geom=check gue
 ss=(read,tcheck) scf=(maxcycle=1)
 ----------------------------------------------------------------------
 -----
 title
 -----
 Structure from the checkpoint file:  "Grambow2020_wb97xd3_006760_forward_mol1.chk"
 Charge =  0 Multiplicity = 1

                         Standard orientation:
 ---------------------------------------------------------------------
 Center     Atomic      Atomic             Coordinates (Angstroms)
 Number     Number       Type             X           Y           Z
 ---------------------------------------------------------------------
      1          6           0        2.614931   -0.788529    0.078289
      2          7           0        1.288481   -0.228554    0.042171
      3          6           0        1.049277    1.060813    0.006040
      4          8           0       -0.076131    1.582231   -0.057919
      5          6           0       -2.020913    0.588303   -0.013806
      6          6           0       -2.043609   -0.817548    0.363859
      7          8           0       -1.020233   -1.172302   -0.481536
      8          1           0        2.736353   -1.441335    0.944596
      9          1           0        2.812845   -1.373623   -0.822010
     10          1           0        3.359202    0.007979    0.141796
     11          1           0        1.931850    1.719256    0.040351
     12          1           0       -2.010696    1.415146    0.679943
     13          1           0       -2.221018    0.810651   -1.051878
     14          1           0       -1.839300   -0.968817    1.435964
     15          1           0       -3.016109   -1.295541    0.143724
     16          1           0        0.400304   -0.811504   -0.098332
 ---------------------------------------------------------------------

 SCF Done:  E(RHF) =  -361.165211072     A.U. after    2 cycles

 The electronic state is 1-A.
 Alpha  occ. eigenvalues --  -20.51913 -20.44684 -15.50354 -11.36242 -11.35293
 Alpha  occ. eigenvalues --  -11.27579 -11.27168  -1.45673  -1.34968  -1.23746
 Alpha  occ. eigenvalues --   -1.01865  -0.97088  -0.86520  -0.82101  -0.70768
 Alpha  occ. eigenvalues --   -0.70496  -0.68925  -0.63761  -0.63393  -0.59493
 Alpha  occ. eigenvalues --   -0.57456  -0.56691  -0.54780  -0.50567  -0.44555
 Alpha  occ. eigenvalues --   -0.40624  -0.36702  -0.35009
 Alpha virt. eigenvalues --    0.03021   0.03743   0.04617   0.04854   0.05365
 Alpha virt. eigenvalues --    0.05882   0.06116   0.07039   0.07956   0.09888
 Alpha virt. eigenvalues --    0.10914   0.11715   0.13027   0.13877   0.14084

 Mulliken charges:
               1
     1  C   -0.376574
     2  N    0.699472
     3  C    0.397371
     4  O   -1.177465
     5  C    0.352849
     6  C    0.497922
     7  O   -1.437520
     8  H    0.136898
     9  H    0.130211
    10  H    0.070111
    11  H   -0.000385
    12  H    0.089814
    13  H    0.043562
    14  H    0.087547
    15  H    0.094756
    16  H    0.391432
 Sum of Mulliken charges =   0.00000

 Dipole moment (field-independent basis, Debye):
    X=              0.1799    Y=              1.8226    Z=              1.5639  Tot=              2.4083

 Test job not archived.
 1\1\GINC-SE362\SP\RHF\Aug-CC-pVDZ\C4H9N1O2\OHZDE\09-Apr-2025\0\\#t hf
 aug-cc-pvdz iop(5/13=1,5/36=2,99/5=2) pseudo=read geom=check guess=(re
 ad,tcheck) scf=(maxcycle=1)\\title\\0,1\C,0,2.29503002,-0.56124062,-1.
 16848139\N,0,1.09462724,-0.07664865,-0.53717291\C,0,1.04937944,1.01737
 729,0.18535829\O,0,0.0302425,1.48553391,0.71893164\C,0,-1.97939955,0.6
 2999545,0.75646312\C,0,-2.12554635,-0.75030233,0.31716702\O,0,-1.38726
 982,-0.57700501,-0.82858949\H,0,2.51189974,-1.5839617,-0.8548006\H,0,2
 .19218735,-0.55077044,-2.25538348\H,0,3.14480729,0.06848779,-0.8969705

 Normal termination of Gaussian 16 at Wed Apr  9 17:39:55 2025.
