 Gaussian 16, Revision C.01,

 ----------------------------------------------------------------------
 #t hf aug-cc-pvdz symm=none int=(grid=ultrafine) guess=(read,tcheck) s
 table=(opt,rrhf)
 ----------------------------------------------------------------------
 -----
 title
 -----
 Symbolic Z-matrix:
 Charge =  0 Multiplicity = 1

 SCF Done:  E(RHF) =  -359.583885000     A.U. after   15 cycles
 Normal termination of Gaussian 16 at Wed Apr  9 17:24:29 2025.
 Gaussian 16:  ES64L-G16RevC.01  3-Jul-2019

 ----------------------------------------------------------------------
 #t hf aug-cc-pvdz iop(5/13=1,5/36=2,99/5=2) pseudo=read geom=check gue
 ss=(read,tcheck) scf=(maxcycle=1)
 ----------------------------------------------------------------------
 -----
 title
 -----
 Structure from the checkpoint file:  "Grambow2020_wb97xd3_006593_reverse_mol1.chk"
 Charge =  0 Multiplicity = 1

                         Standard orientation:
 ---------------------------------------------------------------------
 Center     Atomic      Atomic             Coordinates (Angstroms)
 Number     Number       Type             X           Y           Z
 ---------------------------------------------------------------------
      1          6           0        2.618970   -0.259179    0.189149
      2          7           0        1.558363    0.508934   -0.417938
      3          6           0        0.373296    0.287165    0.017109
      4          6           0       -0.784917    1.148329    0.018505
      5          8           0       -1.924747    0.587149   -0.021322
      6          6           0       -1.634933   -0.907203    0.124674
      7          8           0       -0.371353   -1.074762   -0.270643
      8          1           0        2.574477   -1.324657   -0.072487
      9          1           0        3.582236    0.121050   -0.153309
     10          1           0        2.611577   -0.192097    1.290727
     11          1           0       -0.739099    2.222320    0.161445
     12          1           0        0.180557    0.376250    1.228762
     13          1           0       -2.371113   -1.420569   -0.492696
     14          1           0       -1.812873   -1.058603    1.202229
 ---------------------------------------------------------------------

 SCF Done:  E(RHF) =  -359.949589443     A.U. after    2 cycles

 The electronic state is 1-A.
 Alpha  occ. eigenvalues --  -20.66408 -20.56563 -15.41129 -11.42553 -11.38859
 Alpha  occ. eigenvalues --  -11.35813 -11.22142  -1.61881  -1.47593  -1.19791
 Alpha  occ. eigenvalues --   -1.05750  -0.95593  -0.89723  -0.84808  -0.76112
 Alpha  occ. eigenvalues --   -0.75390  -0.67289  -0.66008  -0.62886  -0.60920
 Alpha  occ. eigenvalues --   -0.60029  -0.55779  -0.53541  -0.51350  -0.45077
 Alpha  occ. eigenvalues --   -0.38762  -0.33458
 Alpha virt. eigenvalues --    0.02717   0.03455   0.03973   0.04662   0.05815
 Alpha virt. eigenvalues --    0.06484   0.06967   0.07857   0.08143   0.10857
 Alpha virt. eigenvalues --    0.11392   0.13397   0.13888   0.14260   0.14889

 Mulliken charges:
               1
     1  C   -0.414330
     2  N    0.668330
     3  C   -0.938715
     4  C    1.417899
     5  O   -1.303902
     6  C    0.941218
     7  O   -1.250036
     8  H    0.135737
     9  H    0.031453
    10  H    0.166742
    11  H    0.024004
    12  H    0.272195
    13  H    0.052703
    14  H    0.196701
 Sum of Mulliken charges =  -0.00000

 Dipole moment (field-independent basis, Debye):
    X=             -5.2014    Y=              0.7653    Z=              2.4380  Tot=              5.7952

 Test job not archived.
 1\1\GINC-SE226\SP\RHF\Aug-CC-pVDZ\C4H7N1O2\OHZDE\09-Apr-2025\0\\#t hf
 aug-cc-pvdz iop(5/13=1,5/36=2,99/5=2) pseudo=read geom=check guess=(re
 ad,tcheck) scf=(maxcycle=1)\\title\\0,1\C,0,2.33400822,-0.15612782,-0.
 52738684\N,0,1.23466744,0.72597216,-0.83849682\C,0,0.0879007,0.3935316
 2,-0.3724065\C,0,-1.056669,1.21713453,-0.06467277\O,0,-2.20186934,0.67
 125413,-0.14373502\C,0,-1.91712936,-0.81088401,-0.38987841\O,0,-0.6930
 403,-0.86497057,-0.91871345\H,0,2.25613425,-1.12653252,-1.0352523\H,0,
 3.26925564,0.30534901,-0.84689102\H,0,2.41972512,-0.35869805,0.5541151

 Normal termination of Gaussian 16 at Wed Apr  9 17:24:34 2025.
