 Gaussian 16, Revision C.01,

 ----------------------------------------------------------------------
 #t hf aug-cc-pvdz symm=none int=(grid=ultrafine) guess=(read,tcheck) s
 table=(opt,rrhf)
 ----------------------------------------------------------------------
 -----
 title
 -----
 Symbolic Z-matrix:
 Charge =  0 Multiplicity = 1

 SCF Done:  E(RHF) =  -322.693074476     A.U. after   14 cycles
 Normal termination of Gaussian 16 at Wed Apr  9 03:39:30 2025.
 Gaussian 16:  ES64L-G16RevC.01  3-Jul-2019

 ----------------------------------------------------------------------
 #t hf aug-cc-pvdz iop(5/13=1,5/36=2,99/5=2) pseudo=read geom=check gue
 ss=(read,tcheck) scf=(maxcycle=1)
 ----------------------------------------------------------------------
 -----
 title
 -----
 Structure from the checkpoint file:  "Grambow2020_wb97xd3_007385_reverse_mol2.chk"
 Charge =  0 Multiplicity = 1

                         Standard orientation:
 ---------------------------------------------------------------------
 Center     Atomic      Atomic             Coordinates (Angstroms)
 Number     Number       Type             X           Y           Z
 ---------------------------------------------------------------------
      1          6           0        0.143675    1.375992    0.819596
      2          6           0        0.693315    0.871637   -0.474937
      3          6           0        1.434774   -0.452093   -0.544324
      4          8           0        1.250359   -1.288079    0.573012
      5          6           0       -2.091271   -1.271681   -0.025243
      6          7           0       -1.505712   -0.269930   -0.115383
      7          6           0       -0.794377    0.929614   -0.263764
      8          1           0        0.247247    0.712924    1.667840
      9          1           0        0.177157    2.434107    1.039576
     10          1           0        1.071848    1.609523   -1.173734
     11          1           0        2.503955   -0.236323   -0.590610
     12          1           0        1.165712   -0.969781   -1.472867
     13          1           0        0.416528   -1.755338    0.484713
     14          1           0       -1.362041    1.678219   -0.799300
 ---------------------------------------------------------------------

 SCF Done:  E(RHF) =  -323.020602832     A.U. after    2 cycles

 The electronic state is 1-A.
 Alpha  occ. eigenvalues --  -20.55298 -15.54627 -11.31246 -11.29959 -11.28711
 Alpha  occ. eigenvalues --  -11.26418 -11.25723  -1.46011  -1.29739  -1.18092
 Alpha  occ. eigenvalues --   -0.98887  -0.94681  -0.82412  -0.75847  -0.71217
 Alpha  occ. eigenvalues --   -0.70085  -0.63354  -0.61740  -0.58744  -0.56172
 Alpha  occ. eigenvalues --   -0.55423  -0.52360  -0.49005  -0.45859  -0.44693
 Alpha  occ. eigenvalues --   -0.42568
 Alpha virt. eigenvalues --    0.02763   0.03783   0.03959   0.04724   0.06007
 Alpha virt. eigenvalues --    0.06360   0.07187   0.08906   0.09419   0.11758
 Alpha virt. eigenvalues --    0.11874   0.12270   0.12537   0.13474   0.14066

 Mulliken charges:
               1
     1  C    0.430332
     2  C    0.314880
     3  C    0.572274
     4  O   -1.146187
     5  C   -0.557773
     6  N    1.152621
     7  C   -0.938382
     8  H   -0.033300
     9  H   -0.093412
    10  H   -0.126201
    11  H    0.072542
    12  H    0.200152
    13  H    0.339466
    14  H   -0.187012
 Sum of Mulliken charges =  -0.00000

 Dipole moment (field-independent basis, Debye):
    X=              1.0988    Y=              2.9759    Z=             -1.3483  Tot=              3.4470

 Test job not archived.
 1\1\GINC-SE187\SP\RHF\Aug-CC-pVDZ\C5H7N1O1\OHZDE\09-Apr-2025\0\\#t hf
 aug-cc-pvdz iop(5/13=1,5/36=2,99/5=2) pseudo=read geom=check guess=(re
 ad,tcheck) scf=(maxcycle=1)\\title\\0,1\C,0,-1.3052982,-0.40972504,0.4
 4548336\C,0,-0.56022626,0.50037556,-0.4758612\C,0,0.58610067,1.3570573
 3,0.03293076\O,0,1.09636642,0.97124562,1.28676474\C,0,1.80948914,-2.08
 917921,0.00227004\N,0,0.78888482,-1.59816808,-0.26565661\C,0,-0.423677
 64,-0.99001663,-0.62169471\H,0,-0.93201551,-0.46571683,1.4591051\H,0,-
 2.37273953,-0.53484006,0.32701137\H,0,-1.12696295,0.97429047,-1.269772

 Normal termination of Gaussian 16 at Wed Apr  9 03:39:35 2025.
