 Gaussian 16, Revision C.01,

 ----------------------------------------------------------------------
 #t hf aug-cc-pvdz symm=none int=(grid=ultrafine) guess=(read,tcheck) s
 table=(opt,rrhf)
 ----------------------------------------------------------------------
 -----
 title
 -----
 Symbolic Z-matrix:
 Charge =  0 Multiplicity = 1

 SCF Done:  E(RHF) =  -321.346950058     A.U. after   19 cycles
 Normal termination of Gaussian 16 at Wed Apr  9 18:53:32 2025.
 Gaussian 16:  ES64L-G16RevC.01  3-Jul-2019

 ----------------------------------------------------------------------
 #t hf aug-cc-pvdz iop(5/13=1,5/36=2,99/5=2) pseudo=read geom=check gue
 ss=(read,tcheck) scf=(maxcycle=1)
 ----------------------------------------------------------------------
 -----
 title
 -----
 Structure from the checkpoint file:  "Grambow2020_wb97xd3_008194_reverse_mol1.chk"
 Charge =  0 Multiplicity = 1

                         Standard orientation:
 ---------------------------------------------------------------------
 Center     Atomic      Atomic             Coordinates (Angstroms)
 Number     Number       Type             X           Y           Z
 ---------------------------------------------------------------------
      1          8           0       -1.596517   -1.359466   -0.609899
      2          6           0       -0.763160   -1.204297    0.516130
      3          6           0        0.048988    0.024998    0.648114
      4          6           0       -0.508939    1.208934    0.188642
      5          6           0       -0.996607    2.272608   -0.123462
      6          6           0        1.710815   -0.225346   -0.302445
      7          7           0        2.839403   -0.068500   -0.085032
      8          1           0       -2.116926   -0.559151   -0.724994
      9          1           0       -1.341930   -1.170381    1.459309
     10          1           0       -0.144220   -2.099345    0.571682
     11          1           0        0.945903   -0.510221   -1.034491
     12          1           0       -1.393090    3.232945   -0.358964
 ---------------------------------------------------------------------

 SCF Done:  E(RHF) =  -321.665738045     A.U. after    2 cycles

 The electronic state is 1-A.
 Alpha  occ. eigenvalues --  -20.57714 -15.52715 -11.32802 -11.32335 -11.29941
 Alpha  occ. eigenvalues --  -11.29369 -11.28236  -1.48272  -1.24031  -1.12089
 Alpha  occ. eigenvalues --   -1.03681  -0.90917  -0.82069  -0.76206  -0.72802
 Alpha  occ. eigenvalues --   -0.66520  -0.65028  -0.61422  -0.56743  -0.55910
 Alpha  occ. eigenvalues --   -0.52065  -0.48599  -0.47649  -0.45225  -0.35211
 Alpha virt. eigenvalues --   -0.01537   0.02430   0.03681   0.04504   0.05038
 Alpha virt. eigenvalues --    0.06361   0.08625   0.09493   0.10167   0.10611
 Alpha virt. eigenvalues --    0.10979   0.12149   0.13045   0.13775   0.14655

 Mulliken charges:
               1
     1  O   -1.138305
     2  C    0.994608
     3  C   -1.242296
     4  C    0.750632
     5  C    0.296744
     6  C   -1.175004
     7  N    0.890200
     8  H    0.318451
     9  H    0.237680
    10  H    0.127430
    11  H    0.300139
    12  H   -0.360280
 Sum of Mulliken charges =  -0.00000

 Dipole moment (field-independent basis, Debye):
    X=             -5.2537    Y=              1.2560    Z=             -0.5296  Tot=              5.4276

 Test job not archived.
 1\1\GINC-SE174\SP\RHF\Aug-CC-pVDZ\C5H5N1O1\OHZDE\09-Apr-2025\0\\#t hf
 aug-cc-pvdz iop(5/13=1,5/36=2,99/5=2) pseudo=read geom=check guess=(re
 ad,tcheck) scf=(maxcycle=1)\\title\\0,1\O,0,-1.69192969,-0.28979599,-0
 .92322892\C,0,-1.08270496,-0.78991361,0.24520255\C,0,0.22512031,-0.242
 54284,0.66727818\C,0,0.45257656,1.10728633,0.44294353\C,0,0.65314254,2
 .29719279,0.34033907\C,0,1.62525709,-1.21248792,-0.2419687\N,0,2.61882
 972,-1.73396232,0.05206734\H,0,-1.68734376,0.67117142,-0.89010681\H,0,
 -1.69050777,-0.58943698,1.14858317\H,0,-1.04595736,-1.87365868,0.13828

 Normal termination of Gaussian 16 at Wed Apr  9 18:53:36 2025.
