 Gaussian 16, Revision C.01,

 ----------------------------------------------------------------------
 #t hf aug-cc-pvdz symm=none int=(grid=ultrafine) guess=(read,tcheck) s
 table=(opt,rrhf)
 ----------------------------------------------------------------------
 -----
 title
 -----
 Symbolic Z-matrix:
 Charge =  0 Multiplicity = 1

 SCF Done:  E(RHF) =  -355.801933392     A.U. after   16 cycles
 Normal termination of Gaussian 16 at Wed Apr  9 03:58:40 2025.
 Gaussian 16:  ES64L-G16RevC.01  3-Jul-2019

 ----------------------------------------------------------------------
 #t hf aug-cc-pvdz iop(5/13=1,5/36=2,99/5=2) pseudo=read geom=check gue
 ss=(read,tcheck) scf=(maxcycle=1)
 ----------------------------------------------------------------------
 -----
 title
 -----
 Structure from the checkpoint file:  "Grambow2020_wb97xd3_008712_forward_mol1.chk"
 Charge =  0 Multiplicity = 1

                         Standard orientation:
 ---------------------------------------------------------------------
 Center     Atomic      Atomic             Coordinates (Angstroms)
 Number     Number       Type             X           Y           Z
 ---------------------------------------------------------------------
      1          6           0        2.330832   -0.867987   -0.138145
      2          7           0        0.970687   -0.768475    0.338476
      3          6           0        0.310314    0.278103    0.061024
      4          7           0        0.798290    1.478641   -0.441293
      5          6           0       -1.321566    0.092558   -0.245136
      6          8           0       -0.983000    0.441980    0.957880
      7          7           0       -2.378329   -0.682998   -0.403019
      8          1           0        3.040339   -0.476301    0.601502
      9          1           0        2.498602   -0.329606   -1.078456
     10          1           0        2.582317   -1.918937   -0.289199
     11          1           0        0.079866    2.153355   -0.646232
     12          1           0        1.529322    1.865197    0.137784
     13          1           0       -2.640236   -1.000290   -1.317081
     14          1           0       -2.878227   -1.035479    0.403032
 ---------------------------------------------------------------------

 SCF Done:  E(RHF) =  -356.165485451     A.U. after    2 cycles

 The electronic state is 1-A.
 Alpha  occ. eigenvalues --  -20.58266 -15.55076 -15.51402 -15.44806 -11.39028
 Alpha  occ. eigenvalues --  -11.34465 -11.23819  -1.53430  -1.26005  -1.24028
 Alpha  occ. eigenvalues --   -1.16639  -0.94820  -0.87426  -0.82803  -0.77428
 Alpha  occ. eigenvalues --   -0.75490  -0.70988  -0.67953  -0.64582  -0.60448
 Alpha  occ. eigenvalues --   -0.57756  -0.55524  -0.51543  -0.48976  -0.44000
 Alpha  occ. eigenvalues --   -0.43023  -0.33497
 Alpha virt. eigenvalues --    0.02702   0.04054   0.05359   0.05560   0.05800
 Alpha virt. eigenvalues --    0.06536   0.07362   0.09514   0.10079   0.11021
 Alpha virt. eigenvalues --    0.12549   0.13334   0.14142   0.14847   0.15629

 Mulliken charges:
               1
     1  C   -0.200508
     2  N    0.965636
     3  C   -1.376717
     4  N    0.559550
     5  C   -0.818984
     6  O   -1.212057
     7  N    1.037190
     8  H    0.121956
     9  H    0.176160
    10  H    0.036588
    11  H    0.174104
    12  H    0.175898
    13  H    0.178179
    14  H    0.183004
 Sum of Mulliken charges =   0.00000

 Dipole moment (field-independent basis, Debye):
    X=             -2.3467    Y=              1.3881    Z=             -1.4511  Tot=              3.0887

 Test job not archived.
 1\1\GINC-SE462\SP\RHF\Aug-CC-pVDZ\C3H7N3O1\OHZDE\09-Apr-2025\0\\#t hf
 aug-cc-pvdz iop(5/13=1,5/36=2,99/5=2) pseudo=read geom=check guess=(re
 ad,tcheck) scf=(maxcycle=1)\\title\\0,1\C,0,2.06479441,0.49022947,-0.5
 7934667\N,0,0.66953261,0.21802554,-0.83666661\C,0,0.00141123,-0.393224
 14,0.05124397\N,0,0.49042879,-1.07077817,1.16188203\C,0,-1.59564102,0.
 0556049,0.24915594\O,0,-1.36163371,-0.97683464,-0.50136278\N,0,-2.6132
 7774,0.83958165,-0.0557352\H,0,2.70297893,-0.31988377,-0.95395921\H,0,
 2.28842314,0.62526195,0.48552082\H,0,2.35865361,1.39479607,-1.11410207

 Normal termination of Gaussian 16 at Wed Apr  9 03:58:44 2025.
