 Gaussian 16, Revision C.01,

 ----------------------------------------------------------------------
 #t hf aug-cc-pvdz symm=none int=(grid=ultrafine) guess=(read,tcheck) s
 table=(opt,rrhf)
 ----------------------------------------------------------------------
 -----
 title
 -----
 Symbolic Z-matrix:
 Charge =  0 Multiplicity = 1

 SCF Done:  E(RHF) =  -323.870892207     A.U. after   13 cycles
 Normal termination of Gaussian 16 at Wed Apr  9 17:53:01 2025.
 Gaussian 16:  ES64L-G16RevC.01  3-Jul-2019

 ----------------------------------------------------------------------
 #t hf aug-cc-pvdz iop(5/13=1,5/36=2,99/5=2) pseudo=read geom=check gue
 ss=(read,tcheck) scf=(maxcycle=1)
 ----------------------------------------------------------------------
 -----
 title
 -----
 Structure from the checkpoint file:  "Grambow2020_wb97xd3_006863_reverse_mol2.chk"
 Charge =  0 Multiplicity = 1

                         Standard orientation:
 ---------------------------------------------------------------------
 Center     Atomic      Atomic             Coordinates (Angstroms)
 Number     Number       Type             X           Y           Z
 ---------------------------------------------------------------------
      1          6           0       -3.233693   -0.208722    0.191698
      2          7           0       -1.935570   -0.337414   -0.426455
      3          6           0       -0.949919    0.194570    0.145651
      4          6           0        0.413209    0.085637   -0.418424
      5          6           0        1.580141   -0.040442    0.459027
      6          8           0        1.274178    1.191816   -0.167096
      7          6           0        2.831704   -0.739451    0.019339
      8          1           0       -3.628131   -1.204678    0.402917
      9          1           0       -3.919268    0.263382   -0.514549
     10          1           0       -3.221317    0.374532    1.122047
     11          1           0       -1.036910    0.764121    1.083028
     12          1           0        1.394408   -0.037704    1.532895
     13          1           0        0.463530   -0.330912   -1.420724
     14          1           0        3.708544   -0.259872    0.458099
     15          1           0        2.816741   -1.782732    0.340592
     16          1           0        2.929317   -0.708322   -1.066101
 ---------------------------------------------------------------------

 SCF Done:  E(RHF) =  -324.208633365     A.U. after    2 cycles

 The electronic state is 1-A.
 Alpha  occ. eigenvalues --  -20.56369 -15.50420 -11.30176 -11.29572 -11.28657
 Alpha  occ. eigenvalues --  -11.25917 -11.24006  -1.50790  -1.24322  -1.02780
 Alpha  occ. eigenvalues --   -1.00523  -0.92067  -0.83535  -0.79903  -0.70252
 Alpha  occ. eigenvalues --   -0.69285  -0.64035  -0.61764  -0.60897  -0.58659
 Alpha  occ. eigenvalues --   -0.56406  -0.53546  -0.52961  -0.48621  -0.45843
 Alpha  occ. eigenvalues --   -0.43802  -0.41370
 Alpha virt. eigenvalues --    0.03522   0.03917   0.04077   0.04998   0.05582
 Alpha virt. eigenvalues --    0.05944   0.06095   0.07566   0.08451   0.10173
 Alpha virt. eigenvalues --    0.11013   0.12214   0.12243   0.14086   0.14217

 Mulliken charges:
               1
     1  C   -0.383553
     2  N    0.750297
     3  C   -1.192669
     4  C    1.674160
     5  C    0.522336
     6  O   -1.396148
     7  C   -0.561538
     8  H    0.114254
     9  H    0.115451
    10  H    0.128562
    11  H   -0.171278
    12  H   -0.102294
    13  H   -0.136830
    14  H    0.213388
    15  H    0.240125
    16  H    0.185737
 Sum of Mulliken charges =  -0.00000

 Dipole moment (field-independent basis, Debye):
    X=              0.3465    Y=             -0.9609    Z=              1.9136  Tot=              2.1691

 Test job not archived.
 1\1\GINC-SE114\SP\RHF\Aug-CC-pVDZ\C5H9N1O1\OHZDE\09-Apr-2025\0\\#t hf
 aug-cc-pvdz iop(5/13=1,5/36=2,99/5=2) pseudo=read geom=check guess=(re
 ad,tcheck) scf=(maxcycle=1)\\title\\0,1\C,0,2.34677102,-0.41784509,-2.
 17809305\N,0,1.01071469,-0.06858724,-1.75765208\C,0,0.61137022,-0.4861
 7484,-0.64052895\C,0,-0.73772439,-0.15026893,-0.13528223\C,0,-0.965556
 04,0.09048308,1.29219062\O,0,-1.34771221,-1.1343265,0.69394151\C,0,-2.
 0646105,0.98611779,1.78031853\H,0,2.91822184,0.49726049,-2.34587002\H,
 0,2.29375639,-0.94141459,-3.13451577\H,0,2.88433717,-1.04648875,-1.455

 Normal termination of Gaussian 16 at Wed Apr  9 17:53:06 2025.
