 Gaussian 16, Revision C.01,

 ----------------------------------------------------------------------
 #t hf aug-cc-pvdz symm=none int=(grid=ultrafine) guess=(read,tcheck) s
 table=(opt,rrhf)
 ----------------------------------------------------------------------
 -----
 title
 -----
 Symbolic Z-matrix:
 Charge =  0 Multiplicity = 1

 SCF Done:  E(RHF) =  -305.894046136     A.U. after   13 cycles
 Normal termination of Gaussian 16 at Wed Apr  9 15:48:49 2025.
 Gaussian 16:  ES64L-G16RevC.01  3-Jul-2019

 ----------------------------------------------------------------------
 #t hf aug-cc-pvdz iop(5/13=1,5/36=2,99/5=2) pseudo=read geom=check gue
 ss=(read,tcheck) scf=(maxcycle=1)
 ----------------------------------------------------------------------
 -----
 title
 -----
 Structure from the checkpoint file:  "Grambow2020_b97d3_006752_forward_mol2.chk"
 Charge =  0 Multiplicity = 1

                         Standard orientation:
 ---------------------------------------------------------------------
 Center     Atomic      Atomic             Coordinates (Angstroms)
 Number     Number       Type             X           Y           Z
 ---------------------------------------------------------------------
      1          6           0        2.510345    0.145622    0.031670
      2          6           0        1.259122   -0.732525   -0.032963
      3          6           0       -0.041853    0.049087   -0.012518
      4          8           0       -0.089940    1.275645   -0.019239
      5          6           0       -1.352787   -0.737400    0.015773
      6          8           0       -2.465248    0.115691    0.009691
      7          1           0        2.535845    0.847815   -0.810470
      8          1           0        3.415950   -0.474002   -0.000664
      9          1           0        2.525001    0.736655    0.955874
     10          1           0        1.233754   -1.455814    0.799500
     11          1           0        1.258360   -1.350998   -0.947072
     12          1           0       -1.362163   -1.420363   -0.855935
     13          1           0       -1.340213   -1.382437    0.916648
     14          1           0       -2.073994    1.019755    0.006731
 ---------------------------------------------------------------------

 SCF Done:  E(RHF) =  -306.211005491     A.U. after    2 cycles

 The electronic state is 1-A.
 Alpha  occ. eigenvalues --  -20.55633 -20.54969 -11.35624 -11.30681 -11.26672
 Alpha  occ. eigenvalues --  -11.24230  -1.48961  -1.44369  -1.07921  -0.98885
 Alpha  occ. eigenvalues --   -0.88410  -0.76773  -0.71797  -0.67065  -0.66040
 Alpha  occ. eigenvalues --   -0.62798  -0.60078  -0.57552  -0.53601  -0.53212
 Alpha  occ. eigenvalues --   -0.52065  -0.50186  -0.44773  -0.43160
 Alpha virt. eigenvalues --    0.02982   0.03861   0.03880   0.04746   0.06434
 Alpha virt. eigenvalues --    0.06781   0.06925   0.08260   0.10050   0.12184
 Alpha virt. eigenvalues --    0.12293   0.13452   0.14371   0.15019   0.15084

 Mulliken charges:
               1
     1  C   -0.300268
     2  C   -0.478699
     3  C    0.934163
     4  O   -1.392290
     5  C    0.603202
     6  O   -1.195635
     7  H    0.186253
     8  H    0.143038
     9  H    0.179826
    10  H    0.258234
    11  H    0.266221
    12  H    0.235834
    13  H    0.237847
    14  H    0.322276
 Sum of Mulliken charges =  -0.00000

 Dipole moment (field-independent basis, Debye):
    X=              2.4214    Y=             -2.5003    Z=              0.0008  Tot=              3.4806

 Test job not archived.
 1\1\GINC-SE009\SP\RHF\Aug-CC-pVDZ\C4H8O2\OHZDE\09-Apr-2025\0\\#t hf au
 g-cc-pvdz iop(5/13=1,5/36=2,99/5=2) pseudo=read geom=check guess=(read
 ,tcheck) scf=(maxcycle=1)\\title\\0,1\C,0,-2.08052044,0.31926786,-0.25
 258028\C,0,-0.821522,-0.50384531,0.02721704\C,0,0.46390437,0.3014706,-
 0.0276981\O,0,0.4899443,1.51573699,-0.20568797\C,0,1.78724539,-0.44350
 11,0.15033586\O,0,2.88155911,0.43122496,0.09833573\H,0,-2.17611927,1.1
 3999238,0.46866646\H,0,-2.97522446,-0.31321101,-0.18493936\H,0,-2.0419
 6811,0.76277571,-1.25532716\H,0,-0.7263507,-1.34395152,-0.68126706\H,0

 Normal termination of Gaussian 16 at Wed Apr  9 15:48:53 2025.
