 Gaussian 16, Revision C.01,

 ----------------------------------------------------------------------
 #t hf aug-cc-pvdz symm=none int=(grid=ultrafine) guess=(read,tcheck) s
 table=(opt,rrhf)
 ----------------------------------------------------------------------
 -----
 title
 -----
 Symbolic Z-matrix:
 Charge =  0 Multiplicity = 1

 SCF Done:  E(RHF) =  -338.587807673     A.U. after   15 cycles
 Normal termination of Gaussian 16 at Wed Apr  9 03:40:57 2025.
 Gaussian 16:  ES64L-G16RevC.01  3-Jul-2019

 ----------------------------------------------------------------------
 #t hf aug-cc-pvdz iop(5/13=1,5/36=2,99/5=2) pseudo=read geom=check gue
 ss=(read,tcheck) scf=(maxcycle=1)
 ----------------------------------------------------------------------
 -----
 title
 -----
 Structure from the checkpoint file:  "Grambow2020_wb97xd3_007489_forward_mol1.chk"
 Charge =  0 Multiplicity = 1

                         Standard orientation:
 ---------------------------------------------------------------------
 Center     Atomic      Atomic             Coordinates (Angstroms)
 Number     Number       Type             X           Y           Z
 ---------------------------------------------------------------------
      1          6           0        2.482867    0.323724    0.007593
      2          8           0        1.455207   -0.658818    0.017255
      3          6           0        0.215729   -0.153808   -0.004460
      4          6           0       -0.264215    1.134743   -0.086634
      5          7           0       -1.715868    0.926084   -0.074651
      6          6           0       -1.972459   -0.366208    0.032224
      7          7           0       -0.817442   -1.048547   -0.000344
      8          1           0        2.394954    0.957262   -0.877125
      9          1           0        3.422765   -0.223686   -0.003349
     10          1           0        2.420387    0.953782    0.897100
     11          1           0       -1.255663    1.690264    0.665814
     12          1           0       -2.943919   -0.832070    0.079640
     13          1           0       -0.718536   -2.048466   -0.067490
 ---------------------------------------------------------------------

 SCF Done:  E(RHF) =  -338.933671799     A.U. after    2 cycles

 The electronic state is 1-A.
 Alpha  occ. eigenvalues --  -20.57937 -15.59192 -15.52391 -11.32793 -11.32269
 Alpha  occ. eigenvalues --  -11.28719 -11.21221  -1.51576  -1.36401  -1.20892
 Alpha  occ. eigenvalues --   -1.03265  -0.95017  -0.90678  -0.83417  -0.78536
 Alpha  occ. eigenvalues --   -0.71523  -0.68430  -0.67549  -0.63106  -0.60814
 Alpha  occ. eigenvalues --   -0.54268  -0.51522  -0.49403  -0.47739  -0.36376
 Alpha  occ. eigenvalues --   -0.30848
 Alpha virt. eigenvalues --    0.02490   0.04185   0.04466   0.05490   0.06612
 Alpha virt. eigenvalues --    0.06740   0.07930   0.09257   0.10425   0.11507
 Alpha virt. eigenvalues --    0.12248   0.12361   0.13461   0.14785   0.15553

 Mulliken charges:
               1
     1  C    0.065584
     2  O   -1.496629
     3  C    0.672350
     4  C   -0.965691
     5  N    0.412659
     6  C   -0.305983
     7  N    0.825230
     8  H    0.218707
     9  H   -0.042079
    10  H    0.194274
    11  H    0.458157
    12  H   -0.039775
    13  H    0.003196
 Sum of Mulliken charges =   0.00000

 Dipole moment (field-independent basis, Debye):
    X=             -0.3430    Y=             -4.0449    Z=              1.1122  Tot=              4.2091

 Test job not archived.
 1\1\GINC-SE108\SP\RHF\Aug-CC-pVDZ\C4H6N2O1\OHZDE\09-Apr-2025\0\\#t hf
 aug-cc-pvdz iop(5/13=1,5/36=2,99/5=2) pseudo=read geom=check guess=(re
 ad,tcheck) scf=(maxcycle=1)\\title\\0,1\C,0,-2.28437817,-0.04936413,-0
 .06668621\O,0,-1.14604363,-0.74365392,0.42699746\C,0,0.02024367,-0.147
 76404,0.15040877\C,0,0.335481,1.03759585,-0.47649742\N,0,1.80038085,1.
 0454713,-0.40588525\C,0,2.21697927,-0.06022997,0.1866929\N,0,1.1531061
 3,-0.76485138,0.6018983\H,0,-2.3199018,0.96212375,0.34252641\H,0,-3.15
 025282,-0.62443544,0.25384413\H,0,-2.25275908,0.01455852,-1.15618766\H

 Normal termination of Gaussian 16 at Wed Apr  9 03:41:01 2025.
