 Gaussian 16, Revision C.01,

 ----------------------------------------------------------------------
 #t hf aug-cc-pvdz symm=none int=(grid=ultrafine) guess=(read,tcheck) s
 table=(opt,rrhf)
 ----------------------------------------------------------------------
 -----
 title
 -----
 Symbolic Z-matrix:
 Charge =  0 Multiplicity = 1

 SCF Done:  E(RHF) =  -320.641303506     A.U. after   15 cycles
 Normal termination of Gaussian 16 at Wed Apr  9 16:09:42 2025.
 Gaussian 16:  ES64L-G16RevC.01  3-Jul-2019

 ----------------------------------------------------------------------
 #t hf aug-cc-pvdz iop(5/13=1,5/36=2,99/5=2) pseudo=read geom=check gue
 ss=(read,tcheck) scf=(maxcycle=1)
 ----------------------------------------------------------------------
 -----
 title
 -----
 Structure from the checkpoint file:  "Grambow2020_b97d3_007134_reverse_mol2.chk"
 Charge =  0 Multiplicity = 1

                         Standard orientation:
 ---------------------------------------------------------------------
 Center     Atomic      Atomic             Coordinates (Angstroms)
 Number     Number       Type             X           Y           Z
 ---------------------------------------------------------------------
      1          8           0       -2.242275   -0.832793   -0.471017
      2          6           0       -1.378227   -0.076064   -0.098434
      3          7           0       -0.469373    0.138431    0.915074
      4          6           0       -0.618878    1.183718   -0.186098
      5          6           0        2.040399   -0.676170    0.216558
      6          8           0        2.348735    0.199812   -0.570278
      7          1           0       -0.762469    0.329607    1.876006
      8          1           0       -1.158947    2.107777    0.041735
      9          1           0        0.285480    1.297199   -0.788436
     10          1           0        1.528641   -1.613096   -0.099620
     11          1           0        2.281463   -0.615560    1.303006
 ---------------------------------------------------------------------

 SCF Done:  E(RHF) =  -320.961709787     A.U. after    2 cycles

 The electronic state is 1-A.
 Alpha  occ. eigenvalues --  -20.56138 -20.55821 -15.55174 -11.39716 -11.35646
 Alpha  occ. eigenvalues --  -11.31086  -1.49023  -1.47793  -1.31215  -0.95893
 Alpha  occ. eigenvalues --   -0.87302  -0.83591  -0.72289  -0.69361  -0.68622
 Alpha  occ. eigenvalues --   -0.64876  -0.64636  -0.56256  -0.55131  -0.52928
 Alpha  occ. eigenvalues --   -0.48778  -0.43040  -0.42555
 Alpha virt. eigenvalues --    0.02528   0.04089   0.04708   0.05576   0.06529
 Alpha virt. eigenvalues --    0.08439   0.09414   0.09990   0.10806   0.11754
 Alpha virt. eigenvalues --    0.12698   0.13495   0.14692   0.15247   0.15925

 Mulliken charges:
               1
     1  O   -1.071980
     2  C    0.548850
     3  N    0.311065
     4  C    0.114145
     5  C    0.532044
     6  O   -0.876649
     7  H    0.134482
     8  H   -0.004005
     9  H    0.011464
    10  H    0.178731
    11  H    0.121854
 Sum of Mulliken charges =   0.00000

 Dipole moment (field-independent basis, Debye):
    X=              0.3234    Y=              1.3489    Z=              2.8878  Tot=              3.2037

 Test job not archived.
 1\1\GINC-SE087\SP\RHF\Aug-CC-pVDZ\C3H5N1O2\OHZDE\09-Apr-2025\0\\#t hf
 aug-cc-pvdz iop(5/13=1,5/36=2,99/5=2) pseudo=read geom=check guess=(re
 ad,tcheck) scf=(maxcycle=1)\\title\\0,1\O,0,0.85801428,-1.92504738,-1.
 65718979\C,0,0.55555492,-1.34073344,-0.64470241\N,0,0.91393954,-0.2803
 6887,0.15929362\C,0,-0.21741694,-1.20306636,0.60225758\C,0,-0.64764138
 ,1.91153168,-0.29621567\O,0,-1.68837625,1.55682683,0.22587914\H,0,1.80
 692657,-0.25362774,0.65699137\H,0,-0.01733577,-1.93014767,1.39521949\H
 ,0,-1.18292531,-0.69460944,0.65533126\H,0,-0.41736891,1.71587164,-1.36

 Normal termination of Gaussian 16 at Wed Apr  9 16:09:46 2025.
