 Gaussian 16, Revision C.01,

 ----------------------------------------------------------------------
 #t hf aug-cc-pvdz symm=none int=(grid=ultrafine) guess=(read,tcheck) s
 table=(opt,rrhf)
 ----------------------------------------------------------------------
 -----
 title
 -----
 Symbolic Z-matrix:
 Charge =  0 Multiplicity = 1

 SCF Done:  E(RHF) =  -343.687656606     A.U. after   13 cycles
 Normal termination of Gaussian 16 at Wed Apr  9 03:28:47 2025.
 Gaussian 16:  ES64L-G16RevC.01  3-Jul-2019

 ----------------------------------------------------------------------
 #t hf aug-cc-pvdz iop(5/13=1,5/36=2,99/5=2) pseudo=read geom=check gue
 ss=(read,tcheck) scf=(maxcycle=1)
 ----------------------------------------------------------------------
 -----
 title
 -----
 Structure from the checkpoint file:  "Grambow2020_wb97xd3_006710_reverse_mol2.chk"
 Charge =  0 Multiplicity = 1

                         Standard orientation:
 ---------------------------------------------------------------------
 Center     Atomic      Atomic             Coordinates (Angstroms)
 Number     Number       Type             X           Y           Z
 ---------------------------------------------------------------------
      1          8           0        1.532207   -1.238840   -0.363454
      2          6           0        1.927717   -0.090780    0.335263
      3          6           0        1.101030    1.149833    0.131450
      4          8           0       -1.140955   -0.992587    0.122572
      5          6           0       -1.181566    0.255689   -0.554776
      6          6           0       -2.194951   -0.099540    0.441923
      7          6           0       -0.162018    1.292282   -0.250684
      8          1           0        0.665268   -1.506095   -0.041418
      9          1           0        1.998245   -0.282407    1.417242
     10          1           0        2.943953    0.132409    0.000497
     11          1           0        1.645375    2.067332    0.343113
     12          1           0       -1.467100    0.168125   -1.601413
     13          1           0       -3.180959   -0.423812    0.124217
     14          1           0       -2.133689    0.346537    1.430070
     15          1           0       -0.542371    2.304421   -0.364304
 ---------------------------------------------------------------------

 SCF Done:  E(RHF) =  -344.041546773     A.U. after    2 cycles

 The electronic state is 1-A.
 Alpha  occ. eigenvalues --  -20.57482 -20.52872 -11.30982 -11.30413 -11.28518
 Alpha  occ. eigenvalues --  -11.24861 -11.24621  -1.51919  -1.43847  -1.08331
 Alpha  occ. eigenvalues --   -0.97833  -0.93451  -0.86833  -0.76194  -0.72078
 Alpha  occ. eigenvalues --   -0.70286  -0.66860  -0.65048  -0.59779  -0.57732
 Alpha  occ. eigenvalues --   -0.56224  -0.53660  -0.50003  -0.47440  -0.45767
 Alpha  occ. eigenvalues --   -0.43023  -0.37032
 Alpha virt. eigenvalues --    0.03210   0.03567   0.03986   0.04705   0.05632
 Alpha virt. eigenvalues --    0.06470   0.06910   0.07487   0.10408   0.11986
 Alpha virt. eigenvalues --    0.12493   0.12836   0.13717   0.14196   0.14661

 Mulliken charges:
               1
     1  O   -1.207993
     2  C    0.516550
     3  C    0.014774
     4  O   -1.345877
     5  C    1.222006
     6  C    0.138242
     7  C    0.313661
     8  H    0.436983
     9  H    0.249601
    10  H    0.076512
    11  H   -0.179185
    12  H   -0.020778
    13  H   -0.010112
    14  H   -0.019517
    15  H   -0.184867
 Sum of Mulliken charges =  -0.00000

 Dipole moment (field-independent basis, Debye):
    X=             -1.9560    Y=              2.4237    Z=              0.9738  Tot=              3.2632

 Test job not archived.
 1\1\GINC-SE044\SP\RHF\Aug-CC-pVDZ\C5H8O2\OHZDE\09-Apr-2025\0\\#t hf au
 g-cc-pvdz iop(5/13=1,5/36=2,99/5=2) pseudo=read geom=check guess=(read
 ,tcheck) scf=(maxcycle=1)\\title\\0,1\O,0,1.73043546,0.94929433,0.9253
 8868\C,0,1.97835284,-0.18347187,0.1392257\C,0,0.86028958,-1.18226842,0
 .0111214\O,0,-0.77147673,1.45429514,-0.03797369\C,0,-1.23925132,0.1959
 4107,0.42718711\C,0,-1.91876256,0.90213336,-0.66189562\C,0,-0.45131033
 ,-1.03191026,0.1478882\H,0,1.03354576,1.46343978,0.50501462\H,0,2.3084
 9541,0.09408451,-0.87385994\H,0,2.82498724,-0.69521942,0.60392183\H,0,

 Normal termination of Gaussian 16 at Wed Apr  9 03:28:52 2025.
