 Gaussian 16, Revision C.01,

 ----------------------------------------------------------------------
 #t hf aug-cc-pvdz symm=none int=(grid=ultrafine) guess=(read,tcheck) s
 table=(opt,rrhf)
 ----------------------------------------------------------------------
 -----
 title
 -----
 Symbolic Z-matrix:
 Charge =  0 Multiplicity = 1

 SCF Done:  E(RHF) =  -308.838077789     A.U. after   16 cycles

 1\1\GINC-SE113\Stability\RHF\Aug-CC-pVDZ\C6H12O1\OHZDE\09-Apr-2025\0\\
 #t hf aug-cc-pvdz symm=none int=(grid=ultrafine) guess=(read,tcheck) s
 table=(opt,rrhf)\\title\\0,1\C,0,1.74434747,0.63021469,-1.53613855\C,0
 ,1.11476364,-0.33109104,0.15341096\O,0,1.11140524,1.26587369,-0.035222
 88\C,0,-0.33517779,1.21286684,-0.05208766\C,0,-0.40494033,-0.25446358,
 0.38972867\C,0,-0.809982,-0.39433166,1.85420282\C,0,-1.25241385,-1.163
 65571,-0.49003886\H,0,2.76874278,0.32701281,-1.37493739\H,0,1.21454314
 ,-0.08763389,-2.14822853\H,0,1.68546718,1.63650397,-1.97496298\H,0,1.6

 Normal termination of Gaussian 16 at Wed Apr  9 17:21:58 2025.
 Gaussian 16:  ES64L-G16RevC.01  3-Jul-2019

 ----------------------------------------------------------------------
 #t hf aug-cc-pvdz iop(5/13=1,5/36=2,99/5=2) pseudo=read geom=check gue
 ss=(read,tcheck) scf=(maxcycle=1)
 ----------------------------------------------------------------------
 -----
 title
 -----
 Structure from the checkpoint file:  "Grambow2020_wb97xd3_006580_forward_mol1.chk"
 Charge =  0 Multiplicity = 1

                         Standard orientation:
 ---------------------------------------------------------------------
 Center     Atomic      Atomic             Coordinates (Angstroms)
 Number     Number       Type             X           Y           Z
 ---------------------------------------------------------------------
      1          6           0        2.222705    0.505174   -0.221068
      2          6           0        0.428072   -0.093136   -0.993324
      3          8           0        1.205220   -0.856218    0.189738
      4          6           0        0.155304   -0.429008    1.090219
      5          6           0       -0.759891    0.082721   -0.029459
      6          6           0       -1.921576   -0.868593   -0.301112
      7          6           0       -1.263639    1.510027    0.137473
      8          1           0        2.739409    0.280903   -1.143034
      9          1           0        1.879057    1.530969   -0.203578
     10          1           0        2.849181    0.288153    0.655905
     11          1           0        0.251827   -0.849383   -1.766067
     12          1           0        0.523529    0.336470    1.780678
     13          1           0       -0.203080   -1.285112    1.665431
     14          1           0       -1.567860   -1.895615   -0.414917
     15          1           0       -2.437384   -0.587028   -1.222682
     16          1           0       -2.654916   -0.848040    0.512083
     17          1           0       -1.721404    1.862728   -0.789618
     18          1           0       -0.449110    2.193729    0.383321
     19          1           0       -2.016847    1.578860    0.928194
 ---------------------------------------------------------------------

 SCF Done:  E(RHF) =  -309.169359212     A.U. after    2 cycles

 The electronic state is 1-A.
 Alpha  occ. eigenvalues --  -20.56914 -11.33569 -11.28715 -11.22800 -11.21648
 Alpha  occ. eigenvalues --  -11.21552 -11.21447  -1.46454  -1.08265  -0.97128
 Alpha  occ. eigenvalues --   -0.93022  -0.90740  -0.88146  -0.70434  -0.67075
 Alpha  occ. eigenvalues --   -0.65432  -0.63529  -0.60459  -0.58951  -0.57126
 Alpha  occ. eigenvalues --   -0.55050  -0.54177  -0.52649  -0.49747  -0.48304
 Alpha  occ. eigenvalues --   -0.44294  -0.42801  -0.26879
 Alpha virt. eigenvalues --    0.03350   0.03656   0.03976   0.04330   0.05826
 Alpha virt. eigenvalues --    0.05942   0.06260   0.06621   0.07256   0.09435
 Alpha virt. eigenvalues --    0.09464   0.10010   0.11357   0.12807   0.13417

 Mulliken charges:
               1
     1  C    0.002037
     2  C    0.512989
     3  O   -1.280113
     4  C    0.924573
     5  C   -1.228901
     6  C   -0.120068
     7  C   -0.308036
     8  H    0.157033
     9  H    0.287179
    10  H    0.063273
    11  H   -0.164872
    12  H    0.129557
    13  H   -0.018757
    14  H    0.152889
    15  H    0.188984
    16  H    0.183259
    17  H    0.189316
    18  H    0.104248
    19  H    0.225412
 Sum of Mulliken charges =  -0.00000

 Dipole moment (field-independent basis, Debye):
    X=              0.6258    Y=              0.6949    Z=              1.4845  Tot=              1.7545

 Test job not archived.
 1\1\GINC-SE113\SP\RHF\Aug-CC-pVDZ\C6H12O1\OHZDE\09-Apr-2025\0\\#t hf a
 ug-cc-pvdz iop(5/13=1,5/36=2,99/5=2) pseudo=read geom=check guess=(rea
 d,tcheck) scf=(maxcycle=1)\\title\\0,1\C,0,1.74434747,0.63021469,-1.53
 613855\C,0,1.11476364,-0.33109104,0.15341096\O,0,1.11140524,1.26587369
 ,-0.03522288\C,0,-0.33517779,1.21286684,-0.05208766\C,0,-0.40494033,-0
 .25446358,0.38972867\C,0,-0.809982,-0.39433166,1.85420282\C,0,-1.25241
 385,-1.16365571,-0.49003886\H,0,2.76874278,0.32701281,-1.37493739\H,0,
 1.21454314,-0.08763389,-2.14822853\H,0,1.68546718,1.63650397,-1.974962

 Normal termination of Gaussian 16 at Wed Apr  9 17:22:05 2025.
