 Gaussian 16, Revision C.01,

 ----------------------------------------------------------------------
 #t hf aug-cc-pvdz symm=none int=(grid=ultrafine) guess=(read,tcheck) s
 table=(opt,rrhf)
 ----------------------------------------------------------------------
 -----
 title
 -----
 Symbolic Z-matrix:
 Charge =  0 Multiplicity = 1

 SCF Done:  E(RHF) =  -344.719651762     A.U. after   14 cycles

 1\1\GINC-SE412\Stability\RHF\Aug-CC-pVDZ\C5H10O2\OHZDE\09-Apr-2025\0\\
 #t hf aug-cc-pvdz symm=none int=(grid=ultrafine) guess=(read,tcheck) s
 table=(opt,rrhf)\\title\\0,1\C,0,-2.10927527,-0.39867171,0.65471567\C,
 0,-1.45439864,0.3908496,-0.44060753\O,0,-1.25537598,1.69640359,-0.2616
 6321\C,0,0.35020439,-0.40218606,-0.47133341\C,0,1.66338944,0.37970721,
 -0.70053394\C,0,2.01128369,-0.12145607,0.70463371\O,0,0.75849353,-0.82
 507187,0.81404233\H,0,-3.1408828,-0.04107173,0.70492132\H,0,-2.1148615
 7,-1.47110264,0.45429158\H,0,-1.62536861,-0.20083435,1.60895908\H,0,-1

 Normal termination of Gaussian 16 at Wed Apr  9 03:34:34 2025.
 Gaussian 16:  ES64L-G16RevC.01  3-Jul-2019

 ----------------------------------------------------------------------
 #t hf aug-cc-pvdz iop(5/13=1,5/36=2,99/5=2) pseudo=read geom=check gue
 ss=(read,tcheck) scf=(maxcycle=1)
 ----------------------------------------------------------------------
 -----
 title
 -----
 Structure from the checkpoint file:  "Grambow2020_wb97xd3_007057_forward_mol1.chk"
 Charge =  0 Multiplicity = 1

                         Standard orientation:
 ---------------------------------------------------------------------
 Center     Atomic      Atomic             Coordinates (Angstroms)
 Number     Number       Type             X           Y           Z
 ---------------------------------------------------------------------
      1          6           0        1.978566   -1.028219   -0.060073
      2          6           0        1.473537    0.336043    0.308269
      3          8           0        1.460011    1.289754   -0.622513
      4          6           0       -0.425038   -0.036838    0.686178
      5          6           0       -1.605332    0.891639    0.321236
      6          6           0       -2.058925   -0.297152   -0.531830
      7          8           0       -0.923921   -1.084291   -0.121090
      8          1           0        3.049234   -0.910358   -0.245523
      9          1           0        1.834898   -1.759048    0.737145
     10          1           0        1.503087   -1.376667   -0.974617
     11          1           0        1.737721    0.643955    1.333458
     12          1           0        0.346877    0.809387   -0.065764
     13          1           0       -0.293396   -0.296207    1.735957
     14          1           0       -2.246350    1.159228    1.157407
     15          1           0       -1.338744    1.792179   -0.235840
     16          1           0       -2.062964   -0.132885   -1.610823
     17          1           0       -2.995925   -0.766124   -0.225254
 ---------------------------------------------------------------------

 SCF Done:  E(RHF) =  -345.080916275     A.U. after    2 cycles

 The electronic state is 1-A.
 Alpha  occ. eigenvalues --  -20.56193 -20.48248 -11.35199 -11.31796 -11.30566
 Alpha  occ. eigenvalues --  -11.26340 -11.23411  -1.49630  -1.41549  -1.05418
 Alpha  occ. eigenvalues --   -1.02794  -0.95691  -0.83937  -0.76831  -0.74407
 Alpha  occ. eigenvalues --   -0.70310  -0.65626  -0.64781  -0.61732  -0.58385
 Alpha  occ. eigenvalues --   -0.57080  -0.55086  -0.53422  -0.50482  -0.49008
 Alpha  occ. eigenvalues --   -0.46300  -0.39208  -0.34165
 Alpha virt. eigenvalues --    0.02831   0.03447   0.03995   0.04613   0.05681
 Alpha virt. eigenvalues --    0.05904   0.06620   0.07984   0.08082   0.09993
 Alpha virt. eigenvalues --    0.11417   0.11684   0.12954   0.13653   0.14102

 Mulliken charges:
               1
     1  C   -0.360038
     2  C    1.134756
     3  O   -1.616637
     4  C    0.331423
     5  C   -0.287948
     6  C    0.628751
     7  O   -1.335820
     8  H    0.160349
     9  H    0.193222
    10  H    0.244113
    11  H    0.163158
    12  H    0.607368
    13  H   -0.016328
    14  H    0.011748
    15  H    0.089514
    16  H    0.037586
    17  H    0.014783
 Sum of Mulliken charges =  -0.00000

 Dipole moment (field-independent basis, Debye):
    X=             -2.5109    Y=             -1.0428    Z=              2.5098  Tot=              3.7001

 Test job not archived.
 1\1\GINC-SE412\SP\RHF\Aug-CC-pVDZ\C5H10O2\OHZDE\09-Apr-2025\0\\#t hf a
 ug-cc-pvdz iop(5/13=1,5/36=2,99/5=2) pseudo=read geom=check guess=(rea
 d,tcheck) scf=(maxcycle=1)\\title\\0,1\C,0,-2.10927527,-0.39867171,0.6
 5471567\C,0,-1.45439864,0.3908496,-0.44060753\O,0,-1.25537598,1.696403
 59,-0.26166321\C,0,0.35020439,-0.40218606,-0.47133341\C,0,1.66338944,0
 .37970721,-0.70053394\C,0,2.01128369,-0.12145607,0.70463371\O,0,0.7584
 9353,-0.82507187,0.81404233\H,0,-3.1408828,-0.04107173,0.70492132\H,0,
 -2.11486157,-1.47110264,0.45429158\H,0,-1.62536861,-0.20083435,1.60895

 Normal termination of Gaussian 16 at Wed Apr  9 03:34:40 2025.
