 Gaussian 16, Revision C.01,

 ----------------------------------------------------------------------
 #t hf aug-cc-pvdz symm=none int=(grid=ultrafine) guess=(read,tcheck) s
 table=(opt,rrhf)
 ----------------------------------------------------------------------
 -----
 title
 -----
 Symbolic Z-matrix:
 Charge =  0 Multiplicity = 1

 SCF Done:  E(RHF) =  -284.738483863     A.U. after   16 cycles
 Normal termination of Gaussian 16 at Wed Apr  9 03:06:53 2025.
 Gaussian 16:  ES64L-G16RevC.01  3-Jul-2019

 ----------------------------------------------------------------------
 #t hf aug-cc-pvdz iop(5/13=1,5/36=2,99/5=2) pseudo=read geom=check gue
 ss=(read,tcheck) scf=(maxcycle=1)
 ----------------------------------------------------------------------
 -----
 title
 -----
 Structure from the checkpoint file:  "Grambow2020_b97d3_006534_reverse_mol2.chk"
 Charge =  0 Multiplicity = 1

                         Standard orientation:
 ---------------------------------------------------------------------
 Center     Atomic      Atomic             Coordinates (Angstroms)
 Number     Number       Type             X           Y           Z
 ---------------------------------------------------------------------
      1          6           0       -1.394333    0.161097   -0.283624
      2          6           0       -0.824212   -1.189251   -0.037070
      3          8           0        0.530087   -1.270771    0.097758
      4          6           0        1.369189   -0.265928   -0.069938
      5          7           0        0.919929    1.044217   -0.082852
      6          6           0       -0.457370    1.243018    0.360172
      7          1           0       -1.455527    0.407270   -1.359423
      8          1           0       -2.418656    0.229080    0.115008
      9          1           0       -1.309808   -1.950518    0.566182
     10          1           0        1.187556    1.595341   -0.897713
     11          1           0        2.417680   -0.528235    0.010814
     12          1           0       -0.764002    2.260089    0.092906
     13          1           0       -0.497087    1.150001    1.452891
 ---------------------------------------------------------------------

 SCF Done:  E(RHF) =  -285.031579833     A.U. after    2 cycles

 The electronic state is 1-A.
 Alpha  occ. eigenvalues --  -20.64894 -15.53510 -11.34696 -11.27595 -11.23484
 Alpha  occ. eigenvalues --  -11.23444  -1.55590  -1.24434  -1.05403  -0.93610
 Alpha  occ. eigenvalues --   -0.90976  -0.79282  -0.74751  -0.68398  -0.66068
 Alpha  occ. eigenvalues --   -0.63493  -0.59524  -0.59379  -0.57545  -0.52309
 Alpha  occ. eigenvalues --   -0.48755  -0.43811  -0.22522
 Alpha virt. eigenvalues --    0.03004   0.04204   0.04516   0.05231   0.05548
 Alpha virt. eigenvalues --    0.06545   0.06674   0.07372   0.10876   0.11745
 Alpha virt. eigenvalues --    0.12770   0.13998   0.14256   0.15221   0.15477

 Mulliken charges:
               1
     1  C   -0.582977
     2  C    0.881366
     3  O   -1.155731
     4  C    0.246630
     5  N    0.597242
     6  C   -0.603116
     7  H    0.208138
     8  H    0.174932
     9  H   -0.127066
    10  H    0.266003
    11  H   -0.045003
    12  H    0.056606
    13  H    0.082976
 Sum of Mulliken charges =  -0.00000

 Dipole moment (field-independent basis, Debye):
    X=              0.8116    Y=              2.4020    Z=             -0.1039  Tot=              2.5376

 Test job not archived.
 1\1\GINC-SE059\SP\RHF\Aug-CC-pVDZ\C4H7N1O1\OHZDE\09-Apr-2025\0\\#t hf
 aug-cc-pvdz iop(5/13=1,5/36=2,99/5=2) pseudo=read geom=check guess=(re
 ad,tcheck) scf=(maxcycle=1)\\title\\0,1\C,0,0.53610387,-1.02476017,0.2
 9805937\C,0,-0.70936521,-1.22533156,-0.48797126\O,0,-1.49245806,-0.127
 98396,-0.69180005\C,0,-1.2776758,1.06331192,-0.16586529\N,0,-0.0496066
 1,1.38879594,0.38584728\C,0,1.03495642,0.45105023,0.10817813\H,0,0.380
 46749,-1.16011856,1.38394393\H,0,1.30717017,-1.75081157,-0.0037228\H,0
 ,-0.7917627,-1.90876302,-1.32783765\H,0,-0.07376358,1.73860293,1.34314

 Normal termination of Gaussian 16 at Wed Apr  9 03:06:57 2025.
