 Gaussian 16, Revision C.01,

 ----------------------------------------------------------------------
 #t hf aug-cc-pvdz symm=none int=(grid=ultrafine) guess=(read,tcheck) s
 table=(opt,rrhf)
 ----------------------------------------------------------------------
 -----
 title
 -----
 Symbolic Z-matrix:
 Charge =  0 Multiplicity = 1

 SCF Done:  E(RHF) =  -302.761458810     A.U. after   15 cycles
 Normal termination of Gaussian 16 at Wed Apr  9 18:45:39 2025.
 Gaussian 16:  ES64L-G16RevC.01  3-Jul-2019

 ----------------------------------------------------------------------
 #t hf aug-cc-pvdz iop(5/13=1,5/36=2,99/5=2) pseudo=read geom=check gue
 ss=(read,tcheck) scf=(maxcycle=1)
 ----------------------------------------------------------------------
 -----
 title
 -----
 Structure from the checkpoint file:  "Grambow2020_wb97xd3_008028_reverse_mol2.chk"
 Charge =  0 Multiplicity = 1

                         Standard orientation:
 ---------------------------------------------------------------------
 Center     Atomic      Atomic             Coordinates (Angstroms)
 Number     Number       Type             X           Y           Z
 ---------------------------------------------------------------------
      1          6           0       -2.556966   -0.144763   -0.610799
      2          6           0       -1.401144    0.107974    0.334994
      3          6           0       -0.293793   -0.937223    0.363954
      4          7           0        0.755747    0.142822    0.557192
      5          6           0       -0.349987    1.134014   -0.124893
      6          6           0        1.953715    0.003103   -0.097887
      7          7           0        2.956194   -0.129652   -0.636769
      8          1           0       -2.180416   -0.320715   -1.620065
      9          1           0       -3.163710   -0.998971   -0.297252
     10          1           0       -3.208953    0.729692   -0.650069
     11          1           0       -1.790127    0.250032    1.357374
     12          1           0       -0.117551   -1.387631   -0.609884
     13          1           0       -0.255210   -1.685962    1.155022
     14          1           0        0.929364    0.294557    1.552220
     15          1           0       -0.307935    2.048174    0.477487
 ---------------------------------------------------------------------

 SCF Done:  E(RHF) =  -303.077343302     A.U. after    2 cycles

 The electronic state is 1-A.
 Alpha  occ. eigenvalues --  -15.64219 -15.53769 -11.33249 -11.31858 -11.24812
 Alpha  occ. eigenvalues --  -11.22600 -11.22380  -1.35361  -1.25368  -1.10101
 Alpha  occ. eigenvalues --   -0.97209  -0.92598  -0.86404  -0.79188  -0.71962
 Alpha  occ. eigenvalues --   -0.66830  -0.65005  -0.63364  -0.58785  -0.57386
 Alpha  occ. eigenvalues --   -0.54517  -0.52034  -0.51078  -0.49890  -0.46313
 Alpha  occ. eigenvalues --   -0.31391
 Alpha virt. eigenvalues --    0.01714   0.03193   0.03654   0.04450   0.05582
 Alpha virt. eigenvalues --    0.05950   0.06722   0.07821   0.09102   0.10871
 Alpha virt. eigenvalues --    0.11389   0.11811   0.12213   0.12946   0.13144

 Mulliken charges:
               1
     1  C   -0.339379
     2  C   -0.227131
     3  C    0.093171
     4  N   -0.078757
     5  C   -0.094289
     6  C   -1.674546
     7  N    1.077069
     8  H    0.210503
     9  H    0.210111
    10  H    0.177597
    11  H   -0.009801
    12  H    0.058793
    13  H    0.055239
    14  H    0.549567
    15  H   -0.008147
 Sum of Mulliken charges =  -0.00000

 Dipole moment (field-independent basis, Debye):
    X=             -2.8162    Y=             -2.1116    Z=              4.6366  Tot=              5.8213

 Test job not archived.
 1\1\GINC-SE131\SP\RHF\Aug-CC-pVDZ\C5H8N2\OHZDE\09-Apr-2025\0\\#t hf au
 g-cc-pvdz iop(5/13=1,5/36=2,99/5=2) pseudo=read geom=check guess=(read
 ,tcheck) scf=(maxcycle=1)\\title\\0,1\C,0,2.05853776,-0.18770963,-0.30
 242616\C,0,0.76037162,0.22827981,0.3579092\C,0,-0.36608024,0.6806249,-
 0.56186905\N,0,-1.3993024,0.03248913,0.34242498\C,0,-0.15910992,-0.908
 06246,0.84005455\C,0,-2.46428113,-0.6025768,-0.24603637\N,0,-3.3576293
 1,-1.11737055,-0.74593558\H,0,1.86361567,-0.94921014,-1.05971777\H,0,2
 .57254861,0.65937221,-0.76542271\H,0,2.73377363,-0.62293701,0.43644636

 Normal termination of Gaussian 16 at Wed Apr  9 18:45:44 2025.
