 Gaussian 16, Revision C.01,

 ----------------------------------------------------------------------
 #t hf aug-cc-pvdz symm=none int=(grid=ultrafine) guess=(read,tcheck) s
 table=(opt,rrhf)
 ----------------------------------------------------------------------
 -----
 title
 -----
 Symbolic Z-matrix:
 Charge =  0 Multiplicity = 1

 SCF Done:  E(RHF) =  -286.923302087     A.U. after   15 cycles
 Normal termination of Gaussian 16 at Wed Apr  9 19:07:02 2025.
 Gaussian 16:  ES64L-G16RevC.01  3-Jul-2019

 ----------------------------------------------------------------------
 #t hf aug-cc-pvdz iop(5/13=1,5/36=2,99/5=2) pseudo=read geom=check gue
 ss=(read,tcheck) scf=(maxcycle=1)
 ----------------------------------------------------------------------
 -----
 title
 -----
 Structure from the checkpoint file:  "Grambow2020_wb97xd3_008573_forward_mol2.chk"
 Charge =  0 Multiplicity = 1

                         Standard orientation:
 ---------------------------------------------------------------------
 Center     Atomic      Atomic             Coordinates (Angstroms)
 Number     Number       Type             X           Y           Z
 ---------------------------------------------------------------------
      1          6           0        2.549210   -0.533608    0.004727
      2          6           0        1.106614   -0.160816   -0.004590
      3          6           0       -0.018799   -0.941200   -0.006095
      4          6           0       -1.158754   -0.086108   -0.002439
      5          6           0       -2.592631   -0.511368    0.003840
      6          6           0       -0.680017    1.194657    0.000101
      7          7           0        0.690706    1.140107   -0.001182
      8          1           0        3.049837   -0.198413    0.917081
      9          1           0        2.648635   -1.617094   -0.046764
     10          1           0        3.085660   -0.109624   -0.848007
     11          1           0       -0.027946   -2.021438   -0.007433
     12          1           0       -3.260304    0.351246    0.013461
     13          1           0       -2.823256   -1.118244    0.882784
     14          1           0       -2.835696   -1.110235   -0.877223
     15          1           0       -1.204611    2.136970    0.001200
     16          1           0        1.299006    1.936740   -0.000096
 ---------------------------------------------------------------------

 SCF Done:  E(RHF) =  -287.230199454     A.U. after    2 cycles

 The electronic state is 1-A.
 Alpha  occ. eigenvalues --  -15.53162 -11.25580 -11.24156 -11.23827 -11.22056
 Alpha  occ. eigenvalues --  -11.21187 -11.20018  -1.28619  -1.06210  -1.03393
 Alpha  occ. eigenvalues --   -0.95363  -0.91189  -0.79921  -0.75883  -0.71052
 Alpha  occ. eigenvalues --   -0.61574  -0.61307  -0.58198  -0.56790  -0.56629
 Alpha  occ. eigenvalues --   -0.55496  -0.54168  -0.52863  -0.49549  -0.35177
 Alpha  occ. eigenvalues --   -0.29297
 Alpha virt. eigenvalues --    0.03133   0.03969   0.04274   0.04942   0.05144
 Alpha virt. eigenvalues --    0.05382   0.06091   0.08213   0.08955   0.10032
 Alpha virt. eigenvalues --    0.11048   0.12749   0.13210   0.14403   0.14506

 Mulliken charges:
               1
     1  C   -0.471005
     2  C   -0.913135
     3  C    0.042777
     4  C    0.886120
     5  C   -0.571610
     6  C   -0.456153
     7  N    0.880891
     8  H    0.241818
     9  H    0.161222
    10  H    0.215661
    11  H   -0.272260
    12  H    0.113321
    13  H    0.240488
    14  H    0.241184
    15  H   -0.296302
    16  H   -0.043016
 Sum of Mulliken charges =  -0.00000

 Dipole moment (field-independent basis, Debye):
    X=              1.1976    Y=              0.8794    Z=              0.0155  Tot=              1.4858

 Test job not archived.
 1\1\GINC-SE056\SP\RHF\Aug-CC-pVDZ\C6H9N1\OHZDE\09-Apr-2025\0\\#t hf au
 g-cc-pvdz iop(5/13=1,5/36=2,99/5=2) pseudo=read geom=check guess=(read
 ,tcheck) scf=(maxcycle=1)\\title\\0,1\C,0,2.56820692,-0.37827159,0.011
 76931\C,0,1.1180585,-0.03612026,0.02389673\C,0,0.01267136,-0.81918011,
 -0.17732804\C,0,-1.1472782,-0.00225215,-0.04376829\C,0,-2.56978223,-0.
 44447917,-0.17721323\C,0,-0.70024785,1.25942986,0.23529586\N,0,0.67068
 36,1.22978354,0.27436939\H,0,3.02993764,-0.22642325,0.99111605\H,0,2.6
 9566545,-1.42696468,-0.25370533\H,0,3.12218912,0.21888474,-0.7170689\H

 Normal termination of Gaussian 16 at Wed Apr  9 19:07:07 2025.
