 Gaussian 16, Revision C.01,

 ----------------------------------------------------------------------
 #t hf aug-cc-pvdz symm=none int=(grid=ultrafine) guess=(read,tcheck) s
 table=(opt,rrhf)
 ----------------------------------------------------------------------
 -----
 title
 -----
 Symbolic Z-matrix:
 Charge =  0 Multiplicity = 1

 SCF Done:  E(RHF) =  -344.781320770     A.U. after   14 cycles

 1\1\GINC-SE232\Stability\RHF\Aug-CC-pVDZ\C5H10O2\OHZDE\09-Apr-2025\0\\
 #t hf aug-cc-pvdz symm=none int=(grid=ultrafine) guess=(read,tcheck) s
 table=(opt,rrhf)\\title\\0,1\C,0,-2.40064906,0.46034835,-0.33077082\C,
 0,-0.56490761,-1.24298282,-0.38265707\O,0,-1.11196941,0.16542825,-0.86
 939323\C,0,0.40272596,-0.96163509,0.74657505\C,0,1.77345677,-0.2966105
 8,0.48806203\C,0,1.78149735,1.14159082,0.10096118\O,0,0.82471707,1.786
 26907,-0.27675501\H,0,-2.36577122,0.46807831,0.75960851\H,0,-2.7158514
 4,1.43187018,-0.71466669\H,0,-3.06452049,-0.3305847,-0.66403555\H,0,-0

 Normal termination of Gaussian 16 at Wed Apr  9 18:05:54 2025.
 Gaussian 16:  ES64L-G16RevC.01  3-Jul-2019

 ----------------------------------------------------------------------
 #t hf aug-cc-pvdz iop(5/13=1,5/36=2,99/5=2) pseudo=read geom=check gue
 ss=(read,tcheck) scf=(maxcycle=1)
 ----------------------------------------------------------------------
 -----
 title
 -----
 Structure from the checkpoint file:  "Grambow2020_wb97xd3_007093_reverse_mol2.chk"
 Charge =  0 Multiplicity = 1

                         Standard orientation:
 ---------------------------------------------------------------------
 Center     Atomic      Atomic             Coordinates (Angstroms)
 Number     Number       Type             X           Y           Z
 ---------------------------------------------------------------------
      1          6           0        2.409827   -0.475861    0.385885
      2          6           0        0.815002    1.256171   -0.468851
      3          8           0        1.301658   -0.254680   -0.486370
      4          6           0       -0.392796    1.308462    0.441714
      5          6           0       -1.740290    0.672279    0.032422
      6          6           0       -1.817264   -0.814492   -0.011435
      7          8           0       -0.875327   -1.580264   -0.004022
      8          1           0        2.145461   -0.216214    1.411993
      9          1           0        2.695247   -1.526549    0.313951
     10          1           0        3.208132    0.174801    0.044253
     11          1           0        0.490840    1.340252   -1.515271
     12          1           0        0.550553   -0.871320   -0.269302
     13          1           0       -0.133198    0.957821    1.448780
     14          1           0       -0.591275    2.377296    0.568058
     15          1           0       -2.025186    1.007544   -0.975247
     16          1           0       -2.564503    1.002409    0.678780
     17          1           0       -2.833587   -1.245846   -0.061276
 ---------------------------------------------------------------------

 SCF Done:  E(RHF) =  -345.139007651     A.U. after    2 cycles

 The electronic state is 1-A.
 Alpha  occ. eigenvalues --  -20.60620 -20.57940 -11.37184 -11.29427 -11.25379
 Alpha  occ. eigenvalues --  -11.22499 -11.20142  -1.52513  -1.50520  -1.07789
 Alpha  occ. eigenvalues --   -0.97575  -0.93748  -0.85006  -0.77126  -0.73713
 Alpha  occ. eigenvalues --   -0.71121  -0.67211  -0.64694  -0.63369  -0.60574
 Alpha  occ. eigenvalues --   -0.56312  -0.55253  -0.53696  -0.52130  -0.49360
 Alpha  occ. eigenvalues --   -0.46224  -0.43725  -0.27921
 Alpha virt. eigenvalues --    0.02821   0.03919   0.04021   0.04622   0.06032
 Alpha virt. eigenvalues --    0.06288   0.06679   0.07259   0.08604   0.09405
 Alpha virt. eigenvalues --    0.09905   0.11612   0.12015   0.13874   0.14427

 Mulliken charges:
               1
     1  C    0.294297
     2  C    0.188848
     3  O   -1.399474
     4  C   -0.455868
     5  C   -0.500325
     6  C    1.151053
     7  O   -1.320349
     8  H    0.210390
     9  H    0.065143
    10  H    0.105435
    11  H   -0.086725
    12  H    0.870844
    13  H    0.139042
    14  H    0.214375
    15  H    0.264727
    16  H    0.167752
    17  H    0.090835
 Sum of Mulliken charges =  -0.00000

 Dipole moment (field-independent basis, Debye):
    X=             -2.8514    Y=             -2.1716    Z=              1.0911  Tot=              3.7466

 Test job not archived.
 1\1\GINC-SE232\SP\RHF\Aug-CC-pVDZ\C5H10O2\OHZDE\09-Apr-2025\0\\#t hf a
 ug-cc-pvdz iop(5/13=1,5/36=2,99/5=2) pseudo=read geom=check guess=(rea
 d,tcheck) scf=(maxcycle=1)\\title\\0,1\C,0,-2.40064906,0.46034835,-0.3
 3077082\C,0,-0.56490761,-1.24298282,-0.38265707\O,0,-1.11196941,0.1654
 2825,-0.86939323\C,0,0.40272596,-0.96163509,0.74657505\C,0,1.77345677,
 -0.29661058,0.48806203\C,0,1.78149735,1.14159082,0.10096118\O,0,0.8247
 1707,1.78626907,-0.27675501\H,0,-2.36577122,0.46807831,0.75960851\H,0,
 -2.71585144,1.43187018,-0.71466669\H,0,-3.06452049,-0.3305847,-0.66403

 Normal termination of Gaussian 16 at Wed Apr  9 18:06:00 2025.
