 Gaussian 16, Revision C.01,

 ----------------------------------------------------------------------
 #t hf aug-cc-pvdz symm=none int=(grid=ultrafine) guess=(read,tcheck) s
 table=(opt,rrhf)
 ----------------------------------------------------------------------
 -----
 title
 -----
 Symbolic Z-matrix:
 Charge =  0 Multiplicity = 1

 SCF Done:  E(RHF) =  -375.667039234     A.U. after   15 cycles
 Normal termination of Gaussian 16 at Wed Apr  9 03:46:28 2025.
 Gaussian 16:  ES64L-G16RevC.01  3-Jul-2019

 ----------------------------------------------------------------------
 #t hf aug-cc-pvdz iop(5/13=1,5/36=2,99/5=2) pseudo=read geom=check gue
 ss=(read,tcheck) scf=(maxcycle=1)
 ----------------------------------------------------------------------
 -----
 title
 -----
 Structure from the checkpoint file:  "Grambow2020_wb97xd3_007869_reverse_mol1.chk"
 Charge =  0 Multiplicity = 1

                         Standard orientation:
 ---------------------------------------------------------------------
 Center     Atomic      Atomic             Coordinates (Angstroms)
 Number     Number       Type             X           Y           Z
 ---------------------------------------------------------------------
      1          7           0        2.005425    0.195040   -0.132267
      2          6           0        0.649518    0.023260    0.087248
      3          8           0        0.287060   -0.655028    1.169934
      4          6           0       -0.227912    1.280222   -0.083707
      5          8           0       -1.513790    0.653448    0.098209
      6          6           0       -1.237035   -0.629620   -0.063258
      7          7           0       -0.277909   -0.859526   -0.989397
      8          1           0        2.555501   -0.618096    0.090904
      9          1           0        2.267531    0.639714   -0.996498
     10          1           0       -0.157272    1.736711   -1.071433
     11          1           0       -0.088779    2.004735    0.715407
     12          1           0       -2.005101   -1.322078    0.263231
     13          1           0        0.041920   -1.820120   -0.936797
 ---------------------------------------------------------------------

 SCF Done:  E(RHF) =  -376.048540026     A.U. after    2 cycles

 The electronic state is 1-A.
 Alpha  occ. eigenvalues --  -20.60591 -20.47522 -15.50935 -15.50794 -11.42197
 Alpha  occ. eigenvalues --  -11.36668 -11.30487  -1.56880  -1.40822  -1.21898
 Alpha  occ. eigenvalues --   -1.20614  -1.01865  -0.87494  -0.82573  -0.79645
 Alpha  occ. eigenvalues --   -0.73635  -0.71296  -0.68018  -0.65365  -0.60677
 Alpha  occ. eigenvalues --   -0.58698  -0.56723  -0.53410  -0.48658  -0.45757
 Alpha  occ. eigenvalues --   -0.40094  -0.37854
 Alpha virt. eigenvalues --    0.03086   0.04135   0.04972   0.05385   0.05658
 Alpha virt. eigenvalues --    0.06649   0.08870   0.09899   0.11296   0.12454
 Alpha virt. eigenvalues --    0.12818   0.13893   0.14580   0.15552   0.15876

 Mulliken charges:
               1
     1  N    0.859880
     2  C   -0.899077
     3  O   -1.598006
     4  C    0.768553
     5  O   -1.293265
     6  C    0.690348
     7  N    0.557933
     8  H    0.243791
     9  H    0.178946
    10  H    0.120447
    11  H    0.082180
    12  H    0.030935
    13  H    0.257334
 Sum of Mulliken charges =  -0.00000

 Dipole moment (field-independent basis, Debye):
    X=              0.0555    Y=             -0.1385    Z=             -2.4921  Tot=              2.4966

 Test job not archived.
 1\1\GINC-SE095\SP\RHF\Aug-CC-pVDZ\C3H6N2O2\OHZDE\09-Apr-2025\0\\#t hf
 aug-cc-pvdz iop(5/13=1,5/36=2,99/5=2) pseudo=read geom=check guess=(re
 ad,tcheck) scf=(maxcycle=1)\\title\\0,1\N,0,-1.68417753,-0.21305303,-0
 .7655044\C,0,-0.53731224,0.11052912,-0.06110705\O,0,-0.5110686,1.28574
 907,0.55681518\C,0,0.02962737,-0.99504085,0.85287197\O,0,1.23106494,-0
 .31473417,1.26898665\C,0,1.337643,0.65739352,0.37874206\N,0,0.92117932
 ,0.30069357,-0.85812347\H,0,-2.08168525,0.56449353,-1.26649166\H,0,-1.
 65957174,-1.06905513,-1.29463861\H,0,0.27165063,-1.92000252,0.32861565

 Normal termination of Gaussian 16 at Wed Apr  9 03:46:33 2025.
