 Gaussian 16, Revision C.01,

 ----------------------------------------------------------------------
 #t hf aug-cc-pvdz symm=none int=(grid=ultrafine) guess=(read,tcheck) s
 table=(opt,rrhf)
 ----------------------------------------------------------------------
 -----
 title
 -----
 Symbolic Z-matrix:
 Charge =  0 Multiplicity = 1

 SCF Done:  E(RHF) =  -295.794808391     A.U. after   15 cycles
 Normal termination of Gaussian 16 at Wed Apr  9 15:48:42 2025.
 Gaussian 16:  ES64L-G16RevC.01  3-Jul-2019

 ----------------------------------------------------------------------
 #t hf aug-cc-pvdz iop(5/13=1,5/36=2,99/5=2) pseudo=read geom=check gue
 ss=(read,tcheck) scf=(maxcycle=1)
 ----------------------------------------------------------------------
 -----
 title
 -----
 Structure from the checkpoint file:  "Grambow2020_b97d3_006781_forward_mol1.chk"
 Charge =  0 Multiplicity = 1

                         Standard orientation:
 ---------------------------------------------------------------------
 Center     Atomic      Atomic             Coordinates (Angstroms)
 Number     Number       Type             X           Y           Z
 ---------------------------------------------------------------------
      1          7           0       -2.013808    0.027638    0.095635
      2          6           0       -0.647217    0.022393   -0.003946
      3          7           0        0.063736   -1.138757   -0.082153
      4          7           0        1.494735   -0.654695   -0.069747
      5          6           0        1.351980    0.684725    0.016906
      6          7           0        0.099575    1.152651   -0.012865
      7          1           0       -2.446966    0.896981   -0.197013
      8          1           0       -2.470391   -0.812032   -0.244368
      9          1           0        0.947480   -1.358903    0.783462
     10          1           0        2.231634    1.323397    0.064071
 ---------------------------------------------------------------------

 SCF Done:  E(RHF) =  -296.093475243     A.U. after    2 cycles

 The electronic state is 1-A.
 Alpha  occ. eigenvalues --  -15.55384 -15.54788 -15.54034 -15.51370 -11.36444
 Alpha  occ. eigenvalues --  -11.33074  -1.38388  -1.24937  -1.19995  -1.09638
 Alpha  occ. eigenvalues --   -0.88875  -0.86796  -0.77757  -0.73464  -0.68137
 Alpha  occ. eigenvalues --   -0.66330  -0.56726  -0.56001  -0.54696  -0.50226
 Alpha  occ. eigenvalues --   -0.47903  -0.40061
 Alpha virt. eigenvalues --    0.02859   0.04696   0.05430   0.06011   0.08679
 Alpha virt. eigenvalues --    0.09165   0.10565   0.11227   0.12363   0.13049
 Alpha virt. eigenvalues --    0.13717   0.14999   0.15406   0.16181   0.17081

 Mulliken charges:
               1
     1  N    0.490728
     2  C   -1.641835
     3  N    0.126803
     4  N    0.016133
     5  C   -0.222483
     6  N    0.538702
     7  H    0.155014
     8  H    0.175746
     9  H    0.356064
    10  H    0.005128
 Sum of Mulliken charges =  -0.00000

 Dipole moment (field-independent basis, Debye):
    X=             -1.4754    Y=              0.7580    Z=              0.5060  Tot=              1.7341

 Test job not archived.
 1\1\GINC-SE229\SP\RHF\Aug-CC-pVDZ\C2H4N4\OHZDE\09-Apr-2025\0\\#t hf au
 g-cc-pvdz iop(5/13=1,5/36=2,99/5=2) pseudo=read geom=check guess=(read
 ,tcheck) scf=(maxcycle=1)\\title\\0,1\N,0,1.84429427,-0.17379651,-0.32
 582339\C,0,0.51193984,-0.0404662,-0.03501534\N,0,-0.27354703,-1.118467
 72,0.2491733\N,0,-1.64532447,-0.50233233,0.39350262\C,0,-1.40620173,0.
 80620979,0.16443814\N,0,-0.12873417,1.15314488,-0.02549045\H,0,2.38679
 664,0.67059693,-0.17845591\H,0,2.27489229,-1.02367943,0.02260205\H,0,-
 1.29112518,-1.32100761,-0.45953661\H,0,-2.22697145,1.52029719,0.182713

 Normal termination of Gaussian 16 at Wed Apr  9 15:48:46 2025.
