 Gaussian 16, Revision C.01,

 ----------------------------------------------------------------------
 #t hf aug-cc-pvdz symm=none int=(grid=ultrafine) guess=(read,tcheck) s
 table=(opt,rrhf)
 ----------------------------------------------------------------------
 -----
 title
 -----
 Symbolic Z-matrix:
 Charge =  0 Multiplicity = 1

 SCF Done:  E(RHF) =  -193.853940817     A.U. after   14 cycles
 Normal termination of Gaussian 16 at Wed Apr  9 03:06:46 2025.
 Gaussian 16:  ES64L-G16RevC.01  3-Jul-2019

 ----------------------------------------------------------------------
 #t hf aug-cc-pvdz iop(5/13=1,5/36=2,99/5=2) pseudo=read geom=check gue
 ss=(read,tcheck) scf=(maxcycle=1)
 ----------------------------------------------------------------------
 -----
 title
 -----
 Structure from the checkpoint file:  "Grambow2020_b97d3_006546_reverse_mol2.chk"
 Charge =  0 Multiplicity = 1

                         Standard orientation:
 ---------------------------------------------------------------------
 Center     Atomic      Atomic             Coordinates (Angstroms)
 Number     Number       Type             X           Y           Z
 ---------------------------------------------------------------------
      1          6           0        0.823238   -1.147081    0.076268
      2          6           0        0.879142    0.001818   -0.793289
      3          6           0       -1.741324   -0.003965   -0.108457
      4          6           0       -0.306898   -0.000301    0.394902
      5          6           0        0.813262    1.151088    0.076956
      6          1           0        1.415138   -1.274897    1.004537
      7          1           0        0.485925   -2.096316   -0.352436
      8          1           0       -1.772021    0.010526   -1.201695
      9          1           0       -2.266513   -0.900323    0.252857
     10          1           0       -2.278874    0.875233    0.276511
     11          1           0       -0.265305   -0.004579    1.491653
     12          1           0        0.470092    2.097741   -0.352761
     13          1           0        1.407037    1.283263    1.003059
 ---------------------------------------------------------------------

 SCF Done:  E(RHF) =  -194.063895509     A.U. after    2 cycles

 The electronic state is 1-A.
 Alpha  occ. eigenvalues --  -11.29005 -11.26065 -11.26004 -11.23798 -11.23085
 Alpha  occ. eigenvalues --   -1.19316  -0.98555  -0.93089  -0.79974  -0.75884
 Alpha  occ. eigenvalues --   -0.65777  -0.60224  -0.57912  -0.57499  -0.52724
 Alpha  occ. eigenvalues --   -0.52158  -0.48723  -0.43333  -0.32138
 Alpha virt. eigenvalues --    0.03206   0.03833   0.03975   0.04761   0.06442
 Alpha virt. eigenvalues --    0.06543   0.07300   0.07413   0.09051   0.12540
 Alpha virt. eigenvalues --    0.13233   0.13692   0.14183   0.14789   0.15522

 Mulliken charges:
               1
     1  C    0.207498
     2  C    0.036747
     3  C   -0.613543
     4  C   -0.544764
     5  C    0.212687
     6  H    0.009325
     7  H   -0.033108
     8  H    0.256377
     9  H    0.197415
    10  H    0.198935
    11  H    0.098283
    12  H   -0.034652
    13  H    0.008801
 Sum of Mulliken charges =  -0.00000

 Dipole moment (field-independent basis, Debye):
    X=             -0.7648    Y=             -0.0100    Z=              2.7497  Tot=              2.8541

 Test job not archived.
 1\1\GINC-SE074\SP\RHF\Aug-CC-pVDZ\C5H8\OHZDE\09-Apr-2025\0\\#t hf aug-
 cc-pvdz iop(5/13=1,5/36=2,99/5=2) pseudo=read geom=check guess=(read,t
 check) scf=(maxcycle=1)\\title\\0,1\C,0,-0.57423534,1.40067325,0.00187
 678\C,0,0.3067344,0.89217144,1.02390497\C,0,-0.74910252,-1.40719884,0.
 05748029\C,0,-0.0171101,-0.11766752,-0.2775724\C,0,1.43790811,0.336996
 93,0.32054522\H,0,-0.25964242,2.01766102,-0.86341139\H,0,-1.63277314,1
 .52174078,0.25378146\H,0,-0.94129762,-1.47981416,1.13177492\H,0,-1.706
 9976,-1.44920896,-0.48150049\H,0,-0.15045865,-2.27431414,-0.25856818\H

 Normal termination of Gaussian 16 at Wed Apr  9 03:06:50 2025.
