 Gaussian 16, Revision C.01,

 ----------------------------------------------------------------------
 #t hf aug-cc-pvdz symm=none int=(grid=ultrafine) guess=(read,tcheck) s
 table=(opt,rrhf)
 ----------------------------------------------------------------------
 -----
 title
 -----
 Symbolic Z-matrix:
 Charge =  0 Multiplicity = 1

 SCF Done:  E(RHF) =  -284.831855239     A.U. after   15 cycles
 Normal termination of Gaussian 16 at Wed Apr  9 03:06:51 2025.
 Gaussian 16:  ES64L-G16RevC.01  3-Jul-2019

 ----------------------------------------------------------------------
 #t hf aug-cc-pvdz iop(5/13=1,5/36=2,99/5=2) pseudo=read geom=check gue
 ss=(read,tcheck) scf=(maxcycle=1)
 ----------------------------------------------------------------------
 -----
 title
 -----
 Structure from the checkpoint file:  "Grambow2020_b97d3_006536_reverse_mol2.chk"
 Charge =  0 Multiplicity = 1

                         Standard orientation:
 ---------------------------------------------------------------------
 Center     Atomic      Atomic             Coordinates (Angstroms)
 Number     Number       Type             X           Y           Z
 ---------------------------------------------------------------------
      1          6           0        1.917446    0.708533   -0.459250
      2          6           0       -1.245094    1.236797    0.275269
      3          8           0       -1.611238   -0.046810   -0.262276
      4          6           0       -0.739721   -1.086625   -0.181887
      5          7           0        0.478616   -1.170844    0.174628
      6          6           0        1.425014   -0.184701    0.425822
      7          1           0       -0.519555    1.745308   -0.370617
      8          1           0        2.759952    1.341844   -0.188117
      9          1           0       -0.811021    1.129344    1.277116
     10          1           0       -2.181066    1.802946    0.329539
     11          1           0       -1.275391   -1.995839   -0.468298
     12          1           0        1.530827    0.780136   -1.475862
     13          1           0        1.889977   -0.277378    1.412319
 ---------------------------------------------------------------------

 SCF Done:  E(RHF) =  -285.123423474     A.U. after    2 cycles

 The electronic state is 1-A.
 Alpha  occ. eigenvalues --  -20.59211 -15.50049 -11.36206 -11.30177 -11.28265
 Alpha  occ. eigenvalues --  -11.22837  -1.51090  -1.23605  -1.03997  -0.97561
 Alpha  occ. eigenvalues --   -0.88188  -0.77257  -0.72218  -0.69466  -0.66447
 Alpha  occ. eigenvalues --   -0.63501  -0.59477  -0.55474  -0.53414  -0.52470
 Alpha  occ. eigenvalues --   -0.49788  -0.43155  -0.34638
 Alpha virt. eigenvalues --    0.03552   0.04268   0.04476   0.04707   0.06071
 Alpha virt. eigenvalues --    0.06674   0.07038   0.09845   0.10362   0.11924
 Alpha virt. eigenvalues --    0.12541   0.13367   0.13988   0.15037   0.15680

 Mulliken charges:
               1
     1  C    0.055838
     2  C    0.278501
     3  O   -1.152431
     4  C    0.323916
     5  N    0.820982
     6  C   -0.429995
     7  H    0.176255
     8  H   -0.079127
     9  H    0.222353
    10  H   -0.039703
    11  H   -0.000203
    12  H   -0.110272
    13  H   -0.066113
 Sum of Mulliken charges =  -0.00000

 Dipole moment (field-independent basis, Debye):
    X=             -1.1585    Y=              1.8651    Z=              0.3538  Tot=              2.2239

 Test job not archived.
 1\1\GINC-SE127\SP\RHF\Aug-CC-pVDZ\C4H7N1O1\OHZDE\09-Apr-2025\0\\#t hf
 aug-cc-pvdz iop(5/13=1,5/36=2,99/5=2) pseudo=read geom=check guess=(re
 ad,tcheck) scf=(maxcycle=1)\\title\\0,1\C,0,1.82585122,-0.10233337,0.3
 8781983\C,0,-1.3204246,-1.04088299,0.18703137\O,0,-1.7616558,0.3244966
 4,0.29527627\C,0,-0.99562122,1.32465996,-0.21470971\N,0,0.18150718,1.3
 5534256,-0.6963407\C,0,1.19272965,0.40210412,-0.69310997\H,0,-0.507601
 62,-1.25242446,0.8918221\H,0,2.70057478,-0.73790117,0.26402694\H,0,-0.
 97057377,-1.25699804,-0.83010214\H,0,-2.20290048,-1.64699234,0.4180721

 Normal termination of Gaussian 16 at Wed Apr  9 03:06:55 2025.
