 Gaussian 16, Revision C.01,

 ----------------------------------------------------------------------
 #t hf aug-cc-pvdz symm=none int=(grid=ultrafine) guess=(read,tcheck) s
 table=(opt,rrhf)
 ----------------------------------------------------------------------
 -----
 title
 -----
 Symbolic Z-matrix:
 Charge =  0 Multiplicity = 1

 SCF Done:  E(RHF) =  -316.505991669     A.U. after   16 cycles
 Normal termination of Gaussian 16 at Wed Apr  9 18:16:23 2025.
 Gaussian 16:  ES64L-G16RevC.01  3-Jul-2019

 ----------------------------------------------------------------------
 #t hf aug-cc-pvdz iop(5/13=1,5/36=2,99/5=2) pseudo=read geom=check gue
 ss=(read,tcheck) scf=(maxcycle=1)
 ----------------------------------------------------------------------
 -----
 title
 -----
 Structure from the checkpoint file:  "Grambow2020_wb97xd3_007266_reverse_mol2.chk"
 Charge =  0 Multiplicity = 1

                         Standard orientation:
 ---------------------------------------------------------------------
 Center     Atomic      Atomic             Coordinates (Angstroms)
 Number     Number       Type             X           Y           Z
 ---------------------------------------------------------------------
      1          7           0        2.666571    0.043138   -0.451731
      2          6           0        1.615560    0.019172    0.004897
      3          6           0       -1.713025   -0.741619   -0.383959
      4          7           0       -1.701166    0.717413   -0.347659
      5          6           0       -0.617780    1.121493    0.172052
      6          6           0        0.281948   -0.011235    0.601130
      7          7           0       -0.556236   -1.103842    0.140781
      8          1           0       -0.360017    2.166438    0.312936
      9          1           0        0.383611   -0.021507    1.692010
     10          1           0       -0.287998   -2.068764    0.240596
 ---------------------------------------------------------------------

 SCF Done:  E(RHF) =  -316.815753736     A.U. after    2 cycles

 The electronic state is 1-A.
 Alpha  occ. eigenvalues --  -15.58121 -15.55032 -15.53422 -11.36841 -11.34262
 Alpha  occ. eigenvalues --  -11.31516 -11.30832  -1.37047  -1.27183  -1.22349
 Alpha  occ. eigenvalues --   -1.09491  -0.91507  -0.86642  -0.81665  -0.76123
 Alpha  occ. eigenvalues --   -0.70115  -0.66718  -0.64181  -0.56729  -0.55266
 Alpha  occ. eigenvalues --   -0.54151  -0.50334  -0.49352  -0.40319
 Alpha virt. eigenvalues --    0.02040   0.03591   0.03945   0.04072   0.06458
 Alpha virt. eigenvalues --    0.08153   0.09171   0.10040   0.10405   0.10826
 Alpha virt. eigenvalues --    0.12036   0.12130   0.13182   0.13784   0.14341

 Mulliken charges:
               1
     1  N    0.952365
     2  C   -1.617681
     3  C   -0.436055
     4  N    0.752432
     5  C   -0.527209
     6  C   -0.084714
     7  N    0.674918
     8  H   -0.005025
     9  H    0.186419
    10  H    0.104550
 Sum of Mulliken charges =  -0.00000

 Dipole moment (field-independent basis, Debye):
    X=              0.9806    Y=              0.2685    Z=              4.0074  Tot=              4.1344

 Test job not archived.
 1\1\GINC-SE232\SP\RHF\Aug-CC-pVDZ\C4H3N3\OHZDE\09-Apr-2025\0\\#t hf au
 g-cc-pvdz iop(5/13=1,5/36=2,99/5=2) pseudo=read geom=check guess=(read
 ,tcheck) scf=(maxcycle=1)\\title\\0,1\N,0,1.84238525,0.0497225,-2.0872
 7879\C,0,0.99646753,0.1740729,-1.32395262\C,0,-0.07415438,-0.18240223,
 1.92199601\N,0,-0.83776083,-1.19552789,1.20039046\C,0,-0.83885965,-0.9
 2568277,-0.03827394\C,0,-0.08844758,0.34321187,-0.35995627\N,0,0.35056
 071,0.65103272,0.98940765\H,0,-1.33531885,-1.52608878,-0.79407834\H,0,
 -0.77881638,1.1061932,-0.73639868\H,0,0.91376718,1.45739849,1.20286351

 Normal termination of Gaussian 16 at Wed Apr  9 18:16:27 2025.
