 Gaussian 16, Revision C.01,

 ----------------------------------------------------------------------
 #t hf aug-cc-pvdz symm=none int=(grid=ultrafine) guess=(read,tcheck) s
 table=(opt,rrhf)
 ----------------------------------------------------------------------
 -----
 title
 -----
 Symbolic Z-matrix:
 Charge =  0 Multiplicity = 1

 SCF Done:  E(RHF) =  -305.689490307     A.U. after   16 cycles
 Normal termination of Gaussian 16 at Wed Apr  9 16:01:54 2025.
 Gaussian 16:  ES64L-G16RevC.01  3-Jul-2019

 ----------------------------------------------------------------------
 #t hf aug-cc-pvdz iop(5/13=1,5/36=2,99/5=2) pseudo=read geom=check gue
 ss=(read,tcheck) scf=(maxcycle=1)
 ----------------------------------------------------------------------
 -----
 title
 -----
 Structure from the checkpoint file:  "Grambow2020_b97d3_007092_forward_mol1.chk"
 Charge =  0 Multiplicity = 1

                         Standard orientation:
 ---------------------------------------------------------------------
 Center     Atomic      Atomic             Coordinates (Angstroms)
 Number     Number       Type             X           Y           Z
 ---------------------------------------------------------------------
      1          6           0        2.410631   -0.295178    0.174307
      2          6           0        0.784688   -0.192599   -0.459522
      3          6           0        0.839232    1.198943   -0.060489
      4          8           0       -0.034381   -0.997242    0.144403
      5          6           0       -1.762643    0.254464    0.362051
      6          8           0       -2.719665   -0.116241   -0.281174
      7          1           0        3.154046    0.365086   -0.281858
      8          1           0        2.389932   -0.216709    1.263468
      9          1           0        2.595414   -1.331766   -0.126092
     10          1           0        0.978238   -0.337306   -1.545420
     11          1           0        0.691835    1.449336    0.990507
     12          1           0       -1.017008    1.048293   -0.073462
     13          1           0        1.285668    1.966857   -0.696550
     14          1           0       -1.677211    0.170295    1.465504
 ---------------------------------------------------------------------

 SCF Done:  E(RHF) =  -306.002122390     A.U. after    2 cycles

 The electronic state is 1-A.
 Alpha  occ. eigenvalues --  -20.50904 -20.47205 -11.37181 -11.33811 -11.33557
 Alpha  occ. eigenvalues --  -11.30389  -1.43855  -1.39132  -1.10015  -0.96300
 Alpha  occ. eigenvalues --   -0.85118  -0.82057  -0.72359  -0.65807  -0.65609
 Alpha  occ. eigenvalues --   -0.61984  -0.60923  -0.59536  -0.56581  -0.55322
 Alpha  occ. eigenvalues --   -0.48599  -0.39031  -0.38361  -0.35680
 Alpha virt. eigenvalues --    0.00143   0.01676   0.02820   0.04223   0.04698
 Alpha virt. eigenvalues --    0.06045   0.06436   0.06836   0.07423   0.11236
 Alpha virt. eigenvalues --    0.12208   0.12963   0.13757   0.14265   0.14454

 Mulliken charges:
               1
     1  C   -0.474046
     2  C    1.071187
     3  C   -0.079916
     4  O   -1.401698
     5  C    0.816928
     6  O   -1.066258
     7  H    0.188423
     8  H    0.173238
     9  H    0.198077
    10  H    0.141095
    11  H    0.154875
    12  H    0.166486
    13  H   -0.041246
    14  H    0.152855
 Sum of Mulliken charges =  -0.00000

 Dipole moment (field-independent basis, Debye):
    X=              7.0197    Y=              4.8455    Z=              0.6725  Tot=              8.5562

 Test job not archived.
 1\1\GINC-SE097\SP\RHF\Aug-CC-pVDZ\C4H8O2\OHZDE\09-Apr-2025\0\\#t hf au
 g-cc-pvdz iop(5/13=1,5/36=2,99/5=2) pseudo=read geom=check guess=(read
 ,tcheck) scf=(maxcycle=1)\\title\\0,1\C,0,-0.56072803,1.78341142,0.477
 76784\C,0,0.07499989,0.48027068,-0.49877049\C,0,-0.92319714,-0.3426342
 9,0.15316492\O,0,1.33255373,0.2578014,-0.2704782\C,0,1.37820231,-1.886
 58453,-0.24697216\O,0,2.0094205,-2.37278647,-1.15923515\H,0,-1.6206348
 ,2.01944252,0.3451519\H,0,-0.29205024,1.62757681,1.52485146\H,0,0.0570
 246,2.57628602,0.04345032\H,0,-0.23687373,0.81318339,-1.51340272\H,0,-

 Normal termination of Gaussian 16 at Wed Apr  9 16:01:58 2025.
