 Gaussian 16, Revision C.01,

 ----------------------------------------------------------------------
 #t hf aug-cc-pvdz symm=none int=(grid=ultrafine) guess=(read,tcheck) s
 table=(opt,rrhf)
 ----------------------------------------------------------------------
 -----
 title
 -----
 Symbolic Z-matrix:
 Charge =  0 Multiplicity = 1

 SCF Done:  E(RHF) =  -324.913696936     A.U. after   16 cycles
 Normal termination of Gaussian 16 at Wed Apr  9 18:50:09 2025.
 Gaussian 16:  ES64L-G16RevC.01  3-Jul-2019

 ----------------------------------------------------------------------
 #t hf aug-cc-pvdz iop(5/13=1,5/36=2,99/5=2) pseudo=read geom=check gue
 ss=(read,tcheck) scf=(maxcycle=1)
 ----------------------------------------------------------------------
 -----
 title
 -----
 Structure from the checkpoint file:  "Grambow2020_wb97xd3_008107_reverse_mol1.chk"
 Charge =  0 Multiplicity = 1

                         Standard orientation:
 ---------------------------------------------------------------------
 Center     Atomic      Atomic             Coordinates (Angstroms)
 Number     Number       Type             X           Y           Z
 ---------------------------------------------------------------------
      1          6           0        2.422888   -0.007881    0.953232
      2          6           0        0.968292   -0.936438   -0.743066
      3          7           0        0.070443    0.044810   -0.615429
      4          6           0        0.610051    1.339538   -0.593308
      5          6           0       -1.162818   -0.270783    0.040843
      6          8           0       -1.477895   -1.415340    0.207662
      7          6           0       -2.028808    0.880962    0.466375
      8          1           0        3.114331   -0.754628    0.569001
      9          1           0        1.883543   -0.428177    1.802500
     10          1           0        3.027529    0.831985    1.311081
     11          1           0        0.650595   -1.941674   -0.510418
     12          1           0        1.785518   -0.774470   -1.426345
     13          1           0        1.228145    1.550085   -1.462876
     14          1           0       -0.099398    2.130695   -0.390451
     15          1           0        1.616369    0.882866    0.282126
     16          1           0       -2.937999    0.468638    0.894231
     17          1           0       -2.278129    1.521158   -0.379737
     18          1           0       -1.518082    1.490185    1.213140
 ---------------------------------------------------------------------

 SCF Done:  E(RHF) =  -325.258261231     A.U. after    2 cycles

 The electronic state is 1-A.
 Alpha  occ. eigenvalues --  -20.55137 -15.57720 -11.38955 -11.31014 -11.26199
 Alpha  occ. eigenvalues --  -11.24073 -11.19820  -1.50678  -1.30731  -1.05358
 Alpha  occ. eigenvalues --   -0.97888  -0.94604  -0.89416  -0.77105  -0.73003
 Alpha  occ. eigenvalues --   -0.69871  -0.67857  -0.62830  -0.61049  -0.60311
 Alpha  occ. eigenvalues --   -0.58821  -0.56240  -0.54659  -0.52447  -0.51901
 Alpha  occ. eigenvalues --   -0.45739  -0.41035  -0.28631
 Alpha virt. eigenvalues --    0.03172   0.03503   0.04156   0.04435   0.05302
 Alpha virt. eigenvalues --    0.05563   0.06307   0.06953   0.07048   0.07624
 Alpha virt. eigenvalues --    0.10007   0.10124   0.10711   0.12635   0.13143

 Mulliken charges:
               1
     1  C   -0.559367
     2  C   -0.265899
     3  N    1.065247
     4  C   -0.920952
     5  C    0.856256
     6  O   -1.268670
     7  C   -0.558342
     8  H    0.013380
     9  H    0.096007
    10  H   -0.041910
    11  H   -0.029002
    12  H    0.010744
    13  H   -0.021736
    14  H   -0.146125
    15  H    1.068428
    16  H    0.029094
    17  H    0.334498
    18  H    0.338348
 Sum of Mulliken charges =  -0.00000

 Dipole moment (field-independent basis, Debye):
    X=             -0.7082    Y=              1.5683    Z=             -1.1254  Tot=              2.0561

 Test job not archived.
 1\1\GINC-SE045\SP\RHF\Aug-CC-pVDZ\C5H11N1O1\OHZDE\09-Apr-2025\0\\#t hf
  aug-cc-pvdz iop(5/13=1,5/36=2,99/5=2) pseudo=read geom=check guess=(r
 ead,tcheck) scf=(maxcycle=1)\\title\\0,1\C,0,-1.93678528,1.2133615,-0.
 17550745\C,0,-1.17262715,-1.062436,0.12830479\N,0,0.09397906,-0.688442
 01,0.33105817\C,0,0.25851438,0.37638412,1.22942248\C,0,1.03285675,-0.9
 4142174,-0.72048145\O,0,0.75162779,-1.69819214,-1.60666424\C,0,2.36373
 629,-0.24942987,-0.63422772\H,0,-2.91603169,0.74412208,-0.11033023\H,0
 ,-1.64832816,1.28699504,-1.22439719\H,0,-2.04207689,2.22726192,0.22441

 Normal termination of Gaussian 16 at Wed Apr  9 18:50:15 2025.
