 Gaussian 16, Revision C.01,

 ----------------------------------------------------------------------
 #t hf aug-cc-pvdz symm=none int=(grid=ultrafine) guess=(read,tcheck) s
 table=(opt,rrhf)
 ----------------------------------------------------------------------
 -----
 title
 -----
 Symbolic Z-matrix:
 Charge =  0 Multiplicity = 1

 SCF Done:  E(RHF) =  -299.502631283     A.U. after   16 cycles
 Normal termination of Gaussian 16 at Wed Apr  9 03:08:42 2025.
 Gaussian 16:  ES64L-G16RevC.01  3-Jul-2019

 ----------------------------------------------------------------------
 #t hf aug-cc-pvdz iop(5/13=1,5/36=2,99/5=2) pseudo=read geom=check gue
 ss=(read,tcheck) scf=(maxcycle=1)
 ----------------------------------------------------------------------
 -----
 title
 -----
 Structure from the checkpoint file:  "Grambow2020_b97d3_006604_forward_mol1.chk"
 Charge =  0 Multiplicity = 1

                         Standard orientation:
 ---------------------------------------------------------------------
 Center     Atomic      Atomic             Coordinates (Angstroms)
 Number     Number       Type             X           Y           Z
 ---------------------------------------------------------------------
      1          6           0        2.082924   -0.118540    0.000135
      2          6           0        0.597162    0.168970   -0.000351
      3          7           0        0.068048    1.322387   -0.000072
      4          6           0       -1.824798    0.467713    0.000107
      5          7           0       -1.513947   -0.730328    0.000081
      6          8           0       -0.116153   -1.022484   -0.000111
      7          1           0        2.645408    0.817577   -0.003265
      8          1           0        2.345571   -0.711383   -0.885476
      9          1           0        2.345861   -0.705025    0.889894
     10          1           0       -1.418052    1.525437    0.000314
 ---------------------------------------------------------------------

 SCF Done:  E(RHF) =  -299.794533064     A.U. after    2 cycles

 The electronic state is 1-A.
 Alpha  occ. eigenvalues --  -20.65463 -15.60636 -15.54284 -11.37661 -11.34683
 Alpha  occ. eigenvalues --  -11.27682  -1.56723  -1.24192  -1.22697  -1.02148
 Alpha  occ. eigenvalues --   -0.87729  -0.83160  -0.70667  -0.68921  -0.63973
 Alpha  occ. eigenvalues --   -0.61157  -0.60407  -0.58917  -0.55991  -0.49958
 Alpha  occ. eigenvalues --   -0.47038  -0.40110
 Alpha virt. eigenvalues --    0.02546   0.03680   0.05141   0.05300   0.05569
 Alpha virt. eigenvalues --    0.08001   0.08525   0.10045   0.12510   0.12554
 Alpha virt. eigenvalues --    0.13417   0.14248   0.14719   0.14931   0.15506

 Mulliken charges:
               1
     1  C   -0.274493
     2  C   -0.231760
     3  N    0.427144
     4  C   -0.703622
     5  N    1.218788
     6  O   -1.425275
     7  H    0.170736
     8  H    0.256194
     9  H    0.256984
    10  H    0.305305
 Sum of Mulliken charges =  -0.00000

 Dipole moment (field-independent basis, Debye):
    X=              1.8292    Y=             -0.0612    Z=              0.0005  Tot=              1.8302

 Test job not archived.
 1\1\GINC-SE054\SP\RHF\Aug-CC-pVDZ\C3H4N2O1\OHZDE\09-Apr-2025\0\\#t hf
 aug-cc-pvdz iop(5/13=1,5/36=2,99/5=2) pseudo=read geom=check guess=(re
 ad,tcheck) scf=(maxcycle=1)\\title\\0,1\C,0,-1.57518765,0.06829618,0.0
 6214684\C,0,-0.06191389,0.05608662,0.05999706\N,0,0.68344032,0.7566378
 9,0.81100134\C,0,2.3715216,-0.0768202,-0.06595959\N,0,1.83141285,-0.83
 715628,-0.87965538\O,0,0.40347721,-0.84066933,-0.89269434\H,0,-1.94285
 404,0.77081012,0.81315313\H,0,-1.95322501,-0.93869537,0.28079912\H,0,-
 1.9441122,0.36010816,-0.92957433\H,0,2.18045982,0.6883992,0.74777116\\

 Normal termination of Gaussian 16 at Wed Apr  9 03:08:45 2025.
