 Gaussian 16, Revision C.01,

 ----------------------------------------------------------------------
 #t hf aug-cc-pvdz symm=none int=(grid=ultrafine) guess=(read,tcheck) s
 table=(opt,rrhf)
 ----------------------------------------------------------------------
 -----
 title
 -----
 Symbolic Z-matrix:
 Charge =  0 Multiplicity = 1

 SCF Done:  E(RHF) =  -359.662902288     A.U. after   15 cycles
 Normal termination of Gaussian 16 at Wed Apr  9 03:46:31 2025.
 Gaussian 16:  ES64L-G16RevC.01  3-Jul-2019

 ----------------------------------------------------------------------
 #t hf aug-cc-pvdz iop(5/13=1,5/36=2,99/5=2) pseudo=read geom=check gue
 ss=(read,tcheck) scf=(maxcycle=1)
 ----------------------------------------------------------------------
 -----
 title
 -----
 Structure from the checkpoint file:  "Grambow2020_wb97xd3_007902_reverse_mol2.chk"
 Charge =  0 Multiplicity = 1

                         Standard orientation:
 ---------------------------------------------------------------------
 Center     Atomic      Atomic             Coordinates (Angstroms)
 Number     Number       Type             X           Y           Z
 ---------------------------------------------------------------------
      1          6           0       -2.144433   -1.184109    0.078089
      2          6           0       -0.964637   -0.307698    0.380290
      3          7           0       -0.668691    0.769459   -0.526017
      4          8           0       -0.230426    1.917866    0.183118
      5          6           0        0.289223   -0.347752   -0.434991
      6          6           0        1.584579   -0.190591    0.271651
      7          8           0        2.568392   -0.806140   -0.041770
      8          1           0       -2.243053   -1.337829   -0.996583
      9          1           0       -2.026852   -2.157104    0.557961
     10          1           0       -3.064803   -0.727279    0.445453
     11          1           0       -0.397662    2.623606   -0.445363
     12          1           0        0.334023   -0.961376   -1.327510
     13          1           0        1.592248    0.514609    1.121837
     14          1           0       -0.805177   -0.053742    1.425306
 ---------------------------------------------------------------------

 SCF Done:  E(RHF) =  -360.030659488     A.U. after    2 cycles

 The electronic state is 1-A.
 Alpha  occ. eigenvalues --  -20.59645 -20.54882 -15.58309 -11.34508 -11.29340
 Alpha  occ. eigenvalues --  -11.28279 -11.24795  -1.51249  -1.48222  -1.26841
 Alpha  occ. eigenvalues --   -1.01379  -0.96044  -0.83974  -0.82542  -0.73690
 Alpha  occ. eigenvalues --   -0.70916  -0.66473  -0.63631  -0.62647  -0.60632
 Alpha  occ. eigenvalues --   -0.58326  -0.55761  -0.54193  -0.51395  -0.46770
 Alpha  occ. eigenvalues --   -0.42879  -0.41874
 Alpha virt. eigenvalues --    0.03476   0.04021   0.04225   0.04791   0.05778
 Alpha virt. eigenvalues --    0.05987   0.07113   0.10273   0.10400   0.12013
 Alpha virt. eigenvalues --    0.12802   0.13387   0.13858   0.14561   0.15280

 Mulliken charges:
               1
     1  C   -0.578302
     2  C   -0.530764
     3  N    1.283769
     4  O   -1.146088
     5  C    0.411843
     6  C    0.914103
     7  O   -1.167112
     8  H    0.182101
     9  H    0.258453
    10  H    0.231467
    11  H    0.302124
    12  H   -0.228650
    13  H    0.155323
    14  H   -0.088269
 Sum of Mulliken charges =   0.00000

 Dipole moment (field-independent basis, Debye):
    X=             -2.9029    Y=              0.6721    Z=              0.5815  Tot=              3.0359

 Test job not archived.
 1\1\GINC-SE070\SP\RHF\Aug-CC-pVDZ\C4H7N1O2\OHZDE\09-Apr-2025\0\\#t hf
 aug-cc-pvdz iop(5/13=1,5/36=2,99/5=2) pseudo=read geom=check guess=(re
 ad,tcheck) scf=(maxcycle=1)\\title\\0,1\C,0,-1.34474085,-1.47307312,0.
 0378532\C,0,-0.33891692,-0.41238924,0.37639114\N,0,-0.60737021,0.93709
 178,-0.04322403\O,0,-0.19069719,1.86437205,0.94688956\C,0,0.52699636,0
 .22736331,-0.66253272\C,0,1.927338,0.55466403,-0.29659891\O,0,2.840664
 86,0.43128704,-1.06837185\H,0,-1.78248666,-1.28776576,-0.94312361\H,0,
 -0.87014555,-2.45563576,0.02552141\H,0,-2.14880251,-1.48760106,0.77541

 Normal termination of Gaussian 16 at Wed Apr  9 03:46:36 2025.
