 Gaussian 16, Revision C.01,

 ----------------------------------------------------------------------
 #t hf aug-cc-pvdz symm=none int=(grid=ultrafine) guess=(read,tcheck) s
 table=(opt,rrhf)
 ----------------------------------------------------------------------
 -----
 title
 -----
 Symbolic Z-matrix:
 Charge =  0 Multiplicity = 1

 SCF Done:  E(RHF) =  -286.703093179     A.U. after   15 cycles
 Normal termination of Gaussian 16 at Wed Apr  9 18:42:42 2025.
 Gaussian 16:  ES64L-G16RevC.01  3-Jul-2019

 ----------------------------------------------------------------------
 #t hf aug-cc-pvdz iop(5/13=1,5/36=2,99/5=2) pseudo=read geom=check gue
 ss=(read,tcheck) scf=(maxcycle=1)
 ----------------------------------------------------------------------
 -----
 title
 -----
 Structure from the checkpoint file:  "Grambow2020_wb97xd3_007990_reverse_mol1.chk"
 Charge =  0 Multiplicity = 1

                         Standard orientation:
 ---------------------------------------------------------------------
 Center     Atomic      Atomic             Coordinates (Angstroms)
 Number     Number       Type             X           Y           Z
 ---------------------------------------------------------------------
      1          6           0        3.457357    0.401616    0.101048
      2          6           0        2.092836   -0.097960   -0.021725
      3          6           0        0.971090   -0.506635   -0.127863
      4          6           0       -0.411864   -0.966817   -0.244133
      5          6           0       -1.373687   -0.015477    0.444779
      6          6           0       -1.707392    1.294017   -0.171876
      7          7           0       -2.767866   -0.179222    0.002654
      8          1           0        3.657612    0.736936    1.119732
      9          1           0        3.621333    1.245715   -0.570512
     10          1           0        4.179528   -0.376926   -0.148938
     11          1           0       -0.506250   -1.966419    0.189331
     12          1           0       -0.695967   -1.046719   -1.296871
     13          1           0       -1.251409   -0.012957    1.526648
     14          1           0       -1.465926    1.166031   -1.241720
     15          1           0       -3.001062    0.935118   -0.324550
     16          1           0       -3.332836   -0.078696    0.846916
 ---------------------------------------------------------------------

 SCF Done:  E(RHF) =  -287.009261783     A.U. after    2 cycles

 The electronic state is 1-A.
 Alpha  occ. eigenvalues --  -15.55970 -11.28680 -11.26217 -11.26021 -11.25624
 Alpha  occ. eigenvalues --  -11.23214 -11.22642  -1.27414  -1.08050  -1.03037
 Alpha  occ. eigenvalues --   -0.95356  -0.91617  -0.83200  -0.71873  -0.65632
 Alpha  occ. eigenvalues --   -0.63366  -0.62351  -0.61456  -0.59446  -0.59269
 Alpha  occ. eigenvalues --   -0.57736  -0.51828  -0.47856  -0.38535  -0.37949
 Alpha  occ. eigenvalues --   -0.36340
 Alpha virt. eigenvalues --    0.03234   0.03474   0.04396   0.04618   0.05454
 Alpha virt. eigenvalues --    0.06156   0.06437   0.06898   0.08631   0.09053
 Alpha virt. eigenvalues --    0.10138   0.11945   0.12529   0.14027   0.14370

 Mulliken charges:
               1
     1  C   -0.943290
     2  C   -0.412501
     3  C    0.895291
     4  C   -0.948088
     5  C   -0.476140
     6  C   -0.395585
     7  N    0.252549
     8  H    0.268659
     9  H    0.274654
    10  H    0.267743
    11  H    0.281054
    12  H    0.270463
    13  H   -0.114780
    14  H    0.159498
    15  H    0.254616
    16  H    0.365857
 Sum of Mulliken charges =  -0.00000

 Dipole moment (field-independent basis, Debye):
    X=              0.5124    Y=             -0.8735    Z=              0.7347  Tot=              1.2511

 Test job not archived.
 1\1\GINC-SE173\SP\RHF\Aug-CC-pVDZ\C6H9N1\OHZDE\09-Apr-2025\0\\#t hf au
 g-cc-pvdz iop(5/13=1,5/36=2,99/5=2) pseudo=read geom=check guess=(read
 ,tcheck) scf=(maxcycle=1)\\title\\0,1\C,0,2.63608869,0.49788505,2.2226
 0383\C,0,1.62539916,-0.05978734,1.3314946\C,0,0.79757391,-0.51628957,0
 .59467285\C,0,-0.23282922,-1.03529399,-0.30352056\C,0,-1.44030601,-0.1
 164666,-0.3535721\C,0,-1.37631932,1.17013386,-1.09314078\N,0,-2.293820
 65,-0.34385354,-1.53078484\H,0,2.18278449,0.85397234,3.14887331\H,0,3.
 14492364,1.33965233,1.7504808\H,0,3.38552962,-0.25284817,2.47733763\H,

 Normal termination of Gaussian 16 at Wed Apr  9 18:42:47 2025.
