 Gaussian 16, Revision C.01,

 ----------------------------------------------------------------------
 #t hf aug-cc-pvdz symm=none int=(grid=ultrafine) guess=(read,tcheck) s
 table=(opt,rrhf)
 ----------------------------------------------------------------------
 -----
 title
 -----
 Symbolic Z-matrix:
 Charge =  0 Multiplicity = 1

 SCF Done:  E(RHF) =  -360.749911184     A.U. after   15 cycles
 Normal termination of Gaussian 16 at Wed Apr  9 17:29:50 2025.
 Gaussian 16:  ES64L-G16RevC.01  3-Jul-2019

 ----------------------------------------------------------------------
 #t hf aug-cc-pvdz iop(5/13=1,5/36=2,99/5=2) pseudo=read geom=check gue
 ss=(read,tcheck) scf=(maxcycle=1)
 ----------------------------------------------------------------------
 -----
 title
 -----
 Structure from the checkpoint file:  "Grambow2020_wb97xd3_006616_reverse_mol1.chk"
 Charge =  0 Multiplicity = 1

                         Standard orientation:
 ---------------------------------------------------------------------
 Center     Atomic      Atomic             Coordinates (Angstroms)
 Number     Number       Type             X           Y           Z
 ---------------------------------------------------------------------
      1          6           0       -1.978114    0.787284    0.379214
      2          6           0       -0.917362   -0.293411    0.351341
      3          8           0       -1.118323   -1.140654   -0.716520
      4          6           0        0.520612    1.164977   -0.713435
      5          7           0        1.683614    1.007252   -0.091811
      6          6           0        0.980303   -0.288094    0.565229
      7          8           0        1.323535   -1.383192    0.132561
      8          1           0       -1.752802    1.546682    1.131556
      9          1           0       -2.936794    0.334220    0.642349
     10          1           0       -2.102279    1.265643   -0.593240
     11          1           0       -0.972571   -0.842415    1.298168
     12          1           0       -0.347413   -1.740064   -0.697013
     13          1           0        0.290137    0.492582   -1.533879
     14          1           0       -0.052224    2.085870   -0.640271
     15          1           0        1.858867    1.722320    0.605770
     16          1           0        0.955452    0.050626    1.606813
 ---------------------------------------------------------------------

 SCF Done:  E(RHF) =  -361.126195079     A.U. after    2 cycles

 The electronic state is 1-A.
 Alpha  occ. eigenvalues --  -20.54023 -20.48106 -15.54304 -11.37157 -11.37083
 Alpha  occ. eigenvalues --  -11.30637 -11.24642  -1.46742  -1.42775  -1.28444
 Alpha  occ. eigenvalues --   -1.03233  -0.93236  -0.88862  -0.80708  -0.77681
 Alpha  occ. eigenvalues --   -0.72228  -0.68050  -0.64503  -0.62141  -0.61253
 Alpha  occ. eigenvalues --   -0.58890  -0.56390  -0.55833  -0.51808  -0.48355
 Alpha  occ. eigenvalues --   -0.44968  -0.40311  -0.33341
 Alpha virt. eigenvalues --    0.02053   0.02765   0.03727   0.04995   0.05912
 Alpha virt. eigenvalues --    0.06037   0.06542   0.07135   0.08289   0.09572
 Alpha virt. eigenvalues --    0.10500   0.12130   0.12721   0.14039   0.14350

 Mulliken charges:
               1
     1  C   -0.327899
     2  C    0.701475
     3  O   -1.331659
     4  C   -0.574586
     5  N    0.446146
     6  C    0.958147
     7  O   -1.473421
     8  H    0.214700
     9  H    0.084426
    10  H    0.204584
    11  H   -0.033604
    12  H    0.341012
    13  H    0.292806
    14  H    0.028188
    15  H    0.289273
    16  H    0.180413
 Sum of Mulliken charges =  -0.00000

 Dipole moment (field-independent basis, Debye):
    X=             -1.7990    Y=              5.2414    Z=              1.3989  Tot=              5.7154

 Test job not archived.
 1\1\GINC-SE113\SP\RHF\Aug-CC-pVDZ\C4H9N1O2\OHZDE\09-Apr-2025\0\\#t hf
 aug-cc-pvdz iop(5/13=1,5/36=2,99/5=2) pseudo=read geom=check guess=(re
 ad,tcheck) scf=(maxcycle=1)\\title\\0,1\C,0,-1.45122068,-0.88944718,-0
 .52597465\C,0,-0.38722642,0.15345072,-0.79828426\O,0,-0.92859343,1.419
 7038,-0.75291586\C,0,0.26391508,0.04651933,1.41372652\N,0,1.59098704,0
 .01203205,1.37423958\C,0,1.40052002,0.4104447,-0.17793923\O,0,1.649806
 03,1.57118515,-0.48581572\H,0,-1.01425635,-1.8848436,-0.41772478\H,0,-
 2.14028309,-0.92030853,-1.37321367\H,0,-2.03985606,-0.65317545,0.36149

 Normal termination of Gaussian 16 at Wed Apr  9 17:29:56 2025.
