 Gaussian 16, Revision C.01,

 ----------------------------------------------------------------------
 #t hf aug-cc-pvdz symm=none int=(grid=ultrafine) guess=(read,tcheck) s
 table=(opt,rrhf)
 ----------------------------------------------------------------------
 -----
 title
 -----
 Symbolic Z-matrix:
 Charge =  0 Multiplicity = 1

 SCF Done:  E(RHF) =  -345.908672390     A.U. after   15 cycles

 1\1\GINC-SE362\Stability\RHF\Aug-CC-pVDZ\C5H12O2\OHZDE\09-Apr-2025\0\\
 #t hf aug-cc-pvdz symm=none int=(grid=ultrafine) guess=(read,tcheck) s
 table=(opt,rrhf)\\title\\0,1\C,0,1.86018115,0.73833508,1.28233648\C,0,
 0.93713866,-0.42583555,1.06765488\C,0,0.53982643,-0.79418636,-0.197896
 41\O,0,-0.06560624,-2.01144401,-0.41869067\C,0,-0.89797898,0.74116914,
 -0.7300763\C,0,-1.57825918,-0.03123208,-1.83009659\O,0,-1.56589679,1.0
 7335226,0.28837951\H,0,2.90050236,0.41100846,1.21607403\H,0,1.70043116
 ,1.51079521,0.52920233\H,0,1.71174426,1.19131876,2.26216668\H,0,0.9284

 Normal termination of Gaussian 16 at Wed Apr  9 18:47:56 2025.
 Gaussian 16:  ES64L-G16RevC.01  3-Jul-2019

 ----------------------------------------------------------------------
 #t hf aug-cc-pvdz iop(5/13=1,5/36=2,99/5=2) pseudo=read geom=check gue
 ss=(read,tcheck) scf=(maxcycle=1)
 ----------------------------------------------------------------------
 -----
 title
 -----
 Structure from the checkpoint file:  "Grambow2020_wb97xd3_008071_reverse_mol1.chk"
 Charge =  0 Multiplicity = 1

                         Standard orientation:
 ---------------------------------------------------------------------
 Center     Atomic      Atomic             Coordinates (Angstroms)
 Number     Number       Type             X           Y           Z
 ---------------------------------------------------------------------
      1          6           0       -2.385473   -0.666455   -0.484084
      2          6           0       -1.516149    0.287758    0.282169
      3          6           0       -0.393635    0.842799   -0.289714
      4          8           0        0.236717    1.917513    0.297365
      5          6           0        1.020984   -0.802378   -0.297444
      6          6           0        2.262843    0.036636   -0.449988
      7          8           0        0.875477   -1.496688    0.746814
      8          1           0       -3.135590   -0.115527   -1.056452
      9          1           0       -1.795939   -1.260384   -1.183457
     10          1           0       -2.907615   -1.354063    0.180640
     11          1           0       -1.989708    0.831178    1.094999
     12          1           0       -0.990897   -0.673124    1.456585
     13          1           0       -0.263871    0.838859   -1.362764
     14          1           0        0.163010    1.843739    1.251883
     15          1           0        0.604362   -1.207517   -1.232624
     16          1           0        2.458671    0.608929    0.455252
     17          1           0        3.105621   -0.639485   -0.616105
     18          1           0        2.196449    0.722464   -1.294783
     19          1           0       -0.273467   -1.151836    1.387762
 ---------------------------------------------------------------------

 SCF Done:  E(RHF) =  -346.274547024     A.U. after    2 cycles

 The electronic state is 1-A.
 Alpha  occ. eigenvalues --  -20.56603 -20.52681 -11.32442 -11.28798 -11.28544
 Alpha  occ. eigenvalues --  -11.24947 -11.22906  -1.47813  -1.44656  -1.08759
 Alpha  occ. eigenvalues --   -1.00822  -0.94113  -0.83375  -0.79646  -0.70504
 Alpha  occ. eigenvalues --   -0.69624  -0.65650  -0.64516  -0.60790  -0.59334
 Alpha  occ. eigenvalues --   -0.57719  -0.56125  -0.55369  -0.54201  -0.53244
 Alpha  occ. eigenvalues --   -0.51669  -0.42385  -0.40315  -0.31704
 Alpha virt. eigenvalues --    0.03091   0.03346   0.03948   0.04442   0.05817
 Alpha virt. eigenvalues --    0.05915   0.06240   0.07490   0.08747   0.08978
 Alpha virt. eigenvalues --    0.09185   0.09737   0.10939   0.12719   0.13616

 Mulliken charges:
               1
     1  C   -0.398732
     2  C   -0.431129
     3  C    1.405607
     4  O   -1.454075
     5  C    1.014370
     6  C   -0.413562
     7  O   -1.515167
     8  H    0.236487
     9  H    0.114295
    10  H    0.171866
    11  H   -0.086279
    12  H    0.370564
    13  H   -0.044959
    14  H    0.274343
    15  H    0.126327
    16  H    0.201903
    17  H    0.147822
    18  H    0.185676
    19  H    0.094645
 Sum of Mulliken charges =  -0.00000

 Dipole moment (field-independent basis, Debye):
    X=             -1.7113    Y=              0.9065    Z=             -1.0830  Tot=              2.2188

 Test job not archived.
 1\1\GINC-SE362\SP\RHF\Aug-CC-pVDZ\C5H12O2\OHZDE\09-Apr-2025\0\\#t hf a
 ug-cc-pvdz iop(5/13=1,5/36=2,99/5=2) pseudo=read geom=check guess=(rea
 d,tcheck) scf=(maxcycle=1)\\title\\0,1\C,0,1.86018115,0.73833508,1.282
 33648\C,0,0.93713866,-0.42583555,1.06765488\C,0,0.53982643,-0.79418636
 ,-0.19789641\O,0,-0.06560624,-2.01144401,-0.41869067\C,0,-0.89797898,0
 .74116914,-0.7300763\C,0,-1.57825918,-0.03123208,-1.83009659\O,0,-1.56
 589679,1.07335226,0.28837951\H,0,2.90050236,0.41100846,1.21607403\H,0,
 1.70043116,1.51079521,0.52920233\H,0,1.71174426,1.19131876,2.26216668\

 Normal termination of Gaussian 16 at Wed Apr  9 18:48:03 2025.
