 Gaussian 16, Revision C.01,

 ----------------------------------------------------------------------
 #t hf aug-cc-pvdz symm=none int=(grid=ultrafine) guess=(read,tcheck) s
 table=(opt,rrhf)
 ----------------------------------------------------------------------
 -----
 title
 -----
 Symbolic Z-matrix:
 Charge =  0 Multiplicity = 1

 SCF Done:  E(RHF) =  -301.616589294     A.U. after   16 cycles
 Normal termination of Gaussian 16 at Wed Apr  9 18:38:28 2025.
 Gaussian 16:  ES64L-G16RevC.01  3-Jul-2019

 ----------------------------------------------------------------------
 #t hf aug-cc-pvdz iop(5/13=1,5/36=2,99/5=2) pseudo=read geom=check gue
 ss=(read,tcheck) scf=(maxcycle=1)
 ----------------------------------------------------------------------
 -----
 title
 -----
 Structure from the checkpoint file:  "Grambow2020_wb97xd3_007928_reverse_mol2.chk"
 Charge =  0 Multiplicity = 1

                         Standard orientation:
 ---------------------------------------------------------------------
 Center     Atomic      Atomic             Coordinates (Angstroms)
 Number     Number       Type             X           Y           Z
 ---------------------------------------------------------------------
      1          6           0        1.615098    0.796682    0.023184
      2          6           0        1.656261   -0.762478    0.003761
      3          6           0        0.147024   -0.647815   -0.026018
      4          7           0       -1.032220   -1.272960    0.008051
      5          6           0       -1.977560   -0.295369    0.017218
      6          6           0       -1.254903    1.061980    0.004365
      7          7           0        0.142677    0.658644   -0.052258
      8          1           0        2.050544    1.300579   -0.838550
      9          1           0        1.959234    1.258372    0.948112
     10          1           0        2.096125   -1.208725   -0.885643
     11          1           0        2.057267   -1.237062    0.896878
     12          1           0       -1.490248    1.617393    0.915086
     13          1           0       -1.561647    1.651656   -0.861500
 ---------------------------------------------------------------------

 SCF Done:  E(RHF) =  -301.927291545     A.U. after    2 cycles

 The electronic state is 1-A.
 Alpha  occ. eigenvalues --  -15.54926 -15.47370 -11.34305 -11.32403 -11.29041
 Alpha  occ. eigenvalues --  -11.27903 -11.24690  -1.37216  -1.20921  -1.09132
 Alpha  occ. eigenvalues --   -0.96563  -0.93970  -0.81841  -0.75867  -0.73096
 Alpha  occ. eigenvalues --   -0.72951  -0.63821  -0.59681  -0.58051  -0.57706
 Alpha  occ. eigenvalues --   -0.55249  -0.51468  -0.47683  -0.42512  -0.32971
 Alpha virt. eigenvalues --    0.02365   0.03409   0.03649   0.04403   0.04782
 Alpha virt. eigenvalues --    0.06902   0.06986   0.08517   0.08554   0.10014
 Alpha virt. eigenvalues --    0.12137   0.13065   0.13315   0.13431   0.14368

 Mulliken charges:
               1
     1  C   -0.036447
     2  C    0.168011
     3  C   -1.468410
     4  N    0.931742
     5  C   -0.614897
     6  C   -0.119433
     7  N    0.648888
     8  H   -0.035510
     9  H   -0.026908
    10  H    0.139515
    11  H    0.145305
    12  H    0.144391
    13  H    0.123752
 Sum of Mulliken charges =  -0.00000

 Dipole moment (field-independent basis, Debye):
    X=              6.5538    Y=              3.6159    Z=              0.0464  Tot=              7.4853

 Test job not archived.
 1\1\GINC-SE103\SP\RHF\Aug-CC-pVDZ\C5H6N2\OHZDE\09-Apr-2025\0\\#t hf au
 g-cc-pvdz iop(5/13=1,5/36=2,99/5=2) pseudo=read geom=check guess=(read
 ,tcheck) scf=(maxcycle=1)\\title\\0,1\C,0,-1.26162587,-0.52127118,0.38
 123465\C,0,-1.26604298,1.02397603,0.16853081\C,0,0.20534341,0.83141503
 ,-0.13108813\N,0,1.38434033,1.3964552,-0.40179172\C,0,2.28829386,0.381
 36295,-0.44527727\C,0,1.54252753,-0.92967848,-0.14561436\N,0,0.1712374
 ,-0.46706873,0.01145887\H,0,-1.86861932,-1.10416761,-0.31006939\H,0,-1
 .43149641,-0.84895633,1.40634249\H,0,-1.85853261,1.37978289,-0.6717158

 Normal termination of Gaussian 16 at Wed Apr  9 18:38:33 2025.
