 Gaussian 16, Revision C.01,

 ----------------------------------------------------------------------
 #t hf aug-cc-pvdz symm=none int=(grid=ultrafine) guess=(read,tcheck) s
 table=(opt,rrhf)
 ----------------------------------------------------------------------
 -----
 title
 -----
 Symbolic Z-matrix:
 Charge =  0 Multiplicity = 1

 SCF Done:  E(RHF) =  -374.481862883     A.U. after   14 cycles
 Normal termination of Gaussian 16 at Wed Apr  9 18:20:01 2025.
 Gaussian 16:  ES64L-G16RevC.01  3-Jul-2019

 ----------------------------------------------------------------------
 #t hf aug-cc-pvdz iop(5/13=1,5/36=2,99/5=2) pseudo=read geom=check gue
 ss=(read,tcheck) scf=(maxcycle=1)
 ----------------------------------------------------------------------
 -----
 title
 -----
 Structure from the checkpoint file:  "Grambow2020_wb97xd3_007332_reverse_mol2.chk"
 Charge =  0 Multiplicity = 1

                         Standard orientation:
 ---------------------------------------------------------------------
 Center     Atomic      Atomic             Coordinates (Angstroms)
 Number     Number       Type             X           Y           Z
 ---------------------------------------------------------------------
      1          7           0       -1.787775   -0.214891    0.698567
      2          6           0       -0.635583    0.041993   -0.181835
      3          6           0       -1.882426    0.050900   -0.856407
      4          8           0        0.378243   -0.977301   -0.229418
      5          6           0        1.314422   -0.003794    0.021044
      6          8           0        2.492968   -0.065458    0.044087
      7          7           0        0.360548    1.003532    0.217835
      8          1           0       -1.950504    0.488231    1.407300
      9          1           0       -1.980874   -1.162645    0.986823
     10          1           0       -2.278040    1.056136   -0.999150
     11          1           0        0.451836    1.905274   -0.223959
 ---------------------------------------------------------------------

 SCF Done:  E(RHF) =  -374.855553596     A.U. after    2 cycles

 The electronic state is 1-A.
 Alpha  occ. eigenvalues --  -20.61199 -20.55525 -15.60291 -15.56286 -11.43612
 Alpha  occ. eigenvalues --  -11.40413 -11.24424  -1.59149  -1.50002  -1.32715
 Alpha  occ. eigenvalues --   -1.25547  -1.01983  -0.87053  -0.86220  -0.82643
 Alpha  occ. eigenvalues --   -0.75920  -0.74089  -0.70291  -0.66624  -0.59682
 Alpha  occ. eigenvalues --   -0.57280  -0.56088  -0.52881  -0.48476  -0.46713
 Alpha  occ. eigenvalues --   -0.35423
 Alpha virt. eigenvalues --    0.01864   0.03675   0.04794   0.05246   0.08503
 Alpha virt. eigenvalues --    0.09096   0.09205   0.10055   0.11412   0.12169
 Alpha virt. eigenvalues --    0.13620   0.14492   0.14741   0.15125   0.16464

 Mulliken charges:
               1
     1  N    0.333202
     2  C   -0.246442
     3  C   -0.364135
     4  O   -1.299319
     5  C    1.391102
     6  O   -1.153951
     7  N    0.609625
     8  H    0.289444
     9  H    0.264964
    10  H   -0.029810
    11  H    0.205319
 Sum of Mulliken charges =  -0.00000

 Dipole moment (field-independent basis, Debye):
    X=             -3.0139    Y=              2.7677    Z=              2.6844  Tot=              4.8938

 Test job not archived.
 1\1\GINC-SE117\SP\RHF\Aug-CC-pVDZ\C3H4N2O2\OHZDE\09-Apr-2025\0\\#t hf
 aug-cc-pvdz iop(5/13=1,5/36=2,99/5=2) pseudo=read geom=check guess=(re
 ad,tcheck) scf=(maxcycle=1)\\title\\0,1\N,0,-1.39529154,0.120654,-0.26
 631557\C,0,0.02191385,0.3333666,0.07269149\C,0,-0.85354994,1.28245915,
 0.65795289\O,0,0.92392078,0.53718225,-1.02908459\C,0,1.72743836,-0.444
 85401,-0.50292548\O,0,2.79614659,-0.81795598,-0.83752896\N,0,0.8207093
 1,-0.78332969,0.51028085\H,0,-1.79339887,-0.74278281,0.0788672\H,0,-1.
 72983077,0.41116034,-1.17312618\H,0,-1.11388797,1.03808243,1.68746268\

 Normal termination of Gaussian 16 at Wed Apr  9 18:20:06 2025.
