 Gaussian 16, Revision C.01,

 ----------------------------------------------------------------------
 #t hf aug-cc-pvdz symm=none int=(grid=ultrafine) guess=(read,tcheck) s
 table=(opt,rrhf)
 ----------------------------------------------------------------------
 -----
 title
 -----
 Symbolic Z-matrix:
 Charge =  0 Multiplicity = 1

 SCF Done:  E(RHF) =  -302.693089761     A.U. after   15 cycles
 Normal termination of Gaussian 16 at Wed Apr  9 19:17:03 2025.
 Gaussian 16:  ES64L-G16RevC.01  3-Jul-2019

 ----------------------------------------------------------------------
 #t hf aug-cc-pvdz iop(5/13=1,5/36=2,99/5=2) pseudo=read geom=check gue
 ss=(read,tcheck) scf=(maxcycle=1)
 ----------------------------------------------------------------------
 -----
 title
 -----
 Structure from the checkpoint file:  "Grambow2020_wb97xd3_009047_reverse_mol1.chk"
 Charge =  0 Multiplicity = 1

                         Standard orientation:
 ---------------------------------------------------------------------
 Center     Atomic      Atomic             Coordinates (Angstroms)
 Number     Number       Type             X           Y           Z
 ---------------------------------------------------------------------
      1          7           0       -1.633958   -1.247761    0.275043
      2          6           0       -0.731636   -0.472208   -0.523852
      3          6           0       -0.470410    0.981788   -0.139351
      4          7           0       -0.766906    2.079885    0.267645
      5          6           0        0.734160   -0.847596   -0.512158
      6          6           0        1.488246   -0.581371    0.751124
      7          6           0        1.409761    0.485956   -0.296361
      8          1           0       -2.586690   -0.920047    0.208904
      9          1           0       -1.359181   -1.257402    1.247481
     10          1           0       -1.094755   -0.456927   -1.556296
     11          1           0        1.102132   -1.591543   -1.205051
     12          1           0        0.960108   -0.440749    1.690205
     13          1           0        2.420377   -1.123096    0.860674
     14          1           0        2.277015    0.798617   -0.866947
     15          1           0        0.506327    1.766861    0.145795
 ---------------------------------------------------------------------

 SCF Done:  E(RHF) =  -303.012884608     A.U. after    2 cycles

 The electronic state is 1-A.
 Alpha  occ. eigenvalues --  -15.51272 -15.50856 -11.34566 -11.30704 -11.25300
 Alpha  occ. eigenvalues --  -11.24674 -11.23178  -1.28590  -1.22131  -1.15947
 Alpha  occ. eigenvalues --   -0.98410  -0.83185  -0.81378  -0.76075  -0.72234
 Alpha  occ. eigenvalues --   -0.69649  -0.67183  -0.63993  -0.59827  -0.58486
 Alpha  occ. eigenvalues --   -0.53665  -0.51489  -0.47172  -0.44676  -0.42750
 Alpha  occ. eigenvalues --   -0.33880
 Alpha virt. eigenvalues --    0.03385   0.03699   0.03871   0.04358   0.05455
 Alpha virt. eigenvalues --    0.06104   0.07166   0.08340   0.09549   0.11251
 Alpha virt. eigenvalues --    0.11784   0.12427   0.13169   0.13695   0.14299

 Mulliken charges:
               1
     1  N    0.571182
     2  C   -1.482874
     3  C   -1.305108
     4  N    0.864639
     5  C    0.863118
     6  C    0.317778
     7  C   -0.389418
     8  H    0.170795
     9  H    0.194331
    10  H    0.151767
    11  H   -0.188560
    12  H   -0.106613
    13  H   -0.151451
    14  H   -0.273587
    15  H    0.764000
 Sum of Mulliken charges =  -0.00000

 Dipole moment (field-independent basis, Debye):
    X=              1.0520    Y=             -2.1967    Z=             -0.6183  Tot=              2.5128

 Test job not archived.
 1\1\GINC-SE229\SP\RHF\Aug-CC-pVDZ\C5H8N2\OHZDE\09-Apr-2025\0\\#t hf au
 g-cc-pvdz iop(5/13=1,5/36=2,99/5=2) pseudo=read geom=check guess=(read
 ,tcheck) scf=(maxcycle=1)\\title\\0,1\N,0,2.0448432,0.21506584,-0.4666
 6252\C,0,0.93589222,-0.53729205,0.04135822\C,0,0.23320489,-0.05122993,
 1.30633149\N,0,0.17223426,0.4388832,2.40880355\C,0,-0.33642393,-0.5730
 4617,-0.77689991\C,0,-1.12316255,0.69589816,-0.85579983\C,0,-1.3960121
 5,-0.26967208,0.25586526\H,0,2.84481286,0.18604354,0.1487032\H,0,1.796
 99635,1.1803634,-0.63400932\H,0,1.26517719,-1.56081268,0.24631524\H,0,

 Normal termination of Gaussian 16 at Wed Apr  9 19:17:08 2025.
