 Gaussian 16, Revision C.01,

 ----------------------------------------------------------------------
 #t hf aug-cc-pvdz symm=none int=(grid=ultrafine) guess=(read,tcheck) s
 table=(opt,rrhf)
 ----------------------------------------------------------------------
 -----
 title
 -----
 Symbolic Z-matrix:
 Charge =  0 Multiplicity = 1

 SCF Done:  E(RHF) =  -302.716359380     A.U. after   18 cycles
 Normal termination of Gaussian 16 at Wed Apr  9 19:19:11 2025.
 Gaussian 16:  ES64L-G16RevC.01  3-Jul-2019

 ----------------------------------------------------------------------
 #t hf aug-cc-pvdz iop(5/13=1,5/36=2,99/5=2) pseudo=read geom=check gue
 ss=(read,tcheck) scf=(maxcycle=1)
 ----------------------------------------------------------------------
 -----
 title
 -----
 Structure from the checkpoint file:  "Grambow2020_wb97xd3_009330_forward_mol1.chk"
 Charge =  0 Multiplicity = 1

                         Standard orientation:
 ---------------------------------------------------------------------
 Center     Atomic      Atomic             Coordinates (Angstroms)
 Number     Number       Type             X           Y           Z
 ---------------------------------------------------------------------
      1          6           0        2.437611   -0.448169    0.021981
      2          7           0        1.043757   -0.096266   -0.094125
      3          6           0       -0.012677   -0.924118   -0.005145
      4          6           0       -1.218445   -0.125442    0.045013
      5          6           0       -2.597901   -0.494818   -0.167590
      6          6           0       -0.614295    1.224342    0.020165
      7          7           0        0.681736    1.200041   -0.048567
      8          1           0        2.748549   -0.499528    1.068105
      9          1           0        3.022962    0.311768   -0.490069
     10          1           0        2.604340   -1.414444   -0.452317
     11          1           0        0.094852   -1.995855    0.036005
     12          1           0       -1.181593   -0.338720    1.179792
     13          1           0       -2.847874   -1.545762   -0.082843
     14          1           0       -3.339311    0.202512    0.201627
     15          1           0       -1.146136    2.162829    0.051999
 ---------------------------------------------------------------------

 SCF Done:  E(RHF) =  -303.034668852     A.U. after    2 cycles

 The electronic state is 1-A.
 Alpha  occ. eigenvalues --  -15.61226 -15.56307 -11.33438 -11.30658 -11.29825
 Alpha  occ. eigenvalues --  -11.27915 -11.15552  -1.41665  -1.18347  -1.12669
 Alpha  occ. eigenvalues --   -1.01094  -0.93020  -0.83023  -0.82074  -0.75502
 Alpha  occ. eigenvalues --   -0.72044  -0.67376  -0.62118  -0.61741  -0.60604
 Alpha  occ. eigenvalues --   -0.57320  -0.53462  -0.53362  -0.48493  -0.42995
 Alpha  occ. eigenvalues --   -0.21435
 Alpha virt. eigenvalues --    0.02296   0.03717   0.04005   0.04504   0.04966
 Alpha virt. eigenvalues --    0.05989   0.06003   0.06408   0.08732   0.09204
 Alpha virt. eigenvalues --    0.09842   0.11673   0.12436   0.12856   0.14056

 Mulliken charges:
               1
     1  C   -0.139592
     2  N    0.119235
     3  C   -0.374763
     4  C   -0.135751
     5  C    0.120048
     6  C   -0.556620
     7  N    0.394718
     8  H    0.219539
     9  H    0.114242
    10  H    0.128893
    11  H   -0.271367
    12  H    0.788754
    13  H   -0.150261
    14  H   -0.113495
    15  H   -0.143581
 Sum of Mulliken charges =   0.00000

 Dipole moment (field-independent basis, Debye):
    X=              4.5732    Y=             -1.5021    Z=              1.9342  Tot=              5.1876

 Test job not archived.
 1\1\GINC-SE117\SP\RHF\Aug-CC-pVDZ\C5H8N2\OHZDE\09-Apr-2025\0\\#t hf au
 g-cc-pvdz iop(5/13=1,5/36=2,99/5=2) pseudo=read geom=check guess=(read
 ,tcheck) scf=(maxcycle=1)\\title\\0,1\C,0,-2.43772288,-0.21745013,-0.3
 9928763\N,0,-1.08615202,0.05922476,0.02125012\C,0,-0.01269055,-0.73902
 942,-0.11938675\C,0,1.17024406,0.0166833,0.23252385\C,0,2.50673998,-0.
 42712463,0.55088093\C,0,0.54319,1.32474498,0.52115751\N,0,-0.74699873,
 1.31250198,0.37876669\H,0,-2.58085693,0.01796954,-1.45654247\H,0,-3.11
 050377,0.39227749,0.19898699\H,0,-2.6572702,-1.27094927,-0.2308174\H,0

 Normal termination of Gaussian 16 at Wed Apr  9 19:19:16 2025.
