 Gaussian 16, Revision C.01,

 ----------------------------------------------------------------------
 #t hf aug-cc-pvdz symm=none int=(grid=ultrafine) guess=(read,tcheck) s
 table=(opt,rrhf)
 ----------------------------------------------------------------------
 -----
 title
 -----
 Symbolic Z-matrix:
 Charge =  0 Multiplicity = 1

 SCF Done:  E(RHF) =  -308.826076972     A.U. after   15 cycles

 1\1\GINC-SE366\Stability\RHF\Aug-CC-pVDZ\C6H12O1\OHZDE\09-Apr-2025\0\\
 #t hf aug-cc-pvdz symm=none int=(grid=ultrafine) guess=(read,tcheck) s
 table=(opt,rrhf)\\title\\0,1\C,0,1.49144534,0.96670003,0.30050681\C,0,
 0.65166731,-0.19140604,0.00706962\C,0,1.28166218,-1.37630477,-0.410529
 25\C,0,-0.69750849,0.13017294,-0.56250513\C,0,-1.8843601,-0.74793805,-
 0.27216939\C,0,-1.81877318,0.6159919,0.31575852\O,0,-1.64044993,0.6712
 36,1.70069643\H,0,2.27871524,0.61013133,-1.34974138\H,0,1.01748726,1.9
 2153348,0.50208581\H,0,2.45357308,0.79599512,0.76965169\H,0,0.63998836

 Normal termination of Gaussian 16 at Wed Apr  9 03:52:57 2025.
 Gaussian 16:  ES64L-G16RevC.01  3-Jul-2019

 ----------------------------------------------------------------------
 #t hf aug-cc-pvdz iop(5/13=1,5/36=2,99/5=2) pseudo=read geom=check gue
 ss=(read,tcheck) scf=(maxcycle=1)
 ----------------------------------------------------------------------
 -----
 title
 -----
 Structure from the checkpoint file:  "Grambow2020_wb97xd3_008287_forward_mol1.chk"
 Charge =  0 Multiplicity = 1

                         Standard orientation:
 ---------------------------------------------------------------------
 Center     Atomic      Atomic             Coordinates (Angstroms)
 Number     Number       Type             X           Y           Z
 ---------------------------------------------------------------------
      1          6           0       -1.490961    1.326081    0.284584
      2          6           0       -0.969968    0.023467   -0.120761
      3          6           0       -1.882903   -0.937868   -0.587291
      4          6           0        0.223476   -0.451986    0.652376
      5          6           0        1.272672   -1.309074   -0.002282
      6          6           0        1.599074    0.091454    0.374878
      7          8           0        1.793242    0.976292   -0.689201
      8          1           0       -2.723751    0.343086    1.276655
      9          1           0       -0.821839    2.033714    0.762610
     10          1           0       -2.315686    1.746005   -0.279703
     11          1           0       -0.639531    0.775569   -0.963049
     12          1           0       -2.739353   -0.628411   -1.174618
     13          1           0       -2.817612   -0.420690    0.960771
     14          1           0       -1.562743   -1.965071   -0.710905
     15          1           0       -0.007863   -0.662143    1.691955
     16          1           0        1.718962   -2.120401    0.556260
     17          1           0        1.154003   -1.488962   -1.063525
     18          1           0        2.257186    0.253618    1.223511
     19          1           0        1.643956    1.870906   -0.375374
 ---------------------------------------------------------------------

 SCF Done:  E(RHF) =  -309.157908330     A.U. after    2 cycles

 The electronic state is 1-A.
 Alpha  occ. eigenvalues --  -20.56570 -11.29710 -11.27981 -11.26390 -11.24613
 Alpha  occ. eigenvalues --  -11.23649 -11.22367  -1.47208  -1.16930  -1.09590
 Alpha  occ. eigenvalues --   -0.92787  -0.86021  -0.82608  -0.76702  -0.71744
 Alpha  occ. eigenvalues --   -0.69400  -0.66120  -0.62327  -0.61033  -0.59458
 Alpha  occ. eigenvalues --   -0.55948  -0.54546  -0.51679  -0.51003  -0.46778
 Alpha  occ. eigenvalues --   -0.42799  -0.40939  -0.26939
 Alpha virt. eigenvalues --    0.02715   0.03198   0.04080   0.04669   0.05571
 Alpha virt. eigenvalues --    0.05731   0.06386   0.06791   0.07625   0.07926
 Alpha virt. eigenvalues --    0.08496   0.10367   0.10571   0.12496   0.12686

 Mulliken charges:
               1
     1  C   -0.145023
     2  C   -1.138333
     3  C    0.284072
     4  C    0.609417
     5  C    0.030731
     6  C    1.427630
     7  O   -1.413655
     8  H    0.125076
     9  H   -0.088731
    10  H   -0.125986
    11  H    0.669278
    12  H   -0.121593
    13  H    0.160262
    14  H   -0.120611
    15  H   -0.186867
    16  H   -0.124039
    17  H   -0.092301
    18  H   -0.107335
    19  H    0.358007
 Sum of Mulliken charges =  -0.00000

 Dipole moment (field-independent basis, Debye):
    X=              1.1630    Y=              1.5656    Z=              0.4975  Tot=              2.0128

 Test job not archived.
 1\1\GINC-SE366\SP\RHF\Aug-CC-pVDZ\C6H12O1\OHZDE\09-Apr-2025\0\\#t hf a
 ug-cc-pvdz iop(5/13=1,5/36=2,99/5=2) pseudo=read geom=check guess=(rea
 d,tcheck) scf=(maxcycle=1)\\title\\0,1\C,0,1.49144534,0.96670003,0.300
 50681\C,0,0.65166731,-0.19140604,0.00706962\C,0,1.28166218,-1.37630477
 ,-0.41052925\C,0,-0.69750849,0.13017294,-0.56250513\C,0,-1.8843601,-0.
 74793805,-0.27216939\C,0,-1.81877318,0.6159919,0.31575852\O,0,-1.64044
 993,0.671236,1.70069643\H,0,2.27871524,0.61013133,-1.34974138\H,0,1.01
 748726,1.92153348,0.50208581\H,0,2.45357308,0.79599512,0.76965169\H,0,

 Normal termination of Gaussian 16 at Wed Apr  9 03:53:03 2025.
