 Gaussian 16, Revision C.01,

 ----------------------------------------------------------------------
 #t hf aug-cc-pvdz symm=none int=(grid=ultrafine) guess=(read,tcheck) s
 table=(opt,rrhf)
 ----------------------------------------------------------------------
 -----
 title
 -----
 Symbolic Z-matrix:
 Charge =  0 Multiplicity = 1

 SCF Done:  E(RHF) =  -321.368717462     A.U. after   18 cycles
 Normal termination of Gaussian 16 at Wed Apr  9 03:51:23 2025.
 Gaussian 16:  ES64L-G16RevC.01  3-Jul-2019

 ----------------------------------------------------------------------
 #t hf aug-cc-pvdz iop(5/13=1,5/36=2,99/5=2) pseudo=read geom=check gue
 ss=(read,tcheck) scf=(maxcycle=1)
 ----------------------------------------------------------------------
 -----
 title
 -----
 Structure from the checkpoint file:  "Grambow2020_wb97xd3_008182_forward_mol1.chk"
 Charge =  0 Multiplicity = 1

                         Standard orientation:
 ---------------------------------------------------------------------
 Center     Atomic      Atomic             Coordinates (Angstroms)
 Number     Number       Type             X           Y           Z
 ---------------------------------------------------------------------
      1          8           0       -1.921129   -1.150930   -0.176220
      2          6           0       -0.568139   -1.354760    0.126478
      3          6           0        0.233701   -0.066227    0.059055
      4          6           0       -0.396176    1.175929    0.003056
      5          6           0       -0.794651    2.364780    0.181671
      6          6           0        1.647752   -0.156136   -0.007015
      7          7           0        2.793357   -0.265064   -0.056456
      8          1           0       -2.339007   -0.666347    0.540306
      9          1           0       -0.436881   -1.791369    1.125304
     10          1           0       -0.185427   -2.075650   -0.597703
     11          1           0       -0.813800    0.671510   -0.965943
     12          1           0       -1.144273    3.143224   -0.476472
 ---------------------------------------------------------------------

 SCF Done:  E(RHF) =  -321.690331435     A.U. after    2 cycles

 The electronic state is 1-A.
 Alpha  occ. eigenvalues --  -20.59031 -15.53234 -11.34036 -11.33741 -11.29811
 Alpha  occ. eigenvalues --  -11.29756 -11.27944  -1.49820  -1.25339  -1.16000
 Alpha  occ. eigenvalues --   -1.04328  -0.93978  -0.84947  -0.74868  -0.71580
 Alpha  occ. eigenvalues --   -0.68000  -0.65481  -0.63007  -0.59949  -0.55853
 Alpha  occ. eigenvalues --   -0.53345  -0.52527  -0.49000  -0.44237  -0.32231
 Alpha virt. eigenvalues --   -0.00146   0.03051   0.03424   0.04146   0.04816
 Alpha virt. eigenvalues --    0.06456   0.07902   0.08957   0.10161   0.11153
 Alpha virt. eigenvalues --    0.11946   0.12557   0.12795   0.13632   0.13850

 Mulliken charges:
               1
     1  O   -1.220069
     2  C    1.172431
     3  C    0.760303
     4  C    0.381549
     5  C   -0.566980
     6  C   -2.690078
     7  N    1.043416
     8  H    0.344458
     9  H    0.208605
    10  H    0.138062
    11  H    0.577418
    12  H   -0.149116
 Sum of Mulliken charges =  -0.00000

 Dipole moment (field-independent basis, Debye):
    X=             -4.1771    Y=             -0.1451    Z=             -0.3997  Tot=              4.1986

 Test job not archived.
 1\1\GINC-SE095\SP\RHF\Aug-CC-pVDZ\C5H5N1O1\OHZDE\09-Apr-2025\0\\#t hf
 aug-cc-pvdz iop(5/13=1,5/36=2,99/5=2) pseudo=read geom=check guess=(re
 ad,tcheck) scf=(maxcycle=1)\\title\\0,1\O,0,-1.87900924,0.07364186,-0.
 58999717\C,0,-1.08731038,-0.77315809,0.19733868\C,0,0.36328878,-0.3240
 0667,0.24018515\C,0,0.74278401,0.94046162,-0.2069565\C,0,1.21288959,2.
 10803195,-0.34777726\C,0,1.34064383,-1.24724814,0.69228349\N,0,2.10772
 331,-2.02032162,1.06733894\H,0,-1.9871422,0.91679681,-0.14250479\H,0,-
 1.46023468,-0.83524078,1.2281552\H,0,-1.16050992,-1.77148754,-0.236905

 Normal termination of Gaussian 16 at Wed Apr  9 03:51:27 2025.
