 Gaussian 16, Revision C.01,

 ----------------------------------------------------------------------
 #t hf aug-cc-pvdz symm=none int=(grid=ultrafine) guess=(read,tcheck) s
 table=(opt,rrhf)
 ----------------------------------------------------------------------
 -----
 title
 -----
 Symbolic Z-matrix:
 Charge =  0 Multiplicity = 1

 SCF Done:  E(RHF) =  -305.868127589     A.U. after   13 cycles
 Normal termination of Gaussian 16 at Wed Apr  9 15:47:51 2025.
 Gaussian 16:  ES64L-G16RevC.01  3-Jul-2019

 ----------------------------------------------------------------------
 #t hf aug-cc-pvdz iop(5/13=1,5/36=2,99/5=2) pseudo=read geom=check gue
 ss=(read,tcheck) scf=(maxcycle=1)
 ----------------------------------------------------------------------
 -----
 title
 -----
 Structure from the checkpoint file:  "Grambow2020_b97d3_006751_reverse_mol2.chk"
 Charge =  0 Multiplicity = 1

                         Standard orientation:
 ---------------------------------------------------------------------
 Center     Atomic      Atomic             Coordinates (Angstroms)
 Number     Number       Type             X           Y           Z
 ---------------------------------------------------------------------
      1          6           0       -2.523217   -0.141886   -0.199442
      2          6           0       -1.139078   -0.698987    0.004038
      3          6           0       -0.006844    0.008330    0.187188
      4          8           0        0.086381    1.387387    0.193593
      5          6           0        1.356414   -0.588020    0.422954
      6          8           0        2.311779   -0.170165   -0.552120
      7          1           0       -3.248387   -0.640334    0.461240
      8          1           0       -2.874770   -0.288432   -1.233627
      9          1           0       -2.593109    0.936130    0.018469
     10          1           0       -0.775651    1.760806   -0.069801
     11          1           0       -1.041101   -1.784423   -0.010032
     12          1           0        1.690689   -0.319861    1.444359
     13          1           0        1.296337   -1.680427    0.360878
     14          1           0        2.237060    0.802143   -0.591695
 ---------------------------------------------------------------------

 SCF Done:  E(RHF) =  -306.185749312     A.U. after    2 cycles

 The electronic state is 1-A.
 Alpha  occ. eigenvalues --  -20.58603 -20.54715 -11.30656 -11.29343 -11.25063
 Alpha  occ. eigenvalues --  -11.23837  -1.49266  -1.43830  -1.07347  -0.98961
 Alpha  occ. eigenvalues --   -0.88849  -0.79840  -0.70617  -0.67252  -0.65453
 Alpha  occ. eigenvalues --   -0.60689  -0.58389  -0.57380  -0.56625  -0.54943
 Alpha  occ. eigenvalues --   -0.52858  -0.50587  -0.44303  -0.34449
 Alpha virt. eigenvalues --    0.03147   0.04086   0.04418   0.04774   0.06057
 Alpha virt. eigenvalues --    0.06293   0.07036   0.09332   0.11524   0.11689
 Alpha virt. eigenvalues --    0.12657   0.13609   0.14539   0.15058   0.15980

 Mulliken charges:
               1
     1  C   -0.799834
     2  C    0.258553
     3  C    1.481479
     4  O   -1.622591
     5  C    0.443925
     6  O   -1.105590
     7  H    0.214108
     8  H    0.264883
     9  H    0.085313
    10  H    0.369032
    11  H   -0.192149
    12  H    0.230244
    13  H    0.051537
    14  H    0.321090
 Sum of Mulliken charges =  -0.00000

 Dipole moment (field-independent basis, Debye):
    X=             -2.5443    Y=              0.6480    Z=              0.4960  Tot=              2.6720

 Test job not archived.
 1\1\GINC-SE043\SP\RHF\Aug-CC-pVDZ\C4H8O2\OHZDE\09-Apr-2025\0\\#t hf au
 g-cc-pvdz iop(5/13=1,5/36=2,99/5=2) pseudo=read geom=check guess=(read
 ,tcheck) scf=(maxcycle=1)\\title\\0,1\C,0,-2.1601678,0.0545211,-0.1200
 8719\C,0,-0.80071533,-0.43173447,0.30775683\C,0,0.38268829,0.15713026,
 0.04585664\O,0,0.55908205,1.31134008,-0.69388182\C,0,1.72143042,-0.342
 97706,0.52267099\O,0,2.62384966,-0.59953612,-0.55339245\H,0,-2.8620772
 4,0.054462,0.72734773\H,0,-2.59703335,-0.58857683,-0.90122521\H,0,-2.1
 4829472,1.08347282,-0.5145569\H,0,-0.29630485,1.56346852,-1.08968743\H

 Normal termination of Gaussian 16 at Wed Apr  9 15:47:57 2025.
