 Gaussian 16, Revision C.01,

 ----------------------------------------------------------------------
 #t hf aug-cc-pvdz symm=none int=(grid=ultrafine) guess=(read,tcheck) s
 table=(opt,rrhf)
 ----------------------------------------------------------------------
 -----
 title
 -----
 Symbolic Z-matrix:
 Charge =  0 Multiplicity = 1

 SCF Done:  E(RHF) =  -307.022668827     A.U. after   14 cycles

 1\1\GINC-SE044\Stability\RHF\Aug-CC-pVDZ\C4H10O2\OHZDE\09-Apr-2025\0\\
 #t hf aug-cc-pvdz symm=none int=(grid=ultrafine) guess=(read,tcheck) s
 table=(opt,rrhf)\\title\\0,1\C,0,2.63841055,-0.53277445,-0.67194738\O,
 0,1.96109599,0.63941072,-0.23270906\C,0,0.59725133,0.39269991,0.045915
 58\C,0,0.39801091,-0.35390071,1.36440647\C,0,-3.05061899,0.44283157,-0
 .58651582\O,0,-0.62245865,-0.93445799,1.68433604\H,0,2.60401815,-1.341
 63409,0.08022818\H,0,2.20787689,-0.91834393,-1.61386848\H,0,3.68325039
 ,-0.24881989,-0.84137572\H,0,0.07979812,-0.14768897,-0.76721564\H,0,0.

 Normal termination of Gaussian 16 at Wed Apr  9 03:07:58 2025.
 Gaussian 16:  ES64L-G16RevC.01  3-Jul-2019

 ----------------------------------------------------------------------
 #t hf aug-cc-pvdz iop(5/13=1,5/36=2,99/5=2) pseudo=read geom=check gue
 ss=(read,tcheck) scf=(maxcycle=1)
 ----------------------------------------------------------------------
 -----
 title
 -----
 Structure from the checkpoint file:  "Grambow2020_b97d3_006566_reverse_mol2.chk"
 Charge =  0 Multiplicity = 1

                         Standard orientation:
 ---------------------------------------------------------------------
 Center     Atomic      Atomic             Coordinates (Angstroms)
 Number     Number       Type             X           Y           Z
 ---------------------------------------------------------------------
      1          6           0        2.460560   -0.553337    0.601905
      2          8           0        1.686611   -0.649006   -0.588706
      3          6           0        0.332327   -0.306411   -0.371652
      4          6           0        0.129221    1.201206   -0.225479
      5          6           0       -3.280458   -0.938210    0.136343
      6          8           0       -0.861677    1.723803    0.249676
      7          1           0        2.449936    0.467028    1.026107
      8          1           0        2.097589   -1.253236    1.376263
      9          1           0        3.489714   -0.815328    0.331295
     10          1           0       -0.112114   -0.825600    0.496609
     11          1           0       -0.223224   -0.629205   -1.266928
     12          1           0        0.978323    1.801476   -0.640407
     13          1           0       -4.343531   -0.758922    0.337982
     14          1           0       -2.914228   -1.729156    0.803305
     15          1           0       -3.159653   -1.258373   -0.906532
     16          1           0       -2.712184   -0.016552    0.307845
 ---------------------------------------------------------------------

 SCF Done:  E(RHF) =  -307.343568970     A.U. after    2 cycles

 The electronic state is 1-A.
 Alpha  occ. eigenvalues --  -20.57122 -20.56038 -11.35542 -11.31173 -11.30283
 Alpha  occ. eigenvalues --  -11.21566  -1.48799  -1.47672  -1.02060  -0.93719
 Alpha  occ. eigenvalues --   -0.93016  -0.81947  -0.69782  -0.68360  -0.67873
 Alpha  occ. eigenvalues --   -0.63588  -0.60416  -0.57267  -0.54327  -0.54265
 Alpha  occ. eigenvalues --   -0.54192  -0.52270  -0.49890  -0.46735  -0.41384
 Alpha virt. eigenvalues --    0.03357   0.03838   0.04256   0.04886   0.05597
 Alpha virt. eigenvalues --    0.06353   0.07091   0.08040   0.08823   0.09575
 Alpha virt. eigenvalues --    0.10354   0.12242   0.12690   0.13590   0.13972

 Mulliken charges:
               1
     1  C    0.092726
     2  O   -1.324731
     3  C    0.564031
     4  C    0.950793
     5  C   -0.261722
     6  O   -1.196733
     7  H    0.196166
     8  H    0.178086
     9  H    0.002151
    10  H    0.241884
    11  H    0.126222
    12  H    0.163853
    13  H    0.049578
    14  H    0.104277
    15  H    0.102372
    16  H    0.011047
 Sum of Mulliken charges =  -0.00000

 Dipole moment (field-independent basis, Debye):
    X=              1.9756    Y=             -1.1469    Z=              0.2663  Tot=              2.2999

 Test job not archived.
 1\1\GINC-SE044\SP\RHF\Aug-CC-pVDZ\C4H10O2\OHZDE\09-Apr-2025\0\\#t hf a
 ug-cc-pvdz iop(5/13=1,5/36=2,99/5=2) pseudo=read geom=check guess=(rea
 d,tcheck) scf=(maxcycle=1)\\title\\0,1\C,0,2.63841055,-0.53277445,-0.6
 7194738\O,0,1.96109599,0.63941072,-0.23270906\C,0,0.59725133,0.3926999
 1,0.04591558\C,0,0.39801091,-0.35390071,1.36440647\C,0,-3.05061899,0.4
 4283157,-0.58651582\O,0,-0.62245865,-0.93445799,1.68433604\H,0,2.60401
 815,-1.34163409,0.08022818\H,0,2.20787689,-0.91834393,-1.61386848\H,0,
 3.68325039,-0.24881989,-0.84137572\H,0,0.07979812,-0.14768897,-0.76721

 Normal termination of Gaussian 16 at Wed Apr  9 03:08:02 2025.
