 Gaussian 16, Revision C.01,

 ----------------------------------------------------------------------
 #t hf aug-cc-pvdz symm=none int=(grid=ultrafine) guess=(read,tcheck) s
 table=(opt,rrhf)
 ----------------------------------------------------------------------
 -----
 title
 -----
 Symbolic Z-matrix:
 Charge =  0 Multiplicity = 1

 SCF Done:  E(RHF) =  -322.740783710     A.U. after   14 cycles
 Normal termination of Gaussian 16 at Wed Apr  9 03:33:21 2025.
 Gaussian 16:  ES64L-G16RevC.01  3-Jul-2019

 ----------------------------------------------------------------------
 #t hf aug-cc-pvdz iop(5/13=1,5/36=2,99/5=2) pseudo=read geom=check gue
 ss=(read,tcheck) scf=(maxcycle=1)
 ----------------------------------------------------------------------
 -----
 title
 -----
 Structure from the checkpoint file:  "Grambow2020_wb97xd3_007013_reverse_mol2.chk"
 Charge =  0 Multiplicity = 1

                         Standard orientation:
 ---------------------------------------------------------------------
 Center     Atomic      Atomic             Coordinates (Angstroms)
 Number     Number       Type             X           Y           Z
 ---------------------------------------------------------------------
      1          6           0       -1.931114   -0.595060   -0.393923
      2          6           0       -0.671013   -0.429451    0.452984
      3          6           0        0.398038   -1.463185    0.231615
      4          6           0        1.501028   -0.845273   -0.152536
      5          7           0       -0.378670    2.010099    0.126086
      6          6           0        0.079702    0.844436    0.113855
      7          8           0        1.374827    0.525188   -0.235782
      8          1           0       -2.461291   -1.507877   -0.118284
      9          1           0       -1.678934   -0.650327   -1.454272
     10          1           0       -2.593552    0.257283   -0.242723
     11          1           0       -0.958502   -0.381412    1.508173
     12          1           0        0.281980   -2.527382    0.361872
     13          1           0        2.479001   -1.221398   -0.409843
     14          1           0        0.323528    2.690114   -0.153239
 ---------------------------------------------------------------------

 SCF Done:  E(RHF) =  -323.072859022     A.U. after    2 cycles

 The electronic state is 1-A.
 Alpha  occ. eigenvalues --  -20.59800 -15.48078 -11.34596 -11.31232 -11.26243
 Alpha  occ. eigenvalues --  -11.24432 -11.23606  -1.54051  -1.21636  -1.11632
 Alpha  occ. eigenvalues --   -1.00790  -0.91866  -0.82113  -0.78406  -0.73851
 Alpha  occ. eigenvalues --   -0.67861  -0.65813  -0.60804  -0.60521  -0.58106
 Alpha  occ. eigenvalues --   -0.54173  -0.52824  -0.51285  -0.46995  -0.46649
 Alpha  occ. eigenvalues --   -0.35664
 Alpha virt. eigenvalues --    0.03211   0.03727   0.04262   0.04697   0.05766
 Alpha virt. eigenvalues --    0.06589   0.07389   0.09644   0.11311   0.11627
 Alpha virt. eigenvalues --    0.12484   0.13307   0.14061   0.14512   0.14853

 Mulliken charges:
               1
     1  C   -0.274682
     2  C   -1.544776
     3  C    0.949937
     4  C    0.696399
     5  N    0.785492
     6  C    0.190003
     7  O   -1.600230
     8  H    0.126427
     9  H    0.249077
    10  H    0.233236
    11  H    0.265665
    12  H   -0.118458
    13  H   -0.118222
    14  H    0.160133
 Sum of Mulliken charges =  -0.00000

 Dipole moment (field-independent basis, Debye):
    X=              0.9747    Y=             -2.7985    Z=             -0.0944  Tot=              2.9649

 Test job not archived.
 1\1\GINC-SE070\SP\RHF\Aug-CC-pVDZ\C5H7N1O1\OHZDE\09-Apr-2025\0\\#t hf
 aug-cc-pvdz iop(5/13=1,5/36=2,99/5=2) pseudo=read geom=check guess=(re
 ad,tcheck) scf=(maxcycle=1)\\title\\0,1\C,0,-1.78477499,-0.0725686,-0.
 01650234\C,0,-0.37738095,0.26507398,-0.50412072\C,0,0.40147066,1.20839
 249,0.36996215\C,0,1.50970348,0.60013918,0.75443838\N,0,0.3251187,-2.0
 3906183,-1.08822811\C,0,0.53147503,-0.94956497,-0.50561463\O,0,1.64472
 498,-0.68077807,0.26246118\H,0,-2.42226144,0.81244346,-0.04228202\H,0,
 -1.75855962,-0.44816258,1.00781768\H,0,-2.22258502,-0.84165635,-0.6528

 Normal termination of Gaussian 16 at Wed Apr  9 03:33:26 2025.
