 Gaussian 16, Revision C.01,

 ----------------------------------------------------------------------
 #t hf aug-cc-pvdz symm=none int=(grid=ultrafine) guess=(read,tcheck) s
 table=(opt,rrhf)
 ----------------------------------------------------------------------
 -----
 title
 -----
 Symbolic Z-matrix:
 Charge =  0 Multiplicity = 1

 SCF Done:  E(RHF) =  -338.710749728     A.U. after   15 cycles
 Normal termination of Gaussian 16 at Wed Apr  9 19:09:52 2025.
 Gaussian 16:  ES64L-G16RevC.01  3-Jul-2019

 ----------------------------------------------------------------------
 #t hf aug-cc-pvdz iop(5/13=1,5/36=2,99/5=2) pseudo=read geom=check gue
 ss=(read,tcheck) scf=(maxcycle=1)
 ----------------------------------------------------------------------
 -----
 title
 -----
 Structure from the checkpoint file:  "Grambow2020_wb97xd3_008823_reverse_mol2.chk"
 Charge =  0 Multiplicity = 1

                         Standard orientation:
 ---------------------------------------------------------------------
 Center     Atomic      Atomic             Coordinates (Angstroms)
 Number     Number       Type             X           Y           Z
 ---------------------------------------------------------------------
      1          6           0        2.499725   -0.346869   -0.001418
      2          6           0        1.039048   -0.099259   -0.000004
      3          6           0       -0.094574   -1.051533    0.002030
      4          6           0       -1.312050   -0.093312   -0.000350
      5          8           0       -2.466135   -0.454057   -0.001946
      6          7           0       -0.852671    1.198034    0.001062
      7          7           0        0.493449    1.073515    0.000150
      8          1           0        3.063907    0.586855   -0.009544
      9          1           0        2.789125   -0.932755   -0.876630
     10          1           0        2.792458   -0.918421    0.882164
     11          1           0       -0.107136   -1.700867   -0.875899
     12          1           0       -0.108463   -1.693706    0.885290
     13          1           0        1.020861    1.936345    0.000158
 ---------------------------------------------------------------------

 SCF Done:  E(RHF) =  -339.057591667     A.U. after    2 cycles

 The electronic state is 1-A.
 Alpha  occ. eigenvalues --  -20.47959 -15.64235 -15.48502 -11.34371 -11.32771
 Alpha  occ. eigenvalues --  -11.29485 -11.26888  -1.43443  -1.39205  -1.15236
 Alpha  occ. eigenvalues --   -1.08703  -1.01900  -0.90233  -0.80376  -0.74829
 Alpha  occ. eigenvalues --   -0.70349  -0.65012  -0.63653  -0.62109  -0.60396
 Alpha  occ. eigenvalues --   -0.58677  -0.57964  -0.50535  -0.50497  -0.38826
 Alpha  occ. eigenvalues --   -0.34350
 Alpha virt. eigenvalues --    0.01495   0.03030   0.03212   0.03734   0.06569
 Alpha virt. eigenvalues --    0.06675   0.06911   0.07839   0.10192   0.11546
 Alpha virt. eigenvalues --    0.12087   0.12611   0.13409   0.14101   0.14444

 Mulliken charges:
               1
     1  C   -0.135304
     2  C   -0.625814
     3  C   -0.640660
     4  C    0.933654
     5  O   -1.321138
     6  N   -0.031055
     7  N    0.536181
     8  H    0.086524
     9  H    0.254604
    10  H    0.255896
    11  H    0.282409
    12  H    0.285137
    13  H    0.119564
 Sum of Mulliken charges =   0.00000

 Dipole moment (field-independent basis, Debye):
    X=              9.3785    Y=             -1.6045    Z=              0.0048  Tot=              9.5147

 Test job not archived.
 1\1\GINC-SE015\SP\RHF\Aug-CC-pVDZ\C4H6N2O1\OHZDE\09-Apr-2025\0\\#t hf
 aug-cc-pvdz iop(5/13=1,5/36=2,99/5=2) pseudo=read geom=check guess=(re
 ad,tcheck) scf=(maxcycle=1)\\title\\0,1\C,0,-1.8262611,0.13479677,-0.1
 4010923\C,0,-0.36472012,0.05909384,0.09023365\C,0,0.73617171,-0.277647
 67,-0.84066484\C,0,1.97604633,-0.16096303,0.08103929\O,0,3.11429222,-0
 .35898198,-0.2756641\N,0,1.556623,0.19830735,1.33547652\N,0,0.21277537
 ,0.29371495,1.22360414\H,0,-2.36133855,0.40756889,0.77065709\H,0,-2.20
 996298,-0.82557917,-0.49147923\H,0,-2.05521219,0.8759544,-0.90910088\H

 Normal termination of Gaussian 16 at Wed Apr  9 19:09:56 2025.
