 Gaussian 16, Revision C.01,

 ----------------------------------------------------------------------
 #t hf aug-cc-pvdz symm=none int=(grid=ultrafine) guess=(read,tcheck) s
 table=(opt,rrhf)
 ----------------------------------------------------------------------
 -----
 title
 -----
 Symbolic Z-matrix:
 Charge =  0 Multiplicity = 1

 SCF Done:  E(RHF) =  -284.690844213     A.U. after   16 cycles
 Normal termination of Gaussian 16 at Wed Apr  9 03:20:34 2025.
 Gaussian 16:  ES64L-G16RevC.01  3-Jul-2019

 ----------------------------------------------------------------------
 #t hf aug-cc-pvdz iop(5/13=1,5/36=2,99/5=2) pseudo=read geom=check gue
 ss=(read,tcheck) scf=(maxcycle=1)
 ----------------------------------------------------------------------
 -----
 title
 -----
 Structure from the checkpoint file:  "Grambow2020_b97d3_007215_forward_mol1.chk"
 Charge =  0 Multiplicity = 1

                         Standard orientation:
 ---------------------------------------------------------------------
 Center     Atomic      Atomic             Coordinates (Angstroms)
 Number     Number       Type             X           Y           Z
 ---------------------------------------------------------------------
      1          6           0       -2.205422    0.150517   -0.178974
      2          6           0       -0.848069   -0.044411    0.427599
      3          8           0       -0.104393   -1.006242   -0.168608
      4          6           0        1.301681   -0.913180    0.022124
      5          6           0        1.741077    0.553195   -0.171550
      6          7           0        0.855801    1.399713   -0.008927
      7          1           0       -2.882980   -0.702865    0.012870
      8          1           0       -2.687843    1.044255    0.242513
      9          1           0       -2.131686    0.269374   -1.269523
     10          1           0       -0.750560    0.027144    1.519790
     11          1           0       -0.004699    1.920814   -0.054876
     12          1           0        1.771023   -1.602739   -0.686611
     13          1           0        1.595681   -1.180758    1.051991
 ---------------------------------------------------------------------

 SCF Done:  E(RHF) =  -284.979329440     A.U. after    2 cycles

 The electronic state is 1-A.
 Alpha  occ. eigenvalues --  -20.59362 -15.53117 -11.34029 -11.30609 -11.26802
 Alpha  occ. eigenvalues --  -11.25852  -1.51468  -1.22365  -1.05499  -0.96286
 Alpha  occ. eigenvalues --   -0.86353  -0.83485  -0.71144  -0.67764  -0.66990
 Alpha  occ. eigenvalues --   -0.59824  -0.57296  -0.56725  -0.54181  -0.51456
 Alpha  occ. eigenvalues --   -0.49119  -0.45907  -0.27250
 Alpha virt. eigenvalues --    0.03207   0.03849   0.04281   0.04580   0.05971
 Alpha virt. eigenvalues --    0.06171   0.06696   0.08005   0.09299   0.11711
 Alpha virt. eigenvalues --    0.12413   0.12612   0.13033   0.14346   0.14806

 Mulliken charges:
               1
     1  C   -0.538899
     2  C    0.661450
     3  O   -1.260293
     4  C    0.610195
     5  C   -1.186251
     6  N    0.673209
     7  H    0.197251
     8  H    0.166109
     9  H    0.201992
    10  H    0.060296
    11  H    0.112144
    12  H    0.066048
    13  H    0.236749
 Sum of Mulliken charges =  -0.00000

 Dipole moment (field-independent basis, Debye):
    X=             -3.7205    Y=             -1.1584    Z=              1.0521  Tot=              4.0362

 Test job not archived.
 1\1\GINC-SE123\SP\RHF\Aug-CC-pVDZ\C4H7N1O1\OHZDE\09-Apr-2025\0\\#t hf
 aug-cc-pvdz iop(5/13=1,5/36=2,99/5=2) pseudo=read geom=check guess=(re
 ad,tcheck) scf=(maxcycle=1)\\title\\0,1\C,0,-1.76300591,-0.65849231,-0
 .05119231\C,0,-0.55063572,0.12761565,-0.45184914\O,0,0.09287039,0.7235
 4562,0.57984924\C,0,1.4565637,1.05685639,0.35329364\C,0,2.15847828,-0.
 13157759,-0.33646954\N,0,1.41481882,-0.90804793,-0.94541869\H,0,-2.594
 02983,-0.01294028,0.2905854\H,0,-2.13960791,-1.24168557,-0.90395557\H,
 0,-1.52614603,-1.34793735,0.77186621\H,0,-0.58837757,0.7021818,-1.3877

 Normal termination of Gaussian 16 at Wed Apr  9 03:20:38 2025.
