 Gaussian 16, Revision C.01,

 ----------------------------------------------------------------------
 #t hf aug-cc-pvdz symm=none int=(grid=ultrafine) guess=(read,tcheck) s
 table=(opt,rrhf)
 ----------------------------------------------------------------------
 -----
 title
 -----
 Symbolic Z-matrix:
 Charge =  0 Multiplicity = 1

 SCF Done:  E(RHF) =  -306.490674847     A.U. after   17 cycles
 Normal termination of Gaussian 16 at Wed Apr  9 04:05:56 2025.
 Gaussian 16:  ES64L-G16RevC.01  3-Jul-2019

 ----------------------------------------------------------------------
 #t hf aug-cc-pvdz iop(5/13=1,5/36=2,99/5=2) pseudo=read geom=check gue
 ss=(read,tcheck) scf=(maxcycle=1)
 ----------------------------------------------------------------------
 -----
 title
 -----
 Structure from the checkpoint file:  "Grambow2020_wb97xd3_009213_reverse_mol1.chk"
 Charge =  0 Multiplicity = 1

                         Standard orientation:
 ---------------------------------------------------------------------
 Center     Atomic      Atomic             Coordinates (Angstroms)
 Number     Number       Type             X           Y           Z
 ---------------------------------------------------------------------
      1          6           0        2.982540   -0.642642   -0.056807
      2          6           0        1.611381   -0.076983   -0.065847
      3          6           0        0.955427    0.962223    0.265167
      4          6           0       -0.326153    1.421785    0.116322
      5          6           0       -1.055138   -0.221438   -0.436656
      6          6           0       -1.863385   -0.869862    0.622071
      7          8           0       -2.381442   -0.225465   -0.553874
      8          1           0        3.698883    0.070259    0.347989
      9          1           0        3.018372   -1.552899    0.544381
     10          1           0        3.289621   -0.907903   -1.069825
     11          1           0       -0.515519    2.117956   -0.696437
     12          1           0       -0.921334    1.620278    1.005732
     13          1           0        0.695234   -0.675445   -0.545467
     14          1           0       -1.954466   -1.949937    0.628036
     15          1           0       -2.087289   -0.357092    1.551080
 ---------------------------------------------------------------------

 SCF Done:  E(RHF) =  -306.807021817     A.U. after    2 cycles

 The electronic state is 1-A.
 Alpha  occ. eigenvalues --  -20.59243 -11.31458 -11.29279 -11.26807 -11.26655
 Alpha  occ. eigenvalues --  -11.25252 -11.25169  -1.54843  -1.11607  -1.01721
 Alpha  occ. eigenvalues --   -0.93328  -0.91627  -0.81295  -0.70393  -0.68071
 Alpha  occ. eigenvalues --   -0.66215  -0.63419  -0.62005  -0.59792  -0.58769
 Alpha  occ. eigenvalues --   -0.56681  -0.49761  -0.47418  -0.42489  -0.38486
 Alpha  occ. eigenvalues --   -0.31483
 Alpha virt. eigenvalues --    0.02916   0.03740   0.04022   0.04790   0.05213
 Alpha virt. eigenvalues --    0.06061   0.06414   0.07334   0.08156   0.09252
 Alpha virt. eigenvalues --    0.11332   0.11548   0.12401   0.13449   0.14324

 Mulliken charges:
               1
     1  C   -0.745374
     2  C    0.431030
     3  C   -0.094629
     4  C   -0.648553
     5  C    0.550548
     6  C    0.409537
     7  O   -1.193182
     8  H    0.188936
     9  H    0.250340
    10  H    0.231201
    11  H    0.166929
    12  H    0.164873
    13  H    0.309366
    14  H   -0.026767
    15  H    0.005745
 Sum of Mulliken charges =  -0.00000

 Dipole moment (field-independent basis, Debye):
    X=              1.1614    Y=             -0.4281    Z=              1.5377  Tot=              1.9740

 Test job not archived.
 1\1\GINC-SE083\SP\RHF\Aug-CC-pVDZ\C6H8O1\OHZDE\09-Apr-2025\0\\#t hf au
 g-cc-pvdz iop(5/13=1,5/36=2,99/5=2) pseudo=read geom=check guess=(read
 ,tcheck) scf=(maxcycle=1)\\title\\0,1\C,0,2.08978221,-0.94450807,-1.54
 402778\C,0,1.08250351,-0.17503448,-0.77368516\C,0,0.97727746,0.6631087
 2,0.17828045\C,0,-0.02562569,1.39615103,0.75502559\C,0,-1.43881806,0.4
 6369987,-0.06400424\C,0,-2.1407547,-0.44303354,0.87394053\O,0,-2.65026
 128,0.80372025,0.37146081\H,0,3.10022456,-0.70950011,-1.21385737\H,0,1
 .92510096,-2.017125,-1.42718453\H,0,2.00890196,-0.71556935,-2.60794139

 Normal termination of Gaussian 16 at Wed Apr  9 04:06:03 2025.
