 Gaussian 16, Revision C.01,

 ----------------------------------------------------------------------
 #t hf aug-cc-pvdz symm=none int=(grid=ultrafine) guess=(read,tcheck) s
 table=(opt,rrhf)
 ----------------------------------------------------------------------
 -----
 title
 -----
 Symbolic Z-matrix:
 Charge =  0 Multiplicity = 1

 SCF Done:  E(RHF) =  -337.581747437     A.U. after   15 cycles
 Normal termination of Gaussian 16 at Wed Apr  9 04:05:03 2025.
 Gaussian 16:  ES64L-G16RevC.01  3-Jul-2019

 ----------------------------------------------------------------------
 #t hf aug-cc-pvdz iop(5/13=1,5/36=2,99/5=2) pseudo=read geom=check gue
 ss=(read,tcheck) scf=(maxcycle=1)
 ----------------------------------------------------------------------
 -----
 title
 -----
 Structure from the checkpoint file:  "Grambow2020_wb97xd3_009183_reverse_mol2.chk"
 Charge =  0 Multiplicity = 1

                         Standard orientation:
 ---------------------------------------------------------------------
 Center     Atomic      Atomic             Coordinates (Angstroms)
 Number     Number       Type             X           Y           Z
 ---------------------------------------------------------------------
      1          8           0        2.180129   -0.033321   -0.303422
      2          6           0        1.029732   -0.042261    0.029819
      3          6           0        0.241591    1.215013    0.312833
      4          6           0       -1.178633    1.054854   -0.123338
      5          7           0       -1.744738   -0.074811   -0.262030
      6          6           0       -0.947984   -1.192364    0.068162
      7          7           0        0.316882   -1.247002    0.202582
      8          1           0        0.722552    2.076179   -0.149205
      9          1           0       -1.766033    1.947340   -0.335710
     10          1           0        0.249576    1.390915    1.397311
     11          1           0       -1.520369   -2.106629    0.206268
 ---------------------------------------------------------------------

 SCF Done:  E(RHF) =  -337.918748094     A.U. after    2 cycles

 The electronic state is 1-A.
 Alpha  occ. eigenvalues --  -20.54465 -15.53698 -15.51865 -11.37481 -11.35310
 Alpha  occ. eigenvalues --  -11.34550 -11.28512  -1.49258  -1.32728  -1.22613
 Alpha  occ. eigenvalues --   -1.08348  -0.94863  -0.89686  -0.76635  -0.73776
 Alpha  occ. eigenvalues --   -0.70441  -0.67211  -0.64608  -0.63176  -0.57560
 Alpha  occ. eigenvalues --   -0.54793  -0.53029  -0.48645  -0.44670  -0.43068
 Alpha virt. eigenvalues --    0.02247   0.02721   0.03970   0.04594   0.04791
 Alpha virt. eigenvalues --    0.08009   0.09411   0.09752   0.10530   0.11027
 Alpha virt. eigenvalues --    0.12486   0.13213   0.13897   0.14180   0.14474

 Mulliken charges:
               1
     1  O   -1.220730
     2  C    0.631370
     3  C   -0.348410
     4  C   -0.578364
     5  N    0.802612
     6  C   -0.649136
     7  N    0.848529
     8  H    0.184588
     9  H   -0.046806
    10  H    0.388337
    11  H   -0.011990
 Sum of Mulliken charges =  -0.00000

 Dipole moment (field-independent basis, Debye):
    X=             -3.0987    Y=              3.3883    Z=              1.1451  Tot=              4.7322

 Test job not archived.
 1\1\GINC-SE220\SP\RHF\Aug-CC-pVDZ\C4H4N2O1\OHZDE\09-Apr-2025\0\\#t hf
 aug-cc-pvdz iop(5/13=1,5/36=2,99/5=2) pseudo=read geom=check guess=(re
 ad,tcheck) scf=(maxcycle=1)\\title\\0,1\O,0,2.27086608,-0.94365606,-0.
 05020042\C,0,1.12749977,-0.63043718,0.1205384\C,0,0.67408059,0.8048970
 1,0.24792198\C,0,-0.67170237,0.98860291,-0.37501559\N,0,-1.49657178,0.
 03767807,-0.55161544\C,0,-1.07401313,-1.22237688,-0.07572282\N,0,0.103
 60052,-1.59379214,0.23446712\H,0,1.42079002,1.47723321,-0.17255224\H,0
 ,-0.96881881,1.9857986,-0.69749664\H,0,0.59360129,1.04818624,1.3163002

 Normal termination of Gaussian 16 at Wed Apr  9 04:05:08 2025.
