 Gaussian 16, Revision C.01,

 ----------------------------------------------------------------------
 #t hf aug-cc-pvdz symm=none int=(grid=ultrafine) guess=(read,tcheck) s
 table=(opt,rrhf)
 ----------------------------------------------------------------------
 -----
 title
 -----
 Symbolic Z-matrix:
 Charge =  0 Multiplicity = 1

 SCF Done:  E(RHF) =  -358.356957589     A.U. after   16 cycles
 Normal termination of Gaussian 16 at Wed Apr  9 03:40:14 2025.
 Gaussian 16:  ES64L-G16RevC.01  3-Jul-2019

 ----------------------------------------------------------------------
 #t hf aug-cc-pvdz iop(5/13=1,5/36=2,99/5=2) pseudo=read geom=check gue
 ss=(read,tcheck) scf=(maxcycle=1)
 ----------------------------------------------------------------------
 -----
 title
 -----
 Structure from the checkpoint file:  "Grambow2020_wb97xd3_007457_reverse_mol2.chk"
 Charge =  0 Multiplicity = 1

                         Standard orientation:
 ---------------------------------------------------------------------
 Center     Atomic      Atomic             Coordinates (Angstroms)
 Number     Number       Type             X           Y           Z
 ---------------------------------------------------------------------
      1          8           0        2.326444   -0.715263   -0.000237
      2          6           0        1.531672    0.296801   -0.037711
      3          6           0        0.143801    0.185316   -0.021483
      4          7           0       -0.333540   -1.079472    0.036254
      5          8           0       -1.629233   -0.921595    0.037168
      6          6           0       -1.926580    0.431674   -0.019466
      7          6           0       -0.825170    1.236899   -0.060518
      8          1           0        1.791786   -1.531545    0.040902
      9          1           0        1.509439    3.907307    0.223603
     10          1           0        2.022786    1.263818   -0.084995
     11          1           0       -2.992582    0.601687   -0.020939
     12          1           0        0.883327    3.505765    0.127273
 ---------------------------------------------------------------------

 SCF Done:  E(RHF) =  -358.713183381     A.U. after    2 cycles

 The electronic state is 1-A.
 Alpha  occ. eigenvalues --  -20.69204 -20.66876 -15.60720 -11.44055 -11.28634
 Alpha  occ. eigenvalues --  -11.28609 -11.18815  -1.62839  -1.61980  -1.20008
 Alpha  occ. eigenvalues --   -1.07903  -1.01556  -0.89781  -0.84593  -0.76137
 Alpha  occ. eigenvalues --   -0.75034  -0.69857  -0.68331  -0.66270  -0.62616
 Alpha  occ. eigenvalues --   -0.58059  -0.56174  -0.53678  -0.43820  -0.35797
 Alpha  occ. eigenvalues --   -0.34754
 Alpha virt. eigenvalues --   -0.02173   0.02858   0.04047   0.04964   0.07136
 Alpha virt. eigenvalues --    0.07971   0.08689   0.09097   0.11391   0.11997
 Alpha virt. eigenvalues --    0.12570   0.13149   0.14250   0.14553   0.15508

 Mulliken charges:
               1
     1  O   -1.288190
     2  C    1.415986
     3  C   -0.921122
     4  N    1.597105
     5  O   -1.559524
     6  C    0.762228
     7  C   -0.438429
     8  H    0.434542
     9  H   -0.013174
    10  H    0.038085
    11  H   -0.060982
    12  H    0.033475
 Sum of Mulliken charges =   0.00000

 Dipole moment (field-independent basis, Debye):
    X=              3.5062    Y=             -1.9940    Z=              0.0405  Tot=              4.0337

 Test job not archived.
 1\1\GINC-SE393\SP\RHF\Aug-CC-pVDZ\C4H5N1O2\OHZDE\09-Apr-2025\0\\#t hf
 aug-cc-pvdz iop(5/13=1,5/36=2,99/5=2) pseudo=read geom=check guess=(re
 ad,tcheck) scf=(maxcycle=1)\\title\\0,1\O,0,-2.19176733,0.82284168,-0.
 88984316\C,0,-1.34152157,0.06979791,-0.28375149\C,0,0.02676295,0.32606
 358,-0.25206762\N,0,0.42147721,1.43923463,-0.91231705\O,0,1.71544841,1
 .45776677,-0.7418975\C,0,2.09399078,0.36079424,0.01725658\C,0,1.052213
 ,-0.44029749,0.38621122\H,0,-1.71273648,1.56904404,-1.29920559\H,0,-1.
 14349353,-2.70733085,2.02987655\H,0,-1.76806814,-0.79732362,0.21092861

 Normal termination of Gaussian 16 at Wed Apr  9 03:40:18 2025.
