 Gaussian 16, Revision C.01,

 ----------------------------------------------------------------------
 #t hf aug-cc-pvdz symm=none int=(grid=ultrafine) guess=(read,tcheck) s
 table=(opt,rrhf)
 ----------------------------------------------------------------------
 -----
 title
 -----
 Symbolic Z-matrix:
 Charge =  0 Multiplicity = 1

 SCF Done:  E(RHF) =  -322.599948413     A.U. after   16 cycles
 Normal termination of Gaussian 16 at Wed Apr  9 18:21:22 2025.
 Gaussian 16:  ES64L-G16RevC.01  3-Jul-2019

 ----------------------------------------------------------------------
 #t hf aug-cc-pvdz iop(5/13=1,5/36=2,99/5=2) pseudo=read geom=check gue
 ss=(read,tcheck) scf=(maxcycle=1)
 ----------------------------------------------------------------------
 -----
 title
 -----
 Structure from the checkpoint file:  "Grambow2020_wb97xd3_007345_forward_mol1.chk"
 Charge =  0 Multiplicity = 1

                         Standard orientation:
 ---------------------------------------------------------------------
 Center     Atomic      Atomic             Coordinates (Angstroms)
 Number     Number       Type             X           Y           Z
 ---------------------------------------------------------------------
      1          8           0        1.878136   -0.945974   -0.489605
      2          6           0        1.481683   -0.163461    0.264318
      3          6           0        0.323056    1.783672   -0.030076
      4          7           0       -0.574691    0.810275    0.162794
      5          6           0       -1.273269   -0.012268   -0.834253
      6          6           0       -1.205022   -1.194963    0.164612
      7          6           0       -0.315857   -0.276955    0.978393
      8          1           0        0.721764    2.273508    0.845560
      9          1           0        0.250275    2.357091   -0.946427
     10          1           0       -0.683384   -0.146920   -1.744348
     11          1           0       -2.266728    0.362532   -1.076329
     12          1           0       -0.702219   -2.083290   -0.219858
     13          1           0       -2.161513   -1.476623    0.605370
     14          1           0       -0.223993   -0.206583    2.055346
 ---------------------------------------------------------------------

 SCF Done:  E(RHF) =  -322.927442683     A.U. after    2 cycles

 The electronic state is 1-A.
 Alpha  occ. eigenvalues --  -20.56067 -15.56372 -11.31963 -11.29080 -11.28815
 Alpha  occ. eigenvalues --  -11.27578 -11.25025  -1.51194  -1.32721  -1.08411
 Alpha  occ. eigenvalues --   -0.95817  -0.90278  -0.77998  -0.74501  -0.72146
 Alpha  occ. eigenvalues --   -0.70279  -0.68422  -0.59286  -0.58347  -0.56085
 Alpha  occ. eigenvalues --   -0.55215  -0.54806  -0.54044  -0.50316  -0.42316
 Alpha  occ. eigenvalues --   -0.28011
 Alpha virt. eigenvalues --    0.03224   0.04080   0.04202   0.05170   0.05488
 Alpha virt. eigenvalues --    0.05592   0.06657   0.07975   0.09036   0.10032
 Alpha virt. eigenvalues --    0.11951   0.12555   0.13495   0.14432   0.14827

 Mulliken charges:
               1
     1  O   -0.979842
     2  C    0.947227
     3  C   -0.290335
     4  N    1.016122
     5  C   -0.070367
     6  C    0.200905
     7  C   -0.452533
     8  H   -0.044967
     9  H   -0.121096
    10  H   -0.039132
    11  H   -0.036640
    12  H    0.077044
    13  H    0.032149
    14  H   -0.238536
 Sum of Mulliken charges =  -0.00000

 Dipole moment (field-independent basis, Debye):
    X=             -2.8188    Y=              0.8229    Z=              0.1445  Tot=              2.9400

 Test job not archived.
 1\1\GINC-SE108\SP\RHF\Aug-CC-pVDZ\C5H7N1O1\OHZDE\09-Apr-2025\0\\#t hf
 aug-cc-pvdz iop(5/13=1,5/36=2,99/5=2) pseudo=read geom=check guess=(re
 ad,tcheck) scf=(maxcycle=1)\\title\\0,1\O,0,1.13169179,2.16938256,-0.4
 2614019\C,0,1.28451524,1.08184767,-0.78920164\C,0,1.57084562,-0.877666
 92,0.35041663\N,0,0.26113345,-0.74255799,0.11156375\C,0,-0.77581643,-0
 .14423686,0.96329136\C,0,-1.46714361,0.37175495,-0.32394446\C,0,-0.217
 6411,-0.11858754,-1.02672547\H,0,2.16926158,-1.35314219,-0.41212361\H,
 0,1.88304549,-0.9822502,1.38259747\H,0,-0.37531991,0.63798964,1.612977

 Normal termination of Gaussian 16 at Wed Apr  9 18:21:27 2025.
