 Gaussian 16, Revision C.01,

 ----------------------------------------------------------------------
 #t hf aug-cc-pvdz symm=none int=(grid=ultrafine) guess=(read,tcheck) s
 table=(opt,rrhf)
 ----------------------------------------------------------------------
 -----
 title
 -----
 Symbolic Z-matrix:
 Charge =  0 Multiplicity = 1

 SCF Done:  E(RHF) =  -267.479495275     A.U. after   17 cycles
 Normal termination of Gaussian 16 at Wed Apr  9 15:50:42 2025.
 Gaussian 16:  ES64L-G16RevC.01  3-Jul-2019

 ----------------------------------------------------------------------
 #t hf aug-cc-pvdz iop(5/13=1,5/36=2,99/5=2) pseudo=read geom=check gue
 ss=(read,tcheck) scf=(maxcycle=1)
 ----------------------------------------------------------------------
 -----
 title
 -----
 Structure from the checkpoint file:  "Grambow2020_b97d3_006839_reverse_mol1.chk"
 Charge =  0 Multiplicity = 1

                         Standard orientation:
 ---------------------------------------------------------------------
 Center     Atomic      Atomic             Coordinates (Angstroms)
 Number     Number       Type             X           Y           Z
 ---------------------------------------------------------------------
      1          6           0       -1.810123   -0.667155    0.042095
      2          6           0       -1.295330    0.621667    0.103128
      3          6           0       -0.320057    1.430942    0.044229
      4          6           0        0.926045    0.872372   -0.256605
      5          6           0        1.433843   -0.306696    0.524485
      6          8           0        0.818047   -1.106458   -0.455251
      7          1           0       -2.515986   -0.921978   -0.757700
      8          1           0       -0.549611   -1.062306   -0.253959
      9          1           0       -2.046547   -1.155557    0.996364
     10          1           0        1.447691    1.106041   -1.185127
     11          1           0        0.990427   -0.371184    1.532819
     12          1           0        2.523381   -0.450134    0.565622
 ---------------------------------------------------------------------

 SCF Done:  E(RHF) =  -267.755167829     A.U. after    2 cycles

 The electronic state is 1-A.
 Alpha  occ. eigenvalues --  -20.51829 -11.36005 -11.31398 -11.30808 -11.25337
 Alpha  occ. eigenvalues --  -11.25134  -1.40080  -1.13609  -1.03587  -0.93894
 Alpha  occ. eigenvalues --   -0.85679  -0.72738  -0.68209  -0.65212  -0.61481
 Alpha  occ. eigenvalues --   -0.61053  -0.57603  -0.53839  -0.45918  -0.41731
 Alpha  occ. eigenvalues --   -0.38073  -0.36336
 Alpha virt. eigenvalues --    0.03277   0.03756   0.04055   0.05102   0.05718
 Alpha virt. eigenvalues --    0.06548   0.07537   0.08680   0.09723   0.10883
 Alpha virt. eigenvalues --    0.11684   0.13150   0.13762   0.14171   0.15099

 Mulliken charges:
               1
     1  C   -0.554329
     2  C    0.249721
     3  C   -0.462241
     4  C    0.502242
     5  C    0.473019
     6  O   -1.402425
     7  H    0.066932
     8  H    0.884174
     9  H    0.152989
    10  H   -0.059284
    11  H    0.114273
    12  H    0.034929
 Sum of Mulliken charges =  -0.00000

 Dipole moment (field-independent basis, Debye):
    X=              0.3027    Y=              0.3854    Z=              0.7041  Tot=              0.8579

 Test job not archived.
 1\1\GINC-SE220\SP\RHF\Aug-CC-pVDZ\C5H6O1\OHZDE\09-Apr-2025\0\\#t hf au
 g-cc-pvdz iop(5/13=1,5/36=2,99/5=2) pseudo=read geom=check guess=(read
 ,tcheck) scf=(maxcycle=1)\\title\\0,1\C,0,-1.80699657,-0.22844734,0.27
 476134\C,0,-1.08947819,0.96101392,0.28692933\C,0,0.00161915,1.59985052
 ,0.18229586\C,0,1.13248991,0.83952342,-0.13124153\C,0,1.46464585,-0.38
 676359,0.67128957\O,0,0.70113717,-1.09991039,-0.2706136\H,0,-2.5664637
 9,-0.38502157,-0.50083108\H,0,-0.63540609,-0.82978407,-0.03901028\H,0,
 -2.09279697,-0.64855784,1.24784271\H,0,1.659263,0.96275252,-1.07791557

 Normal termination of Gaussian 16 at Wed Apr  9 15:50:46 2025.
