 Gaussian 16, Revision C.01,

 ----------------------------------------------------------------------
 #t hf aug-cc-pvdz symm=none int=(grid=ultrafine) guess=(read,tcheck) s
 table=(opt,rrhf)
 ----------------------------------------------------------------------
 -----
 title
 -----
 Symbolic Z-matrix:
 Charge =  0 Multiplicity = 1

 SCF Done:  E(RHF) =  -346.082212901     A.U. after   15 cycles

 1\1\GINC-SE115\Stability\RHF\Aug-CC-pVDZ\C5H12O2\OHZDE\09-Apr-2025\0\\
 #t hf aug-cc-pvdz symm=none int=(grid=ultrafine) guess=(read,tcheck) s
 table=(opt,rrhf)\\title\\0,1\C,0,-2.92748491,0.9873588,1.65211974\O,0,
 0.67725552,-0.7366599,2.0060407\C,0,0.10473096,-0.64945105,0.95365578\
 C,0,0.34289447,0.49132999,-0.01105539\C,0,1.69632297,0.37515522,-0.721
 03927\C,0,1.71404293,-0.69325915,-1.7925026\O,0,1.36824258,-1.92840415
 ,-1.19078205\H,0,-3.86619751,1.21812235,2.15320781\H,0,-2.2094599,0.61
 456528,2.38124367\H,0,-3.10375961,0.2283787,0.89051521\H,0,-0.63841197

 Normal termination of Gaussian 16 at Wed Apr  9 18:44:00 2025.
 Gaussian 16:  ES64L-G16RevC.01  3-Jul-2019

 ----------------------------------------------------------------------
 #t hf aug-cc-pvdz iop(5/13=1,5/36=2,99/5=2) pseudo=read geom=check gue
 ss=(read,tcheck) scf=(maxcycle=1)
 ----------------------------------------------------------------------
 -----
 title
 -----
 Structure from the checkpoint file:  "Grambow2020_wb97xd3_008010_reverse_mol2.chk"
 Charge =  0 Multiplicity = 1

                         Standard orientation:
 ---------------------------------------------------------------------
 Center     Atomic      Atomic             Coordinates (Angstroms)
 Number     Number       Type             X           Y           Z
 ---------------------------------------------------------------------
      1          6           0       -3.730776   -0.665215    0.456036
      2          8           0       -0.709818    1.752141   -0.603142
      3          6           0       -0.545823    0.774296    0.074966
      4          6           0       -0.157792   -0.566234   -0.509140
      5          6           0        1.305756   -0.597162   -0.963467
      6          6           0        2.282720   -0.681561    0.189041
      7          8           0        2.057201    0.427194    1.041703
      8          1           0       -4.797908   -0.732622    0.661482
      9          1           0       -3.506925    0.305638    0.016159
     10          1           0       -3.177425   -0.781736    1.387375
     11          1           0       -0.685467    0.820562    1.171256
     12          1           0       -0.803799   -0.729846   -1.374752
     13          1           0       -3.445861   -1.454278   -0.238671
     14          1           0       -0.350209   -1.360889    0.216956
     15          1           0        1.511610    0.297966   -1.555599
     16          1           0        1.467116   -1.460153   -1.614192
     17          1           0        2.131608   -1.622878    0.735111
     18          1           0        3.309985   -0.675795   -0.194999
     19          1           0        2.643704    0.374607    1.796779
 ---------------------------------------------------------------------

 SCF Done:  E(RHF) =  -346.447761194     A.U. after    2 cycles

 The electronic state is 1-A.
 Alpha  occ. eigenvalues --  -20.55930 -20.52959 -11.32684 -11.29452 -11.24309
 Alpha  occ. eigenvalues --  -11.24191 -11.22117  -1.46606  -1.46244  -1.08246
 Alpha  occ. eigenvalues --   -0.96915  -0.94832  -0.84539  -0.77586  -0.72254
 Alpha  occ. eigenvalues --   -0.68943  -0.64909  -0.62561  -0.59523  -0.57499
 Alpha  occ. eigenvalues --   -0.55351  -0.55283  -0.55230  -0.54044  -0.52817
 Alpha  occ. eigenvalues --   -0.50569  -0.47398  -0.45068  -0.40000
 Alpha virt. eigenvalues --    0.02781   0.03405   0.03472   0.04480   0.05384
 Alpha virt. eigenvalues --    0.05903   0.06579   0.07185   0.07740   0.08628
 Alpha virt. eigenvalues --    0.09223   0.10760   0.11683   0.13148   0.13758

 Mulliken charges:
               1
     1  C   -0.291894
     2  O   -1.184300
     3  C    1.158647
     4  C   -0.387662
     5  C   -0.460585
     6  C    0.648230
     7  O   -1.131786
     8  H    0.029232
     9  H    0.108181
    10  H    0.078529
    11  H    0.145075
    12  H    0.174309
    13  H    0.078811
    14  H    0.181617
    15  H    0.148739
    16  H    0.170169
    17  H    0.117853
    18  H    0.097650
    19  H    0.319185
 Sum of Mulliken charges =  -0.00000

 Dipole moment (field-independent basis, Debye):
    X=              1.9155    Y=             -3.6749    Z=              1.5271  Tot=              4.4166

 Test job not archived.
 1\1\GINC-SE115\SP\RHF\Aug-CC-pVDZ\C5H12O2\OHZDE\09-Apr-2025\0\\#t hf a
 ug-cc-pvdz iop(5/13=1,5/36=2,99/5=2) pseudo=read geom=check guess=(rea
 d,tcheck) scf=(maxcycle=1)\\title\\0,1\C,0,-2.92748491,0.9873588,1.652
 11974\O,0,0.67725552,-0.7366599,2.0060407\C,0,0.10473096,-0.64945105,0
 .95365578\C,0,0.34289447,0.49132999,-0.01105539\C,0,1.69632297,0.37515
 522,-0.72103927\C,0,1.71404293,-0.69325915,-1.7925026\O,0,1.36824258,-
 1.92840415,-1.19078205\H,0,-3.86619751,1.21812235,2.15320781\H,0,-2.20
 94599,0.61456528,2.38124367\H,0,-3.10375961,0.2283787,0.89051521\H,0,-

 Normal termination of Gaussian 16 at Wed Apr  9 18:44:07 2025.
