 Gaussian 16, Revision C.01,

 ----------------------------------------------------------------------
 #t hf aug-cc-pvdz symm=none int=(grid=ultrafine) guess=(read,tcheck) s
 table=(opt,rrhf)
 ----------------------------------------------------------------------
 -----
 title
 -----
 Symbolic Z-matrix:
 Charge =  0 Multiplicity = 1

 SCF Done:  E(RHF) =  -322.490952341     A.U. after   17 cycles
 Normal termination of Gaussian 16 at Wed Apr  9 18:33:29 2025.
 Gaussian 16:  ES64L-G16RevC.01  3-Jul-2019

 ----------------------------------------------------------------------
 #t hf aug-cc-pvdz iop(5/13=1,5/36=2,99/5=2) pseudo=read geom=check gue
 ss=(read,tcheck) scf=(maxcycle=1)
 ----------------------------------------------------------------------
 -----
 title
 -----
 Structure from the checkpoint file:  "Grambow2020_wb97xd3_007710_reverse_mol1.chk"
 Charge =  0 Multiplicity = 1

                         Standard orientation:
 ---------------------------------------------------------------------
 Center     Atomic      Atomic             Coordinates (Angstroms)
 Number     Number       Type             X           Y           Z
 ---------------------------------------------------------------------
      1          6           0        2.207119   -0.785437    0.236220
      2          7           0        1.202943    1.468080    0.107077
      3          6           0        0.216891    0.827003   -0.150493
      4          8           0        0.319170   -0.621152   -0.403605
      5          6           0       -1.135761   -0.762115   -0.470725
      6          6           0       -1.749596   -0.300848    0.796409
      7          6           0       -1.300831    0.700120   -0.252135
      8          1           0        2.826930   -0.274880   -0.481689
      9          1           0        2.246064   -0.415389    1.247960
     10          1           0        2.046838   -1.842992    0.092229
     11          1           0       -1.545131   -1.431483   -1.210886
     12          1           0       -1.194697   -0.387307    1.722821
     13          1           0       -2.821386   -0.435021    0.883376
     14          1           0       -1.959505    1.407384   -0.730159
 ---------------------------------------------------------------------

 SCF Done:  E(RHF) =  -322.817949530     A.U. after    2 cycles

 The electronic state is 1-A.
 Alpha  occ. eigenvalues --  -20.56697 -15.41079 -11.37622 -11.30906 -11.27625
 Alpha  occ. eigenvalues --  -11.25518 -11.25340  -1.48800  -1.15530  -1.13572
 Alpha  occ. eigenvalues --   -0.98732  -0.87991  -0.83369  -0.73790  -0.67793
 Alpha  occ. eigenvalues --   -0.67447  -0.65861  -0.65147  -0.59015  -0.54910
 Alpha  occ. eigenvalues --   -0.52864  -0.51156  -0.48106  -0.41377  -0.38051
 Alpha  occ. eigenvalues --   -0.33002
 Alpha virt. eigenvalues --    0.01570   0.03260   0.04047   0.04367   0.05241
 Alpha virt. eigenvalues --    0.05786   0.06196   0.07607   0.10021   0.10941
 Alpha virt. eigenvalues --    0.11602   0.12145   0.12900   0.14454   0.15078

 Mulliken charges:
               1
     1  C   -0.106345
     2  N    0.879218
     3  C   -1.394963
     4  O   -1.292337
     5  C    1.363123
     6  C    0.237809
     7  C    0.177490
     8  H    0.256482
     9  H    0.291686
    10  H    0.143332
    11  H   -0.186029
    12  H   -0.104067
    13  H   -0.091344
    14  H   -0.174054
 Sum of Mulliken charges =  -0.00000

 Dipole moment (field-independent basis, Debye):
    X=             -0.9061    Y=             -5.8311    Z=              0.1365  Tot=              5.9026

 Test job not archived.
 1\1\GINC-SE232\SP\RHF\Aug-CC-pVDZ\C5H7N1O1\OHZDE\09-Apr-2025\0\\#t hf
 aug-cc-pvdz iop(5/13=1,5/36=2,99/5=2) pseudo=read geom=check guess=(re
 ad,tcheck) scf=(maxcycle=1)\\title\\0,1\C,0,2.19878016,-0.57348774,0.5
 5361308\N,0,1.12051015,1.64730703,0.64737418\C,0,0.24974239,1.05967563
 ,0.05909278\O,0,0.48478891,-0.30606275,-0.44209663\C,0,-0.91201122,-0.
 44811124,-0.85437343\C,0,-1.80711524,-0.25998973,0.31121148\C,0,-1.201
 71906,0.93763584,-0.39727957\H,0,2.92792799,0.07911266,0.10340916\H,0,
 1.99999659,-0.41517747,1.60122545\H,0,2.13253084,-1.58195307,0.1748580

 Normal termination of Gaussian 16 at Wed Apr  9 18:33:34 2025.
