 Gaussian 16, Revision C.01,

 ----------------------------------------------------------------------
 #t hf aug-cc-pvdz symm=none int=(grid=ultrafine) guess=(read,tcheck) s
 table=(opt,rrhf)
 ----------------------------------------------------------------------
 -----
 title
 -----
 Symbolic Z-matrix:
 Charge =  0 Multiplicity = 1

 SCF Done:  E(RHF) =  -380.672597877     A.U. after   15 cycles
 Normal termination of Gaussian 16 at Wed Apr  9 18:23:46 2025.
 Gaussian 16:  ES64L-G16RevC.01  3-Jul-2019

 ----------------------------------------------------------------------
 #t hf aug-cc-pvdz iop(5/13=1,5/36=2,99/5=2) pseudo=read geom=check gue
 ss=(read,tcheck) scf=(maxcycle=1)
 ----------------------------------------------------------------------
 -----
 title
 -----
 Structure from the checkpoint file:  "Grambow2020_wb97xd3_007514_reverse_mol1.chk"
 Charge =  0 Multiplicity = 1

                         Standard orientation:
 ---------------------------------------------------------------------
 Center     Atomic      Atomic             Coordinates (Angstroms)
 Number     Number       Type             X           Y           Z
 ---------------------------------------------------------------------
      1          8           0        2.085260   -0.580647    0.962539
      2          6           0        2.052440    0.080581   -0.282073
      3          6           0        0.823933    0.981575   -0.417790
      4          6           0       -0.453526    0.239842   -0.291234
      5          8           0       -0.634838   -0.876875   -0.921350
      6          6           0       -1.611652    0.552261    0.509220
      7          8           0       -2.592678   -0.250714    0.335374
      8          1           0        1.581784   -1.394330    0.897666
      9          1           0        2.082479   -0.631679   -1.111645
     10          1           0        2.950086    0.698009   -0.337907
     11          1           0        0.828794    1.455782   -1.404720
     12          1           0        0.846833    1.773847    0.333461
     13          1           0       -0.667426    0.109236    1.234765
     14          1           0       -1.716566    1.562611    0.920393
     15          1           0       -1.635104   -1.033151   -0.653255
 ---------------------------------------------------------------------

 SCF Done:  E(RHF) =  -381.062250216     A.U. after    2 cycles

 The electronic state is 1-A.
 Alpha  occ. eigenvalues --  -20.60737 -20.57200 -20.47780 -11.38416 -11.32867
 Alpha  occ. eigenvalues --  -11.31642 -11.28452  -1.55583  -1.47721  -1.40199
 Alpha  occ. eigenvalues --   -1.11545  -1.01566  -0.90104  -0.80925  -0.76341
 Alpha  occ. eigenvalues --   -0.72769  -0.70295  -0.67580  -0.63798  -0.60525
 Alpha  occ. eigenvalues --   -0.59664  -0.58218  -0.55239  -0.52899  -0.51800
 Alpha  occ. eigenvalues --   -0.47124  -0.41174  -0.36792
 Alpha virt. eigenvalues --    0.02670   0.03448   0.03927   0.04202   0.06018
 Alpha virt. eigenvalues --    0.06824   0.07156   0.07744   0.09774   0.11462
 Alpha virt. eigenvalues --    0.12513   0.12805   0.13256   0.14000   0.14679

 Mulliken charges:
               1
     1  O   -1.105481
     2  C    0.742125
     3  C   -0.531136
     4  C    1.292092
     5  O   -1.573939
     6  C    0.593447
     7  O   -1.342652
     8  H    0.315633
     9  H    0.169676
    10  H    0.034280
    11  H    0.290534
    12  H    0.163522
    13  H    0.406476
    14  H    0.115652
    15  H    0.429772
 Sum of Mulliken charges =   0.00000

 Dipole moment (field-independent basis, Debye):
    X=              3.7640    Y=              1.9523    Z=             -1.3940  Tot=              4.4635

 Test job not archived.
 1\1\GINC-SE035\SP\RHF\Aug-CC-pVDZ\C4H8O3\OHZDE\09-Apr-2025\0\\#t hf au
 g-cc-pvdz iop(5/13=1,5/36=2,99/5=2) pseudo=read geom=check guess=(read
 ,tcheck) scf=(maxcycle=1)\\title\\0,1\O,0,-1.42411622,1.64615411,-0.04
 501726\C,0,-1.6391266,0.30334185,-0.41648063\C,0,-0.81432893,-0.663613
 73,0.43448517\C,0,0.64468811,-0.41895194,0.33703943\O,0,1.20786456,-0.
 22940902,-0.81356164\C,0,1.62109569,-0.30747015,1.39240214\O,0,2.82277
 029,-0.17370701,0.9734889\H,0,-0.6638427,1.98453307,-0.52173516\H,0,-1
 .41930016,0.14380562,-1.47602405\H,0,-2.6984493,0.0955746,-0.25908632\

 Normal termination of Gaussian 16 at Wed Apr  9 18:23:51 2025.
