 Gaussian 16, Revision C.01,

 ----------------------------------------------------------------------
 #t hf aug-cc-pvdz symm=none int=(grid=ultrafine) guess=(read,tcheck) s
 table=(opt,rrhf)
 ----------------------------------------------------------------------
 -----
 title
 -----
 Symbolic Z-matrix:
 Charge =  0 Multiplicity = 1

 SCF Done:  E(RHF) =  -302.697527727     A.U. after   16 cycles
 Normal termination of Gaussian 16 at Wed Apr  9 18:15:21 2025.
 Gaussian 16:  ES64L-G16RevC.01  3-Jul-2019

 ----------------------------------------------------------------------
 #t hf aug-cc-pvdz iop(5/13=1,5/36=2,99/5=2) pseudo=read geom=check gue
 ss=(read,tcheck) scf=(maxcycle=1)
 ----------------------------------------------------------------------
 -----
 title
 -----
 Structure from the checkpoint file:  "Grambow2020_wb97xd3_007232_reverse_mol1.chk"
 Charge =  0 Multiplicity = 1

                         Standard orientation:
 ---------------------------------------------------------------------
 Center     Atomic      Atomic             Coordinates (Angstroms)
 Number     Number       Type             X           Y           Z
 ---------------------------------------------------------------------
      1          6           0       -2.315616   -0.299279    0.246458
      2          7           0       -0.936071   -0.055713   -0.105993
      3          6           0       -0.205490    1.148219    0.207012
      4          7           0        0.949624    1.163685   -0.430544
      5          6           0        1.194990   -0.187189   -0.489139
      6          6           0        1.978815   -0.657916    0.564561
      7          6           0       -0.050018   -0.891125   -0.567567
      8          1           0       -2.981431    0.277951   -0.395788
      9          1           0       -2.542545   -1.358667    0.142488
     10          1           0       -2.469070   -0.006518    1.285021
     11          1           0       -0.798891    2.024581    0.448241
     12          1           0        2.714299    0.007078    0.997746
     13          1           0        0.506173    0.288471    1.475636
     14          1           0        2.108087   -1.720915    0.741741
     15          1           0       -0.247586   -1.944045   -0.707278
 ---------------------------------------------------------------------

 SCF Done:  E(RHF) =  -303.016528178     A.U. after    2 cycles

 The electronic state is 1-A.
 Alpha  occ. eigenvalues --  -15.59387 -15.44601 -11.32348 -11.31609 -11.30964
 Alpha  occ. eigenvalues --  -11.26260 -11.25862  -1.36953  -1.20916  -1.06364
 Alpha  occ. eigenvalues --   -1.01677  -0.92667  -0.82328  -0.80994  -0.74599
 Alpha  occ. eigenvalues --   -0.70093  -0.65436  -0.64712  -0.61936  -0.60296
 Alpha  occ. eigenvalues --   -0.56232  -0.55321  -0.48512  -0.42974  -0.35813
 Alpha  occ. eigenvalues --   -0.29420
 Alpha virt. eigenvalues --    0.02362   0.03487   0.04048   0.04247   0.05189
 Alpha virt. eigenvalues --    0.06250   0.06915   0.07876   0.08167   0.09609
 Alpha virt. eigenvalues --    0.10358   0.11182   0.12616   0.13297   0.13527

 Mulliken charges:
               1
     1  C   -0.336823
     2  N    0.877848
     3  C   -0.797876
     4  N    0.725427
     5  C   -0.874627
     6  C    0.324622
     7  C   -0.175748
     8  H    0.219976
     9  H    0.057165
    10  H    0.177032
    11  H   -0.176397
    12  H   -0.027112
    13  H    0.246594
    14  H   -0.091793
    15  H   -0.148289
 Sum of Mulliken charges =  -0.00000

 Dipole moment (field-independent basis, Debye):
    X=             -4.4647    Y=             -3.7820    Z=              0.3254  Tot=              5.8603

 Test job not archived.
 1\1\GINC-SE108\SP\RHF\Aug-CC-pVDZ\C5H8N2\OHZDE\09-Apr-2025\0\\#t hf au
 g-cc-pvdz iop(5/13=1,5/36=2,99/5=2) pseudo=read geom=check guess=(read
 ,tcheck) scf=(maxcycle=1)\\title\\0,1\C,0,-2.07050684,-0.03310404,-0.5
 2573349\N,0,-0.76346961,0.27007832,0.00945256\C,0,-0.22840473,-0.27182
 577,1.23469505\N,0,0.88404019,0.35499576,1.56721124\C,0,1.34461519,0.6
 8076684,0.31411809\C,0,2.23360836,-0.25560287,-0.21422991\C,0,0.229408
 37,0.89160617,-0.55971344\H,0,-2.8452267,0.47938146,0.04536361\H,0,-2.
 12488922,0.27745297,-1.56746633\H,0,-2.23091431,-1.10970726,-0.4703636

 Normal termination of Gaussian 16 at Wed Apr  9 18:15:26 2025.
