 Gaussian 16, Revision C.01,

 ----------------------------------------------------------------------
 #t hf aug-cc-pvdz symm=none int=(grid=ultrafine) guess=(read,tcheck) s
 table=(opt,rrhf)
 ----------------------------------------------------------------------
 -----
 title
 -----
 Symbolic Z-matrix:
 Charge =  0 Multiplicity = 1

 SCF Done:  E(RHF) =  -302.654214158     A.U. after   19 cycles
 Normal termination of Gaussian 16 at Wed Apr  9 19:18:10 2025.
 Gaussian 16:  ES64L-G16RevC.01  3-Jul-2019

 ----------------------------------------------------------------------
 #t hf aug-cc-pvdz iop(5/13=1,5/36=2,99/5=2) pseudo=read geom=check gue
 ss=(read,tcheck) scf=(maxcycle=1)
 ----------------------------------------------------------------------
 -----
 title
 -----
 Structure from the checkpoint file:  "Grambow2020_wb97xd3_009082_forward_mol1.chk"
 Charge =  0 Multiplicity = 1

                         Standard orientation:
 ---------------------------------------------------------------------
 Center     Atomic      Atomic             Coordinates (Angstroms)
 Number     Number       Type             X           Y           Z
 ---------------------------------------------------------------------
      1          6           0       -2.422932   -0.472976    0.076443
      2          7           0       -1.048559   -0.051603   -0.079304
      3          6           0       -0.585696    1.250965   -0.120626
      4          6           0        0.767331    1.211099    0.026841
      5          6           0        1.044448   -0.187499   -0.001385
      6          6           0        2.311334   -0.755848   -0.074990
      7          7           0       -0.090711   -0.934947    0.027175
      8          1           0       -3.072266    0.201190   -0.479152
      9          1           0       -2.709221   -0.470263    1.129292
     10          1           0       -2.509709   -1.483572   -0.315498
     11          1           0       -1.295728    2.063671   -0.132661
     12          1           0        2.332220    1.463852    0.472024
     13          1           0        3.000310    0.969716    0.702745
     14          1           0        3.084389   -0.328287   -0.691207
     15          1           0        2.457978   -1.784899    0.241659
 ---------------------------------------------------------------------

 SCF Done:  E(RHF) =  -302.969937836     A.U. after    2 cycles

 The electronic state is 1-A.
 Alpha  occ. eigenvalues --  -15.61527 -15.55662 -11.33278 -11.29437 -11.25886
 Alpha  occ. eigenvalues --  -11.25446 -11.19506  -1.40630  -1.15903  -1.07430
 Alpha  occ. eigenvalues --   -1.04325  -0.91920  -0.83972  -0.78073  -0.73180
 Alpha  occ. eigenvalues --   -0.69701  -0.66540  -0.64670  -0.60195  -0.58754
 Alpha  occ. eigenvalues --   -0.56402  -0.55791  -0.49851  -0.39034  -0.35201
 Alpha  occ. eigenvalues --   -0.30992
 Alpha virt. eigenvalues --   -0.01213   0.03082   0.04032   0.04591   0.04993
 Alpha virt. eigenvalues --    0.05167   0.05846   0.07170   0.08336   0.09584
 Alpha virt. eigenvalues --    0.11478   0.12165   0.12495   0.13144   0.14107

 Mulliken charges:
               1
     1  C   -0.151950
     2  N    0.123558
     3  C   -0.224286
     4  C   -0.173986
     5  C   -0.668480
     6  C    0.256987
     7  N    0.417570
     8  H    0.110279
     9  H    0.219855
    10  H    0.106636
    11  H   -0.227106
    12  H    0.339832
    13  H   -0.152791
    14  H    0.019563
    15  H    0.004317
 Sum of Mulliken charges =   0.00000

 Dipole moment (field-independent basis, Debye):
    X=             -1.6777    Y=             -2.1185    Z=             -0.7264  Tot=              2.7982

 Test job not archived.
 1\1\GINC-SE168\SP\RHF\Aug-CC-pVDZ\C5H8N2\OHZDE\09-Apr-2025\0\\#t hf au
 g-cc-pvdz iop(5/13=1,5/36=2,99/5=2) pseudo=read geom=check guess=(read
 ,tcheck) scf=(maxcycle=1)\\title\\0,1\C,0,2.48149748,-0.58504935,0.095
 08705\N,0,1.12707332,-0.0796276,0.12330151\C,0,0.70543987,1.17090421,-
 0.29025393\C,0,-0.65267735,1.13710171,-0.38186895\C,0,-0.97052398,-0.1
 4802368,0.14831308\C,0,-2.25037764,-0.60071518,0.44911914\N,0,0.139817
 09,-0.90312987,0.36052745\H,0,3.17079053,0.21492417,0.35916624\H,0,2.7
 2887226,-0.96745875,-0.89639101\H,0,2.55216797,-1.39378418,0.81855547\

 Normal termination of Gaussian 16 at Wed Apr  9 19:18:15 2025.
