 Gaussian 16, Revision C.01,

 ----------------------------------------------------------------------
 #t hf aug-cc-pvdz symm=none int=(grid=ultrafine) guess=(read,tcheck) s
 table=(opt,rrhf)
 ----------------------------------------------------------------------
 -----
 title
 -----
 Symbolic Z-matrix:
 Charge =  0 Multiplicity = 1

 SCF Done:  E(RHF) =  -322.746949227     A.U. after   14 cycles
 Normal termination of Gaussian 16 at Wed Apr  9 03:52:38 2025.
 Gaussian 16:  ES64L-G16RevC.01  3-Jul-2019

 ----------------------------------------------------------------------
 #t hf aug-cc-pvdz iop(5/13=1,5/36=2,99/5=2) pseudo=read geom=check gue
 ss=(read,tcheck) scf=(maxcycle=1)
 ----------------------------------------------------------------------
 -----
 title
 -----
 Structure from the checkpoint file:  "Grambow2020_wb97xd3_008262_reverse_mol2.chk"
 Charge =  0 Multiplicity = 1

                         Standard orientation:
 ---------------------------------------------------------------------
 Center     Atomic      Atomic             Coordinates (Angstroms)
 Number     Number       Type             X           Y           Z
 ---------------------------------------------------------------------
      1          6           0        1.912038   -0.992189    0.041220
      2          6           0        0.648980   -0.582143   -0.044488
      3          7           0       -0.518544   -1.313354   -0.187853
      4          6           0       -1.692654   -0.532030    0.191454
      5          6           0       -1.268845    0.902553   -0.112153
      6          6           0        0.246896    0.863965   -0.020212
      7          8           0        0.984223    1.806945    0.058578
      8          1           0       -2.563383   -0.847877   -0.383544
      9          1           0        2.190248   -2.038192    0.035772
     10          1           0        2.691597   -0.246140    0.107623
     11          1           0       -0.500959   -2.284940    0.069444
     12          1           0       -1.930561   -0.641345    1.256943
     13          1           0       -1.683909    1.649501    0.561377
     14          1           0       -1.525490    1.185983   -1.136199
 ---------------------------------------------------------------------

 SCF Done:  E(RHF) =  -323.079470933     A.U. after    2 cycles

 The electronic state is 1-A.
 Alpha  occ. eigenvalues --  -20.54037 -15.51765 -11.34270 -11.28516 -11.28126
 Alpha  occ. eigenvalues --  -11.25320 -11.22932  -1.47887  -1.26770  -1.06135
 Alpha  occ. eigenvalues --   -1.03634  -0.91630  -0.84847  -0.75447  -0.71333
 Alpha  occ. eigenvalues --   -0.68857  -0.65545  -0.61464  -0.60733  -0.57737
 Alpha  occ. eigenvalues --   -0.56698  -0.55096  -0.53815  -0.47421  -0.41136
 Alpha  occ. eigenvalues --   -0.34102
 Alpha virt. eigenvalues --    0.02956   0.03816   0.04306   0.04737   0.05733
 Alpha virt. eigenvalues --    0.06160   0.06798   0.07774   0.09775   0.10960
 Alpha virt. eigenvalues --    0.11714   0.12721   0.14183   0.14464   0.14923

 Mulliken charges:
               1
     1  C    0.416138
     2  C   -0.531164
     3  N    0.656280
     4  C   -0.029807
     5  C   -0.545118
     6  C    1.131950
     7  O   -1.489687
     8  H    0.057938
     9  H   -0.169114
    10  H   -0.091846
    11  H    0.079627
    12  H    0.042265
    13  H    0.209569
    14  H    0.262969
 Sum of Mulliken charges =  -0.00000

 Dipole moment (field-independent basis, Debye):
    X=             -2.7680    Y=             -2.5471    Z=              0.5380  Tot=              3.7999

 Test job not archived.
 1\1\GINC-SE103\SP\RHF\Aug-CC-pVDZ\C5H7N1O1\OHZDE\09-Apr-2025\0\\#t hf
 aug-cc-pvdz iop(5/13=1,5/36=2,99/5=2) pseudo=read geom=check guess=(re
 ad,tcheck) scf=(maxcycle=1)\\title\\0,1\C,0,-1.9581251,-1.04566926,-0.
 3777384\C,0,-0.85215226,-0.35496115,-0.11213174\N,0,-0.3734733,0.13421
 793,1.09198881\C,0,1.05176913,0.44425428,1.01825255\C,0,1.25513016,0.7
 9851043,-0.45245063\C,0,0.13282375,0.06345194,-1.16486249\O,0,0.047889
 32,-0.14576759,-2.34303179\H,0,1.29892253,1.26602723,1.69067743\H,0,-2
 .65543597,-1.35365223,0.39067343\H,0,-2.17191038,-1.29848699,-1.406859

 Normal termination of Gaussian 16 at Wed Apr  9 03:52:43 2025.
