 Gaussian 16, Revision C.01,

 ----------------------------------------------------------------------
 #t hf aug-cc-pvdz symm=none int=(grid=ultrafine) guess=(read,tcheck) s
 table=(opt,rrhf)
 ----------------------------------------------------------------------
 -----
 title
 -----
 Symbolic Z-matrix:
 Charge =  0 Multiplicity = 1

 SCF Done:  E(RHF) =  -307.021740006     A.U. after   13 cycles

 1\1\GINC-SE037\Stability\RHF\Aug-CC-pVDZ\C4H10O2\OHZDE\09-Apr-2025\0\\
 #t hf aug-cc-pvdz symm=none int=(grid=ultrafine) guess=(read,tcheck) s
 table=(opt,rrhf)\\title\\0,1\C,0,-1.74524409,-1.98888223,0.45734935\C,
 0,0.47615253,1.27621628,-0.4979706\C,0,0.98215341,0.26164384,-1.221697
 37\O,0,1.18104935,0.34834149,-2.57511873\C,0,0.2874864,1.18845181,0.98
 74078\O,0,1.07178245,2.15202756,1.70515373\H,0,-1.84764859,-2.88030154
 ,-0.17378142\H,0,-2.67832736,-1.82485305,1.00969236\H,0,-1.53056544,-1
 .11487416,-0.16883545\H,0,0.22258966,2.21441413,-0.99434917\H,0,1.2498

 Normal termination of Gaussian 16 at Wed Apr  9 16:04:30 2025.
 Gaussian 16:  ES64L-G16RevC.01  3-Jul-2019

 ----------------------------------------------------------------------
 #t hf aug-cc-pvdz iop(5/13=1,5/36=2,99/5=2) pseudo=read geom=check gue
 ss=(read,tcheck) scf=(maxcycle=1)
 ----------------------------------------------------------------------
 -----
 title
 -----
 Structure from the checkpoint file:  "Grambow2020_b97d3_007102_reverse_mol2.chk"
 Charge =  0 Multiplicity = 1

                         Standard orientation:
 ---------------------------------------------------------------------
 Center     Atomic      Atomic             Coordinates (Angstroms)
 Number     Number       Type             X           Y           Z
 ---------------------------------------------------------------------
      1          6           0       -3.071606   -0.998756    0.010757
      2          6           0        0.751415    0.297725    0.470919
      3          6           0        0.128426    1.239367   -0.260088
      4          8           0        0.165700    2.570352    0.065358
      5          6           0        0.733267   -1.154269    0.095378
      6          8           0        2.041907   -1.672788   -0.182750
      7          1           0       -3.927094   -0.350789   -0.216665
      8          1           0       -3.404276   -1.833539    0.639328
      9          1           0       -2.302576   -0.424003    0.540225
     10          1           0        1.322781    0.594223    1.352129
     11          1           0       -0.446477    0.969064   -1.151433
     12          1           0       -2.652714   -1.393481   -0.923291
     13          1           0       -0.364107    3.065790   -0.582840
     14          1           0        0.361736   -1.770326    0.926507
     15          1           0        0.043709   -1.309282   -0.756856
     16          1           0        2.459147   -1.032574   -0.789764
 ---------------------------------------------------------------------

 SCF Done:  E(RHF) =  -307.344908025     A.U. after    2 cycles

 The electronic state is 1-A.
 Alpha  occ. eigenvalues --  -20.58982 -20.54626 -11.31586 -11.29153 -11.23413
 Alpha  occ. eigenvalues --  -11.22639  -1.49433  -1.43710  -1.06124  -0.94730
 Alpha  occ. eigenvalues --   -0.91572  -0.78957  -0.74812  -0.67507  -0.65402
 Alpha  occ. eigenvalues --   -0.60439  -0.58119  -0.57354  -0.55329  -0.55213
 Alpha  occ. eigenvalues --   -0.55195  -0.52942  -0.50539  -0.44487  -0.35195
 Alpha virt. eigenvalues --    0.02501   0.03882   0.04237   0.04575   0.05912
 Alpha virt. eigenvalues --    0.06544   0.07173   0.07581   0.07944   0.09826
 Alpha virt. eigenvalues --    0.11288   0.12786   0.13578   0.14930   0.15465

 Mulliken charges:
               1
     1  C   -0.369787
     2  C    0.186650
     3  C    1.217850
     4  O   -1.389577
     5  C    0.532198
     6  O   -1.207294
     7  H    0.094774
     8  H    0.107042
     9  H    0.087941
    10  H   -0.145505
    11  H   -0.109832
    12  H    0.104325
    13  H    0.393532
    14  H    0.120716
    15  H    0.036849
    16  H    0.340120
 Sum of Mulliken charges =  -0.00000

 Dipole moment (field-independent basis, Debye):
    X=             -1.8845    Y=              1.8218    Z=             -1.9684  Tot=              3.2779

 Test job not archived.
 1\1\GINC-SE037\SP\RHF\Aug-CC-pVDZ\C4H10O2\OHZDE\09-Apr-2025\0\\#t hf a
 ug-cc-pvdz iop(5/13=1,5/36=2,99/5=2) pseudo=read geom=check guess=(rea
 d,tcheck) scf=(maxcycle=1)\\title\\0,1\C,0,-1.74524409,-1.98888223,0.4
 5734935\C,0,0.47615253,1.27621628,-0.4979706\C,0,0.98215341,0.26164384
 ,-1.22169737\O,0,1.18104935,0.34834149,-2.57511873\C,0,0.2874864,1.188
 45181,0.9874078\O,0,1.07178245,2.15202756,1.70515373\H,0,-1.84764859,-
 2.88030154,-0.17378142\H,0,-2.67832736,-1.82485305,1.00969236\H,0,-1.5
 3056544,-1.11487416,-0.16883545\H,0,0.22258966,2.21441413,-0.99434917\

 Normal termination of Gaussian 16 at Wed Apr  9 16:04:35 2025.
