 Gaussian 16, Revision C.01,

 ----------------------------------------------------------------------
 #t hf aug-cc-pvdz symm=none int=(grid=ultrafine) guess=(read,tcheck) s
 table=(opt,rrhf)
 ----------------------------------------------------------------------
 -----
 title
 -----
 Symbolic Z-matrix:
 Charge =  0 Multiplicity = 1

 SCF Done:  E(RHF) =  -338.568931977     A.U. after   16 cycles
 Normal termination of Gaussian 16 at Wed Apr  9 19:01:46 2025.
 Gaussian 16:  ES64L-G16RevC.01  3-Jul-2019

 ----------------------------------------------------------------------
 #t hf aug-cc-pvdz iop(5/13=1,5/36=2,99/5=2) pseudo=read geom=check gue
 ss=(read,tcheck) scf=(maxcycle=1)
 ----------------------------------------------------------------------
 -----
 title
 -----
 Structure from the checkpoint file:  "Grambow2020_wb97xd3_008479_forward_mol1.chk"
 Charge =  0 Multiplicity = 1

                         Standard orientation:
 ---------------------------------------------------------------------
 Center     Atomic      Atomic             Coordinates (Angstroms)
 Number     Number       Type             X           Y           Z
 ---------------------------------------------------------------------
      1          7           0        0.584102    1.564055    0.559128
      2          6           0        0.222571    0.732645   -0.426452
      3          6           0       -0.854210   -0.207652   -0.211261
      4          8           0       -2.137371    0.193062   -0.179032
      5          6           0       -0.232606   -1.302496    0.292299
      6          6           0        1.187322   -1.010615    0.285871
      7          7           0        1.351694   -0.025229   -0.731805
      8          1           0        1.082208    0.366252    1.203895
      9          1           0       -0.221107    1.963556    1.035562
     10          1           0       -2.682760   -0.506432    0.189114
     11          1           0       -0.680214   -2.148232    0.795479
     12          1           0        1.928445   -1.800042    0.382247
     13          1           0        2.183354    0.537330   -0.608049
 ---------------------------------------------------------------------

 SCF Done:  E(RHF) =  -338.914194074     A.U. after    2 cycles

 The electronic state is 1-A.
 Alpha  occ. eigenvalues --  -20.60067 -15.52122 -15.52084 -11.31479 -11.31019
 Alpha  occ. eigenvalues --  -11.29133 -11.25177  -1.51775  -1.32864  -1.16519
 Alpha  occ. eigenvalues --   -1.07909  -0.94889  -0.83503  -0.81868  -0.75759
 Alpha  occ. eigenvalues --   -0.71200  -0.67474  -0.65298  -0.61385  -0.59971
 Alpha  occ. eigenvalues --   -0.57468  -0.55380  -0.50056  -0.46745  -0.38579
 Alpha  occ. eigenvalues --   -0.30855
 Alpha virt. eigenvalues --    0.02828   0.03873   0.04306   0.05599   0.06448
 Alpha virt. eigenvalues --    0.06605   0.07344   0.09348   0.09832   0.10862
 Alpha virt. eigenvalues --    0.11502   0.12928   0.13745   0.14536   0.15297

 Mulliken charges:
               1
     1  N    0.617577
     2  C   -2.510679
     3  C    1.759883
     4  O   -1.586187
     5  C    0.528478
     6  C   -0.877298
     7  N    0.683676
     8  H    0.594986
     9  H    0.236359
    10  H    0.350560
    11  H   -0.115970
    12  H   -0.121468
    13  H    0.440084
 Sum of Mulliken charges =  -0.00000

 Dipole moment (field-independent basis, Debye):
    X=             -1.5605    Y=             -2.3941    Z=              1.5524  Tot=              3.2522

 Test job not archived.
 1\1\GINC-SE454\SP\RHF\Aug-CC-pVDZ\C4H6N2O1\OHZDE\09-Apr-2025\0\\#t hf
 aug-cc-pvdz iop(5/13=1,5/36=2,99/5=2) pseudo=read geom=check guess=(re
 ad,tcheck) scf=(maxcycle=1)\\title\\0,1\N,0,1.51166243,0.90425474,-0.2
 6872466\C,0,0.62944522,0.5203969,0.6627584\C,0,0.12422859,-0.83408823,
 0.65560038\O,0,0.8855218,-1.86718923,1.05715494\C,0,-0.96646177,-0.768
 91618,-0.14739041\C,0,-1.1195193,0.62261724,-0.52374041\N,0,-0.4780253
 5,1.35425187,0.51878706\H,0,0.39330038,0.78824425,-1.18216589\H,0,2.22
 764287,0.19957017,-0.42917242\H,0,0.47953344,-2.69194399,0.77926017\H,

 Normal termination of Gaussian 16 at Wed Apr  9 19:01:50 2025.
