 Gaussian 16, Revision C.01,

 ----------------------------------------------------------------------
 #t hf aug-cc-pvdz symm=none int=(grid=ultrafine) guess=(read,tcheck) s
 table=(opt,rrhf)
 ----------------------------------------------------------------------
 -----
 title
 -----
 Symbolic Z-matrix:
 Charge =  0 Multiplicity = 1

 SCF Done:  E(RHF) =  -394.422760484     A.U. after   15 cycles
 Normal termination of Gaussian 16 at Wed Apr  9 18:13:21 2025.
 Gaussian 16:  ES64L-G16RevC.01  3-Jul-2019

 ----------------------------------------------------------------------
 #t hf aug-cc-pvdz iop(5/13=1,5/36=2,99/5=2) pseudo=read geom=check gue
 ss=(read,tcheck) scf=(maxcycle=1)
 ----------------------------------------------------------------------
 -----
 title
 -----
 Structure from the checkpoint file:  "Grambow2020_wb97xd3_007198_forward_mol2.chk"
 Charge =  0 Multiplicity = 1

                         Standard orientation:
 ---------------------------------------------------------------------
 Center     Atomic      Atomic             Coordinates (Angstroms)
 Number     Number       Type             X           Y           Z
 ---------------------------------------------------------------------
      1          7           0        1.464872   -1.447097    0.316482
      2          6           0        0.713557   -0.515166   -0.043490
      3          8           0       -0.441034   -0.686160   -0.778519
      4          6           0       -1.589544   -0.196895   -0.241069
      5          8           0       -1.711949    0.150059    0.887666
      6          6           0        1.137822    0.913948    0.192289
      7          8           0        0.581946    1.847631   -0.304307
      8          1           0        1.089948   -2.360503    0.067307
      9          1           0       -2.374983   -0.212751   -1.004496
     10          1           0        2.028215    0.999378    0.836723
 ---------------------------------------------------------------------

 SCF Done:  E(RHF) =  -394.803399944     A.U. after    2 cycles

 The electronic state is 1-A.
 Alpha  occ. eigenvalues --  -20.63772 -20.58256 -20.57509 -15.54317 -11.42558
 Alpha  occ. eigenvalues --  -11.38511 -11.37279  -1.59993  -1.51697  -1.50193
 Alpha  occ. eigenvalues --   -1.26953  -0.98817  -0.92972  -0.79846  -0.77224
 Alpha  occ. eigenvalues --   -0.76661  -0.73183  -0.67787  -0.64885  -0.63120
 Alpha  occ. eigenvalues --   -0.57755  -0.55177  -0.51953  -0.49476  -0.47963
 Alpha  occ. eigenvalues --   -0.45430
 Alpha virt. eigenvalues --    0.03108   0.04085   0.04612   0.05244   0.08415
 Alpha virt. eigenvalues --    0.09194   0.10302   0.10817   0.11223   0.12323
 Alpha virt. eigenvalues --    0.12661   0.14231   0.14550   0.16583   0.17266

 Mulliken charges:
               1
     1  N    0.734117
     2  C   -0.098102
     3  O   -1.428908
     4  C    1.288349
     5  O   -0.906524
     6  C    0.996178
     7  O   -1.070765
     8  H    0.185170
     9  H    0.125396
    10  H    0.175089
 Sum of Mulliken charges =  -0.00000

 Dipole moment (field-independent basis, Debye):
    X=             -0.4451    Y=             -1.9205    Z=             -1.5047  Tot=              2.4801

 Test job not archived.
 1\1\GINC-SE035\SP\RHF\Aug-CC-pVDZ\C3H3N1O3\OHZDE\09-Apr-2025\0\\#t hf
 aug-cc-pvdz iop(5/13=1,5/36=2,99/5=2) pseudo=read geom=check guess=(re
 ad,tcheck) scf=(maxcycle=1)\\title\\0,1\N,0,-0.92621538,1.4353699,-0.8
 7043655\C,0,-0.48035503,0.36839133,-0.39576509\O,0,0.70241533,-0.22331
 219,-0.78759183\C,0,1.62185748,-0.46131163,0.18466965\O,0,1.58274377,0
 .00021097,1.27777018\C,0,-1.33073063,-0.4312577,0.56099164\O,0,-1.0653
 065,-1.54919329,0.88831356\H,0,-0.27968257,1.86086964,-1.53218602\H,0,
 2.40735579,-1.10942532,-0.21897479\H,0,-2.23208226,0.10965829,0.893209

 Normal termination of Gaussian 16 at Wed Apr  9 18:13:25 2025.
