 Gaussian 16, Revision C.01,

 ----------------------------------------------------------------------
 #t hf aug-cc-pvdz symm=none int=(grid=ultrafine) guess=(read,tcheck) s
 table=(opt,rrhf)
 ----------------------------------------------------------------------
 -----
 title
 -----
 Symbolic Z-matrix:
 Charge =  0 Multiplicity = 1

 SCF Done:  E(RHF) =  -323.783151684     A.U. after   15 cycles
 Normal termination of Gaussian 16 at Wed Apr  9 18:48:56 2025.
 Gaussian 16:  ES64L-G16RevC.01  3-Jul-2019

 ----------------------------------------------------------------------
 #t hf aug-cc-pvdz iop(5/13=1,5/36=2,99/5=2) pseudo=read geom=check gue
 ss=(read,tcheck) scf=(maxcycle=1)
 ----------------------------------------------------------------------
 -----
 title
 -----
 Structure from the checkpoint file:  "Grambow2020_wb97xd3_008091_reverse_mol2.chk"
 Charge =  0 Multiplicity = 1

                         Standard orientation:
 ---------------------------------------------------------------------
 Center     Atomic      Atomic             Coordinates (Angstroms)
 Number     Number       Type             X           Y           Z
 ---------------------------------------------------------------------
      1          6           0       -1.470056    1.287788    0.189056
      2          6           0       -1.311644   -0.190820    0.001515
      3          7           0       -2.300021   -0.930903   -0.247410
      4          8           0       -0.059229   -0.721294    0.109952
      5          6           0        1.036149    0.143504    0.404483
      6          6           0        1.534599    1.091229   -0.546280
      7          6           0        2.368225   -0.606995    0.065641
      8          1           0       -1.131533    1.600661    1.178627
      9          1           0       -0.892397    1.850650   -0.547975
     10          1           0       -2.521794    1.532779    0.076008
     11          1           0       -2.003549   -1.900422   -0.340124
     12          1           0        1.011790    0.432555    1.453550
     13          1           0        1.142588    0.785007   -1.532843
     14          1           0        2.850166   -0.219191   -0.852538
     15          1           0        2.083700   -1.637513   -0.135240
     16          1           0        3.091363   -0.506085    0.866306
 ---------------------------------------------------------------------

 SCF Done:  E(RHF) =  -324.117662384     A.U. after    2 cycles

 The electronic state is 1-A.
 Alpha  occ. eigenvalues --  -20.58613 -15.47388 -11.34732 -11.32423 -11.27992
 Alpha  occ. eigenvalues --  -11.27798 -11.25124  -1.51982  -1.21406  -1.12127
 Alpha  occ. eigenvalues --   -1.01522  -0.91406  -0.85553  -0.78345  -0.74655
 Alpha  occ. eigenvalues --   -0.67745  -0.64812  -0.61477  -0.60530  -0.58207
 Alpha  occ. eigenvalues --   -0.57624  -0.55461  -0.52731  -0.51285  -0.47144
 Alpha  occ. eigenvalues --   -0.42634  -0.38103
 Alpha virt. eigenvalues --    0.03210   0.03580   0.03898   0.04677   0.05929
 Alpha virt. eigenvalues --    0.06176   0.07167   0.07547   0.09069   0.10151
 Alpha virt. eigenvalues --    0.10349   0.11347   0.12507   0.12965   0.14707

 Mulliken charges:
               1
     1  C   -0.746638
     2  C   -0.089851
     3  N    0.734824
     4  O   -1.760677
     5  C    1.152222
     6  C   -0.432913
     7  C   -0.540516
     8  H    0.369479
     9  H    0.319192
    10  H    0.081789
    11  H    0.147609
    12  H   -0.020270
    13  H    0.202747
    14  H    0.211935
    15  H    0.164160
    16  H    0.206908
 Sum of Mulliken charges =   0.00000

 Dipole moment (field-independent basis, Debye):
    X=              2.6439    Y=             -0.3703    Z=              0.7666  Tot=              2.7776

 Test job not archived.
 1\1\GINC-SE219\SP\RHF\Aug-CC-pVDZ\C5H9N1O1\OHZDE\09-Apr-2025\0\\#t hf
 aug-cc-pvdz iop(5/13=1,5/36=2,99/5=2) pseudo=read geom=check guess=(re
 ad,tcheck) scf=(maxcycle=1)\\title\\0,1\C,0,1.90400268,-0.73973311,-0.
 05768073\C,0,1.40020325,0.67124123,-0.10108721\N,0,2.16336652,1.632727
 26,-0.38340542\O,0,0.08272814,0.89148731,0.17722034\C,0,-0.75096333,-0
 .21853084,0.50477703\C,0,-1.13406906,-1.19609815,-0.4689678\C,0,-2.246
 74598,0.22420034,0.36652487\H,0,1.76157616,-1.18158536,0.93035819\H,0,
 1.38371159,-1.37471216,-0.77866392\H,0,2.96326019,-0.72863777,-0.29601

 Normal termination of Gaussian 16 at Wed Apr  9 18:49:02 2025.
