 Gaussian 16, Revision C.01,

 ----------------------------------------------------------------------
 #t hf aug-cc-pvdz symm=none int=(grid=ultrafine) guess=(read,tcheck) s
 table=(opt,rrhf)
 ----------------------------------------------------------------------
 -----
 title
 -----
 Symbolic Z-matrix:
 Charge =  0 Multiplicity = 1

 SCF Done:  E(RHF) =  -318.803528198     A.U. after   16 cycles
 Normal termination of Gaussian 16 at Wed Apr  9 18:00:04 2025.
 Gaussian 16:  ES64L-G16RevC.01  3-Jul-2019

 ----------------------------------------------------------------------
 #t hf aug-cc-pvdz iop(5/13=1,5/36=2,99/5=2) pseudo=read geom=check gue
 ss=(read,tcheck) scf=(maxcycle=1)
 ----------------------------------------------------------------------
 -----
 title
 -----
 Structure from the checkpoint file:  "Grambow2020_wb97xd3_006929_forward_mol1.chk"
 Charge =  0 Multiplicity = 1

                         Standard orientation:
 ---------------------------------------------------------------------
 Center     Atomic      Atomic             Coordinates (Angstroms)
 Number     Number       Type             X           Y           Z
 ---------------------------------------------------------------------
      1          7           0       -2.419947   -0.498158   -0.212882
      2          6           0       -1.086237   -0.178839    0.136134
      3          6           0        0.066162   -1.059631    0.020347
      4          6           0        1.148785   -0.124887   -0.001502
      5          7           0        2.500281   -0.508275    0.043519
      6          6           0        0.678941    1.167233   -0.034201
      7          7           0       -0.675429    1.157479    0.014561
      8          1           0       -2.461317   -1.445806   -0.556925
      9          1           0       -3.075164   -0.386921    0.546238
     10          1           0       -0.747518   -0.567741    1.205388
     11          1           0        3.085295   -0.023415   -0.619385
     12          1           0        2.578689   -1.505390   -0.089942
     13          1           0        1.224086    2.101696   -0.031704
     14          1           0       -1.284320    1.946997   -0.094721
 ---------------------------------------------------------------------

 SCF Done:  E(RHF) =  -319.135580230     A.U. after    2 cycles

 The electronic state is 1-A.
 Alpha  occ. eigenvalues --  -15.53989 -15.50596 -15.48390 -11.31168 -11.28537
 Alpha  occ. eigenvalues --  -11.24662 -11.22164  -1.31246  -1.19892  -1.18324
 Alpha  occ. eigenvalues --   -1.04517  -0.98028  -0.81536  -0.79651  -0.76810
 Alpha  occ. eigenvalues --   -0.72243  -0.69961  -0.66755  -0.63857  -0.60957
 Alpha  occ. eigenvalues --   -0.56759  -0.51895  -0.47340  -0.43016  -0.35339
 Alpha  occ. eigenvalues --   -0.31624
 Alpha virt. eigenvalues --    0.02711   0.03869   0.04409   0.05651   0.05911
 Alpha virt. eigenvalues --    0.06145   0.08017   0.08287   0.11162   0.11204
 Alpha virt. eigenvalues --    0.11758   0.12582   0.12730   0.13659   0.15533

 Mulliken charges:
               1
     1  N    0.402324
     2  C   -1.422298
     3  C   -0.704438
     4  C   -0.473797
     5  N    0.611066
     6  C   -0.005931
     7  N    0.655973
     8  H    0.244369
     9  H    0.174642
    10  H    0.528346
    11  H    0.105430
    12  H    0.083850
    13  H   -0.188223
    14  H   -0.011312
 Sum of Mulliken charges =  -0.00000

 Dipole moment (field-independent basis, Debye):
    X=             -1.2562    Y=              2.8357    Z=             -0.0222  Tot=              3.1016

 Test job not archived.
 1\1\GINC-SE454\SP\RHF\Aug-CC-pVDZ\C4H7N3\OHZDE\09-Apr-2025\0\\#t hf au
 g-cc-pvdz iop(5/13=1,5/36=2,99/5=2) pseudo=read geom=check guess=(read
 ,tcheck) scf=(maxcycle=1)\\title\\0,1\N,0,-2.36994924,-0.51988664,-0.4
 0048601\C,0,-1.06330071,-0.20557603,0.04272963\C,0,0.11360039,-1.05164
 989,-0.08489316\C,0,1.17396304,-0.09799625,0.02678296\N,0,2.53000358,-
 0.45812684,0.11053353\C,0,0.67650517,1.18321496,0.07609162\N,0,-0.6780
 0931,1.14376818,0.05316553\H,0,-2.37191786,-1.43615391,-0.82305635\H,0
 ,-3.06500964,-0.48478246,0.32999725\H,0,-0.76998631,-0.67581098,1.0925

 Normal termination of Gaussian 16 at Wed Apr  9 18:00:08 2025.
