 Gaussian 16, Revision C.01,

 ----------------------------------------------------------------------
 #t hf aug-cc-pvdz symm=none int=(grid=ultrafine) guess=(read,tcheck) s
 table=(opt,rrhf)
 ----------------------------------------------------------------------
 -----
 title
 -----
 Symbolic Z-matrix:
 Charge =  0 Multiplicity = 1

 SCF Done:  E(RHF) =  -306.547172303     A.U. after   15 cycles
 Normal termination of Gaussian 16 at Wed Apr  9 19:16:05 2025.
 Gaussian 16:  ES64L-G16RevC.01  3-Jul-2019

 ----------------------------------------------------------------------
 #t hf aug-cc-pvdz iop(5/13=1,5/36=2,99/5=2) pseudo=read geom=check gue
 ss=(read,tcheck) scf=(maxcycle=1)
 ----------------------------------------------------------------------
 -----
 title
 -----
 Structure from the checkpoint file:  "Grambow2020_wb97xd3_009014_reverse_mol1.chk"
 Charge =  0 Multiplicity = 1

                         Standard orientation:
 ---------------------------------------------------------------------
 Center     Atomic      Atomic             Coordinates (Angstroms)
 Number     Number       Type             X           Y           Z
 ---------------------------------------------------------------------
      1          6           0        2.250839   -0.177670   -0.117107
      2          6           0        0.759639   -0.047197   -0.163171
      3          8           0        0.187588    1.234193   -0.268409
      4          6           0       -0.959777    0.755142    0.465292
      5          6           0       -1.747331   -0.164920   -0.475140
      6          6           0       -0.743781   -1.312344   -0.275514
      7          6           0       -0.193934   -0.519064    0.904032
      8          1           0        2.641191    0.340631    0.759129
      9          1           0        2.521811   -1.232145   -0.058249
     10          1           0        2.699963    0.252507   -1.012796
     11          1           0       -1.422088    1.535952    1.065520
     12          1           0       -2.639102   -0.530424    0.043454
     13          1           0       -2.015927    0.182509   -1.473750
     14          1           0        0.402781   -0.736235   -1.079275
     15          1           0        0.116737   -0.890022    1.872891
 ---------------------------------------------------------------------

 SCF Done:  E(RHF) =  -306.864781890     A.U. after    2 cycles

 The electronic state is 1-A.
 Alpha  occ. eigenvalues --  -20.55952 -11.32705 -11.30557 -11.26806 -11.24992
 Alpha  occ. eigenvalues --  -11.24971 -11.24336  -1.50377  -1.16815  -1.05255
 Alpha  occ. eigenvalues --   -0.94549  -0.89380  -0.76995  -0.75361  -0.70858
 Alpha  occ. eigenvalues --   -0.67011  -0.63798  -0.59381  -0.58468  -0.55407
 Alpha  occ. eigenvalues --   -0.54326  -0.52380  -0.47928  -0.43204  -0.42452
 Alpha  occ. eigenvalues --   -0.35075
 Alpha virt. eigenvalues --    0.03165   0.03459   0.04021   0.04645   0.05896
 Alpha virt. eigenvalues --    0.05977   0.06405   0.08398   0.09833   0.10886
 Alpha virt. eigenvalues --    0.12262   0.12409   0.12576   0.13656   0.14654

 Mulliken charges:
               1
     1  C   -0.559478
     2  C    0.649744
     3  O   -1.567132
     4  C    0.987778
     5  C   -0.145321
     6  C   -0.496357
     7  C    0.068174
     8  H    0.263963
     9  H    0.253050
    10  H    0.205168
    11  H   -0.057384
    12  H    0.217450
    13  H   -0.017727
    14  H    0.447605
    15  H   -0.249533
 Sum of Mulliken charges =  -0.00000

 Dipole moment (field-independent basis, Debye):
    X=              0.3493    Y=              0.9253    Z=              1.4626  Tot=              1.7657

 Test job not archived.
 1\1\GINC-SE219\SP\RHF\Aug-CC-pVDZ\C6H8O1\OHZDE\09-Apr-2025\0\\#t hf au
 g-cc-pvdz iop(5/13=1,5/36=2,99/5=2) pseudo=read geom=check guess=(read
 ,tcheck) scf=(maxcycle=1)\\title\\0,1\C,0,2.13300575,0.15905421,-0.130
 11784\C,0,0.64288607,0.02407365,-0.19451016\O,0,-0.08460681,0.87006229
 ,-1.05202676\C,0,-1.20074072,0.79421367,-0.13947873\C,0,-1.80435294,-0
 .60858112,-0.27726849\C,0,-0.67291244,-1.23259038,0.55579618\C,0,-0.30
 20749,0.18710977,0.96796656\H,0,2.3998503,1.15628732,0.22076802\H,0,2.
 53559635,-0.5820699,0.56087012\H,0,2.57406952,-0.00021391,-1.11455593\

 Normal termination of Gaussian 16 at Wed Apr  9 19:16:10 2025.
