 Gaussian 16, Revision C.01,

 ----------------------------------------------------------------------
 #t hf aug-cc-pvdz symm=none int=(grid=ultrafine) guess=(read,tcheck) s
 table=(opt,rrhf)
 ----------------------------------------------------------------------
 -----
 title
 -----
 Symbolic Z-matrix:
 Charge =  0 Multiplicity = 1

 SCF Done:  E(RHF) =  -394.413563593     A.U. after   14 cycles
 Normal termination of Gaussian 16 at Wed Apr  9 18:13:22 2025.
 Gaussian 16:  ES64L-G16RevC.01  3-Jul-2019

 ----------------------------------------------------------------------
 #t hf aug-cc-pvdz iop(5/13=1,5/36=2,99/5=2) pseudo=read geom=check gue
 ss=(read,tcheck) scf=(maxcycle=1)
 ----------------------------------------------------------------------
 -----
 title
 -----
 Structure from the checkpoint file:  "Grambow2020_wb97xd3_007198_reverse_mol2.chk"
 Charge =  0 Multiplicity = 1

                         Standard orientation:
 ---------------------------------------------------------------------
 Center     Atomic      Atomic             Coordinates (Angstroms)
 Number     Number       Type             X           Y           Z
 ---------------------------------------------------------------------
      1          7           0        0.415200    1.592629   -0.001007
      2          6           0       -0.065440    0.374597    0.012762
      3          8           0       -1.421594    0.473982   -0.003962
      4          6           0       -2.081803   -0.726484    0.007545
      5          8           0       -3.263839   -0.777437   -0.008530
      6          6           0        3.160399   -0.059449    0.004371
      7          8           0        3.578972   -1.100450   -0.007559
      8          1           0       -0.168974    2.420404   -0.019788
      9          1           0       -1.380306   -1.571708    0.032492
     10          1           0        1.415628    1.702154    0.006682
 ---------------------------------------------------------------------

 SCF Done:  E(RHF) =  -394.787816567     A.U. after    2 cycles

 The electronic state is 1-A.
 Alpha  occ. eigenvalues --  -20.66143 -20.62050 -20.55694 -15.55785 -11.40126
 Alpha  occ. eigenvalues --  -11.37949 -11.33428  -1.61562  -1.57857  -1.48950
 Alpha  occ. eigenvalues --   -1.26330  -0.94315  -0.84957  -0.81630  -0.79594
 Alpha  occ. eigenvalues --   -0.74849  -0.67694  -0.66235  -0.64477  -0.64459
 Alpha  occ. eigenvalues --   -0.62449  -0.57002  -0.55641  -0.48201  -0.46370
 Alpha  occ. eigenvalues --   -0.40957
 Alpha virt. eigenvalues --    0.02982   0.05082   0.05607   0.06949   0.08272
 Alpha virt. eigenvalues --    0.08946   0.09102   0.10593   0.12148   0.12190
 Alpha virt. eigenvalues --    0.13190   0.15011   0.15672   0.15901   0.16307

 Mulliken charges:
               1
     1  N    0.667175
     2  C   -0.280260
     3  O   -1.255562
     4  C    1.555718
     5  O   -1.049269
     6  C    0.509118
     7  O   -0.544090
     8  H    0.031312
     9  H    0.216525
    10  H    0.149333
 Sum of Mulliken charges =  -0.00000

 Dipole moment (field-independent basis, Debye):
    X=              3.2845    Y=              2.0737    Z=              0.0115  Tot=              3.8844

 Test job not archived.
 1\1\GINC-SE104\SP\RHF\Aug-CC-pVDZ\C3H3N1O3\OHZDE\09-Apr-2025\0\\#t hf
 aug-cc-pvdz iop(5/13=1,5/36=2,99/5=2) pseudo=read geom=check guess=(re
 ad,tcheck) scf=(maxcycle=1)\\title\\0,1\N,0,-0.91610904,0.93360886,-0.
 55174297\C,0,0.01494437,0.14230481,-0.08080283\O,0,1.20872596,0.767199
 38,-0.26438422\C,0,2.29606439,0.06218856,0.18034257\O,0,3.39203139,0.4
 9731389,0.0824294\C,0,-2.74885802,-1.48083726,0.48603807\O,0,-2.710582
 7,-2.47538589,1.00414595\H,0,-0.71996989,1.83678799,-0.9672178\H,0,2.0
 0062168,-0.90425767,0.61141003\H,0,-1.87101215,0.62117932,-0.49293519\

 Normal termination of Gaussian 16 at Wed Apr  9 18:13:25 2025.
