 Gaussian 16, Revision C.01,

 ----------------------------------------------------------------------
 #t hf aug-cc-pvdz symm=none int=(grid=ultrafine) guess=(read,tcheck) s
 table=(opt,rrhf)
 ----------------------------------------------------------------------
 -----
 title
 -----
 Symbolic Z-matrix:
 Charge =  0 Multiplicity = 1

 SCF Done:  E(RHF) =  -318.785477959     A.U. after   15 cycles
 Normal termination of Gaussian 16 at Wed Apr  9 18:00:37 2025.
 Gaussian 16:  ES64L-G16RevC.01  3-Jul-2019

 ----------------------------------------------------------------------
 #t hf aug-cc-pvdz iop(5/13=1,5/36=2,99/5=2) pseudo=read geom=check gue
 ss=(read,tcheck) scf=(maxcycle=1)
 ----------------------------------------------------------------------
 -----
 title
 -----
 Structure from the checkpoint file:  "Grambow2020_wb97xd3_006931_reverse_mol1.chk"
 Charge =  0 Multiplicity = 1

                         Standard orientation:
 ---------------------------------------------------------------------
 Center     Atomic      Atomic             Coordinates (Angstroms)
 Number     Number       Type             X           Y           Z
 ---------------------------------------------------------------------
      1          7           0       -2.377416   -0.423271   -0.207746
      2          6           0       -1.094382   -0.398199    0.118469
      3          6           0        0.095047   -1.056666    0.210843
      4          6           0        1.123084   -0.046491    0.011583
      5          7           0        2.462274   -0.363668   -0.017328
      6          6           0        0.580097    1.192662   -0.127900
      7          7           0       -0.846147    1.047735    0.114583
      8          1           0       -1.972324    0.884101   -0.467015
      9          1           0       -2.861842   -1.293922   -0.349272
     10          1           0        0.246696   -2.122561    0.153155
     11          1           0        3.065570    0.306188   -0.461657
     12          1           0        2.677701   -1.313897   -0.263158
     13          1           0        1.040189    2.164861   -0.155279
     14          1           0       -1.090036    1.401814    1.038686
 ---------------------------------------------------------------------

 SCF Done:  E(RHF) =  -319.118567734     A.U. after    2 cycles

 The electronic state is 1-A.
 Alpha  occ. eigenvalues --  -15.55768 -15.51413 -15.46659 -11.31900 -11.29159
 Alpha  occ. eigenvalues --  -11.22904 -11.20550  -1.31810  -1.22494  -1.15564
 Alpha  occ. eigenvalues --   -1.04792  -0.95297  -0.82934  -0.81573  -0.74586
 Alpha  occ. eigenvalues --   -0.72175  -0.69439  -0.66681  -0.61935  -0.57458
 Alpha  occ. eigenvalues --   -0.55871  -0.53990  -0.48906  -0.48158  -0.37411
 Alpha  occ. eigenvalues --   -0.27591
 Alpha virt. eigenvalues --    0.03133   0.03942   0.04445   0.05412   0.05947
 Alpha virt. eigenvalues --    0.06855   0.08284   0.10523   0.11111   0.11381
 Alpha virt. eigenvalues --    0.12432   0.12731   0.13806   0.14810   0.15354

 Mulliken charges:
               1
     1  N    0.650959
     2  C   -2.244088
     3  C    1.113166
     4  C   -0.977995
     5  N    0.691308
     6  C   -0.138230
     7  N    0.285319
     8  H    0.580006
     9  H    0.014297
    10  H   -0.200927
    11  H    0.059430
    12  H    0.058137
    13  H   -0.222433
    14  H    0.331050
 Sum of Mulliken charges =  -0.00000

 Dipole moment (field-independent basis, Debye):
    X=              1.7274    Y=              0.1668    Z=             -0.3380  Tot=              1.7680

 Test job not archived.
 1\1\GINC-SE112\SP\RHF\Aug-CC-pVDZ\C4H7N3\OHZDE\09-Apr-2025\0\\#t hf au
 g-cc-pvdz iop(5/13=1,5/36=2,99/5=2) pseudo=read geom=check guess=(read
 ,tcheck) scf=(maxcycle=1)\\title\\0,1\N,0,-2.45706604,-0.38670411,-0.1
 3396536\C,0,-1.18255623,-0.29852505,0.21398684\C,0,-0.01974544,-0.9298
 605,0.53977764\C,0,1.04790339,-0.05290363,0.08360735\N,0,2.37540041,-0
 .39897166,0.19698683\C,0,0.55255633,1.10129079,-0.43817555\N,0,-0.8835
 5315,1.0728749,-0.21288677\H,0,-1.99980676,0.77196218,-0.75762246\H,0,
 -2.96812858,-1.24683534,-0.02570876\H,0,0.09568846,-1.96767086,0.80825

 Normal termination of Gaussian 16 at Wed Apr  9 18:00:42 2025.
