 Gaussian 16, Revision C.01,

 ----------------------------------------------------------------------
 #t hf aug-cc-pvdz symm=none int=(grid=ultrafine) guess=(read,tcheck) s
 table=(opt,rrhf)
 ----------------------------------------------------------------------
 -----
 title
 -----
 Symbolic Z-matrix:
 Charge =  0 Multiplicity = 1

 SCF Done:  E(RHF) =  -318.774588376     A.U. after   15 cycles
 Normal termination of Gaussian 16 at Wed Apr  9 18:00:00 2025.
 Gaussian 16:  ES64L-G16RevC.01  3-Jul-2019

 ----------------------------------------------------------------------
 #t hf aug-cc-pvdz iop(5/13=1,5/36=2,99/5=2) pseudo=read geom=check gue
 ss=(read,tcheck) scf=(maxcycle=1)
 ----------------------------------------------------------------------
 -----
 title
 -----
 Structure from the checkpoint file:  "Grambow2020_wb97xd3_006926_reverse_mol1.chk"
 Charge =  0 Multiplicity = 1

                         Standard orientation:
 ---------------------------------------------------------------------
 Center     Atomic      Atomic             Coordinates (Angstroms)
 Number     Number       Type             X           Y           Z
 ---------------------------------------------------------------------
      1          7           0       -2.453674   -0.485434    0.014705
      2          6           0       -1.068626   -0.239978   -0.012111
      3          6           0       -0.009484   -1.096221    0.071903
      4          6           0        1.109961   -0.171504    0.099791
      5          7           0        2.470622   -0.502145   -0.059622
      6          6           0        0.636937    1.202082    0.011421
      7          7           0       -0.693646    1.110779   -0.058395
      8          1           0       -2.899911   -0.284736   -0.871187
      9          1           0       -2.596985   -1.462013    0.229158
     10          1           0        0.965024    0.386767    1.185800
     11          1           0        2.840192   -0.171288   -0.938073
     12          1           0        2.557956   -1.508270   -0.019437
     13          1           0        1.183118    2.133419    0.001505
     14          1           0       -1.325236    1.877449    0.109394
 ---------------------------------------------------------------------

 SCF Done:  E(RHF) =  -319.107637013     A.U. after    2 cycles

 The electronic state is 1-A.
 Alpha  occ. eigenvalues --  -15.56992 -15.50263 -15.49276 -11.33430 -11.30133
 Alpha  occ. eigenvalues --  -11.27689 -11.15704  -1.33388  -1.21497  -1.18488
 Alpha  occ. eigenvalues --   -1.05365  -0.98707  -0.83357  -0.80363  -0.77173
 Alpha  occ. eigenvalues --   -0.71167  -0.70192  -0.68840  -0.64282  -0.61556
 Alpha  occ. eigenvalues --   -0.59164  -0.51397  -0.49074  -0.41827  -0.31413
 Alpha  occ. eigenvalues --   -0.30544
 Alpha virt. eigenvalues --    0.02241   0.03633   0.04199   0.05381   0.05605
 Alpha virt. eigenvalues --    0.06898   0.07160   0.08722   0.10566   0.11841
 Alpha virt. eigenvalues --    0.12189   0.12711   0.13351   0.13837   0.15044

 Mulliken charges:
               1
     1  N    0.620421
     2  C   -1.448333
     3  C   -0.323404
     4  C   -1.060536
     5  N    0.646874
     6  C   -0.449929
     7  N    0.756452
     8  H    0.170024
     9  H    0.207946
    10  H    0.762866
    11  H    0.191548
    12  H    0.149720
    13  H   -0.212090
    14  H   -0.011559
 Sum of Mulliken charges =   0.00000

 Dipole moment (field-independent basis, Debye):
    X=              0.5244    Y=              4.7982    Z=             -1.4434  Tot=              5.0380

 Test job not archived.
 1\1\GINC-SE340\SP\RHF\Aug-CC-pVDZ\C4H7N3\OHZDE\09-Apr-2025\0\\#t hf au
 g-cc-pvdz iop(5/13=1,5/36=2,99/5=2) pseudo=read geom=check guess=(read
 ,tcheck) scf=(maxcycle=1)\\title\\0,1\N,0,-2.52546844,-0.40756145,-0.0
 8388577\C,0,-1.12988898,-0.23419715,-0.04353153\C,0,-0.12413986,-1.137
 38607,0.14278114\C,0,1.03990366,-0.27027208,0.1891736\N,0,2.38762904,-
 0.67714738,0.12418641\C,0,0.64643014,1.11902708,0.00661979\N,0,-0.6813
 4413,1.091632,-0.13454447\H,0,-2.91139978,-0.2308737,-1.00260726\H,0,-
 2.73220242,-1.36317278,0.16969394\H,0,0.86600863,0.35031236,1.23641994

 Normal termination of Gaussian 16 at Wed Apr  9 18:00:04 2025.
