 Gaussian 16, Revision C.01,

 ----------------------------------------------------------------------
 #t hf aug-cc-pvdz symm=none int=(grid=ultrafine) guess=(read,tcheck) s
 table=(opt,rrhf)
 ----------------------------------------------------------------------
 -----
 title
 -----
 Symbolic Z-matrix:
 Charge =  0 Multiplicity = 1

 SCF Done:  E(RHF) =  -306.705438309     A.U. after   13 cycles
 Normal termination of Gaussian 16 at Wed Apr  9 18:54:48 2025.
 Gaussian 16:  ES64L-G16RevC.01  3-Jul-2019

 ----------------------------------------------------------------------
 #t hf aug-cc-pvdz iop(5/13=1,5/36=2,99/5=2) pseudo=read geom=check gue
 ss=(read,tcheck) scf=(maxcycle=1)
 ----------------------------------------------------------------------
 -----
 title
 -----
 Structure from the checkpoint file:  "Grambow2020_wb97xd3_008206_forward_mol2.chk"
 Charge =  0 Multiplicity = 1

                         Standard orientation:
 ---------------------------------------------------------------------
 Center     Atomic      Atomic             Coordinates (Angstroms)
 Number     Number       Type             X           Y           Z
 ---------------------------------------------------------------------
      1          6           0        1.376863   -0.713385   -0.473274
      2          8           0        1.534609    0.700438   -0.276779
      3          6           0        0.390134    0.734953    0.600273
      4          6           0       -0.863906    1.231929   -0.056264
      5          6           0       -1.686277    0.235377   -0.358606
      6          6           0       -1.160288   -1.115626    0.055480
      7          6           0        0.247931   -0.799250    0.564619
      8          1           0        1.073711   -0.952338   -1.498622
      9          1           0        2.295844   -1.253977   -0.233429
     10          1           0        0.634875    1.238520    1.539033
     11          1           0       -1.043023    2.279157   -0.264182
     12          1           0       -2.644502    0.355940   -0.850785
     13          1           0       -1.788220   -1.558468    0.834149
     14          1           0       -1.152430   -1.824558   -0.778350
     15          1           0        0.520138   -1.331778    1.473046
 ---------------------------------------------------------------------

 SCF Done:  E(RHF) =  -307.026373879     A.U. after    2 cycles

 The electronic state is 1-A.
 Alpha  occ. eigenvalues --  -20.53029 -11.28660 -11.28152 -11.24288 -11.24087
 Alpha  occ. eigenvalues --  -11.23770 -11.23180  -1.45958  -1.13599  -1.00762
 Alpha  occ. eigenvalues --   -0.95005  -0.90474  -0.76696  -0.73534  -0.71871
 Alpha  occ. eigenvalues --   -0.66974  -0.62599  -0.60014  -0.57207  -0.56063
 Alpha  occ. eigenvalues --   -0.53620  -0.50019  -0.46546  -0.45195  -0.40689
 Alpha  occ. eigenvalues --   -0.36784
 Alpha virt. eigenvalues --    0.03349   0.03628   0.03980   0.04500   0.05772
 Alpha virt. eigenvalues --    0.06101   0.06667   0.07085   0.09872   0.11597
 Alpha virt. eigenvalues --    0.12672   0.13716   0.13896   0.14727   0.14871

 Mulliken charges:
               1
     1  C    0.714981
     2  O   -1.384097
     3  C    0.716969
     4  C    0.296574
     5  C    0.314837
     6  C   -0.557757
     7  C   -0.268249
     8  H    0.018010
     9  H    0.023979
    10  H    0.039205
    11  H   -0.086379
    12  H   -0.104190
    13  H    0.148540
    14  H    0.154096
    15  H   -0.026520
 Sum of Mulliken charges =   0.00000

 Dipole moment (field-independent basis, Debye):
    X=             -1.4699    Y=             -1.5181    Z=              0.6643  Tot=              2.2151

 Test job not archived.
 1\1\GINC-SE041\SP\RHF\Aug-CC-pVDZ\C6H8O1\OHZDE\09-Apr-2025\0\\#t hf au
 g-cc-pvdz iop(5/13=1,5/36=2,99/5=2) pseudo=read geom=check guess=(read
 ,tcheck) scf=(maxcycle=1)\\title\\0,1\C,0,-1.4558263,-0.47877006,-0.71
 183596\O,0,-0.84561491,-1.70729142,-0.28667027\C,0,-0.04051414,-1.0050
 9013,0.68232978\C,0,1.37186592,-0.76318583,0.23813759\C,0,1.55260006,0
 .49023948,-0.15819672\C,0,0.31131427,1.33725246,-0.03523362\C,0,-0.757
 05102,0.3282626,0.39247049\H,0,-1.16130401,-0.20749455,-1.73164193\H,0
 ,-2.54570499,-0.53422227,-0.65368494\H,0,-0.1275116,-1.46804992,1.6686

 Normal termination of Gaussian 16 at Wed Apr  9 18:54:53 2025.
