 Gaussian 16, Revision C.01,

 ----------------------------------------------------------------------
 #t hf aug-cc-pvdz symm=none int=(grid=ultrafine) guess=(read,tcheck) s
 table=(opt,rrhf)
 ----------------------------------------------------------------------
 -----
 title
 -----
 Symbolic Z-matrix:
 Charge =  0 Multiplicity = 1

 SCF Done:  E(RHF) =  -374.397622053     A.U. after   17 cycles
 Normal termination of Gaussian 16 at Wed Apr  9 18:20:01 2025.
 Gaussian 16:  ES64L-G16RevC.01  3-Jul-2019

 ----------------------------------------------------------------------
 #t hf aug-cc-pvdz iop(5/13=1,5/36=2,99/5=2) pseudo=read geom=check gue
 ss=(read,tcheck) scf=(maxcycle=1)
 ----------------------------------------------------------------------
 -----
 title
 -----
 Structure from the checkpoint file:  "Grambow2020_wb97xd3_007334_forward_mol1.chk"
 Charge =  0 Multiplicity = 1

                         Standard orientation:
 ---------------------------------------------------------------------
 Center     Atomic      Atomic             Coordinates (Angstroms)
 Number     Number       Type             X           Y           Z
 ---------------------------------------------------------------------
      1          7           0        2.281446   -0.811000    0.461547
      2          6           0        1.640000    0.224509   -0.090282
      3          6           0        1.259271    1.251324   -0.619761
      4          8           0       -1.550161    0.983196    0.853078
      5          6           0       -1.396341    0.034632    0.148131
      6          8           0       -2.033637   -0.950919   -0.305702
      7          7           0       -0.222898   -0.480700   -0.517656
      8          1           0        1.686151   -1.581458    0.721978
      9          1           0        2.995414   -0.577287    1.131819
     10          1           0        0.853361    2.178472   -0.950929
     11          1           0       -0.291952   -0.298830   -1.517638
 ---------------------------------------------------------------------

 SCF Done:  E(RHF) =  -374.766762773     A.U. after    2 cycles

 The electronic state is 1-A.
 Alpha  occ. eigenvalues --  -20.55038 -20.52908 -15.65081 -15.57251 -11.41255
 Alpha  occ. eigenvalues --  -11.34745 -11.29304  -1.52533  -1.45108  -1.28398
 Alpha  occ. eigenvalues --   -1.20835  -1.06947  -0.84256  -0.84005  -0.79186
 Alpha  occ. eigenvalues --   -0.75515  -0.71437  -0.67519  -0.65785  -0.60894
 Alpha  occ. eigenvalues --   -0.56898  -0.53260  -0.45746  -0.44203  -0.42506
 Alpha  occ. eigenvalues --   -0.40390
 Alpha virt. eigenvalues --    0.01184   0.02241   0.03583   0.05036   0.05686
 Alpha virt. eigenvalues --    0.09389   0.09937   0.10536   0.10842   0.11225
 Alpha virt. eigenvalues --    0.11534   0.12973   0.14384   0.14594   0.15682

 Mulliken charges:
               1
     1  N    0.652186
     2  C   -1.228981
     3  C    0.824731
     4  O   -0.954750
     5  C    1.096307
     6  O   -1.013268
     7  N    0.339594
     8  H    0.135028
     9  H    0.133952
    10  H   -0.240846
    11  H    0.256047
 Sum of Mulliken charges =  -0.00000

 Dipole moment (field-independent basis, Debye):
    X=              5.4510    Y=              0.3404    Z=             -1.0932  Tot=              5.5700

 Test job not archived.
 1\1\GINC-SE340\SP\RHF\Aug-CC-pVDZ\C3H4N2O2\OHZDE\09-Apr-2025\0\\#t hf
 aug-cc-pvdz iop(5/13=1,5/36=2,99/5=2) pseudo=read geom=check guess=(re
 ad,tcheck) scf=(maxcycle=1)\\title\\0,1\N,0,-1.93864734,-0.54010862,-0
 .37214492\C,0,-1.11764521,0.33411099,0.21941331\C,0,-0.55734586,1.2286
 9643,0.82392533\O,0,1.99901803,0.90719555,-1.04575277\C,0,1.82320982,-
 0.11562717,-0.45982776\O,0,2.39186771,-1.21533274,-0.23466477\N,0,0.68
 837128,-0.60617308,0.28670682\H,0,-1.47403304,-1.31816031,-0.81325267\
 H,0,-2.69733983,-0.14065328,-0.89983631\H,0,-0.00825311,2.0521204,1.21

 Normal termination of Gaussian 16 at Wed Apr  9 18:20:05 2025.
