 Gaussian 16, Revision C.01,

 ----------------------------------------------------------------------
 #t hf aug-cc-pvdz symm=none int=(grid=ultrafine) guess=(read,tcheck) s
 table=(opt,rrhf)
 ----------------------------------------------------------------------
 -----
 title
 -----
 Symbolic Z-matrix:
 Charge =  0 Multiplicity = 1

 SCF Done:  E(RHF) =  -320.536406945     A.U. after   18 cycles
 Normal termination of Gaussian 16 at Wed Apr  9 16:06:43 2025.
 Gaussian 16:  ES64L-G16RevC.01  3-Jul-2019

 ----------------------------------------------------------------------
 #t hf aug-cc-pvdz iop(5/13=1,5/36=2,99/5=2) pseudo=read geom=check gue
 ss=(read,tcheck) scf=(maxcycle=1)
 ----------------------------------------------------------------------
 -----
 title
 -----
 Structure from the checkpoint file:  "Grambow2020_b97d3_007128_reverse_mol1.chk"
 Charge =  0 Multiplicity = 1

                         Standard orientation:
 ---------------------------------------------------------------------
 Center     Atomic      Atomic             Coordinates (Angstroms)
 Number     Number       Type             X           Y           Z
 ---------------------------------------------------------------------
      1          6           0        1.329552   -1.127283    0.406897
      2          7           0        0.279249   -1.018814   -0.446859
      3          6           0       -0.865405   -0.029331   -0.098491
      4          8           0       -1.988235   -0.458133    0.131985
      5          6           0       -0.283304    1.256743    0.074742
      6          8           0        1.027276    1.430981   -0.160765
      7          1           0        1.577052    0.576963    0.149598
      8          1           0        1.098239   -1.042769    1.471934
      9          1           0        2.176960   -1.740390    0.096688
     10          1           0        0.563414   -0.993214   -1.431087
     11          1           0       -0.767791    1.947549    0.772231
 ---------------------------------------------------------------------

 SCF Done:  E(RHF) =  -320.855049621     A.U. after    2 cycles

 The electronic state is 1-A.
 Alpha  occ. eigenvalues --  -20.58233 -20.50008 -15.62561 -11.40224 -11.35857
 Alpha  occ. eigenvalues --  -11.26168  -1.47629  -1.43686  -1.30556  -1.00781
 Alpha  occ. eigenvalues --   -0.94555  -0.83358  -0.77884  -0.74235  -0.67599
 Alpha  occ. eigenvalues --   -0.65748  -0.61806  -0.58695  -0.54776  -0.51608
 Alpha  occ. eigenvalues --   -0.50016  -0.42179  -0.26439
 Alpha virt. eigenvalues --   -0.03407   0.01372   0.03475   0.04365   0.05534
 Alpha virt. eigenvalues --    0.06439   0.09230   0.10223   0.10572   0.12032
 Alpha virt. eigenvalues --    0.12604   0.14565   0.14938   0.15621   0.15943

 Mulliken charges:
               1
     1  C   -0.440349
     2  N    0.355509
     3  C    0.654890
     4  O   -1.295900
     5  C    0.985840
     6  O   -1.387782
     7  H    0.589931
     8  H    0.135281
     9  H    0.080842
    10  H    0.305138
    11  H    0.016598
 Sum of Mulliken charges =  -0.00000

 Dipole moment (field-independent basis, Debye):
    X=              6.1505    Y=             -3.1733    Z=              0.3472  Tot=              6.9296

 Test job not archived.
 1\1\GINC-SE173\SP\RHF\Aug-CC-pVDZ\C3H5N1O2\OHZDE\09-Apr-2025\0\\#t hf
 aug-cc-pvdz iop(5/13=1,5/36=2,99/5=2) pseudo=read geom=check guess=(re
 ad,tcheck) scf=(maxcycle=1)\\title\\0,1\C,0,-0.63622504,1.19776021,-0.
 31739867\N,0,0.23741994,0.7670375,0.62865836\C,0,0.28526975,-0.7480798
 1,0.96451566\O,0,-0.04053503,-1.1323773,2.07982097\C,0,0.54196484,-1.4
 4837849,-0.24648657\O,0,0.77949986,-0.76058925,-1.37518741\H,0,0.17857
 049,0.11438537,-1.41024881\H,0,-1.60036051,0.68401407,-0.35559575\H,0,
 -0.58178071,2.24376667,-0.62258343\H,0,1.16145112,1.20293296,0.5494697

 Normal termination of Gaussian 16 at Wed Apr  9 16:06:47 2025.
