 Gaussian 16, Revision C.01,

 ----------------------------------------------------------------------
 #t hf aug-cc-pvdz symm=none int=(grid=ultrafine) guess=(read,tcheck) s
 table=(opt,rrhf)
 ----------------------------------------------------------------------
 -----
 title
 -----
 Symbolic Z-matrix:
 Charge =  0 Multiplicity = 1

 SCF Done:  E(RHF) =  -304.628601238     A.U. after   13 cycles
 Normal termination of Gaussian 16 at Wed Apr  9 03:14:49 2025.
 Gaussian 16:  ES64L-G16RevC.01  3-Jul-2019

 ----------------------------------------------------------------------
 #t hf aug-cc-pvdz iop(5/13=1,5/36=2,99/5=2) pseudo=read geom=check gue
 ss=(read,tcheck) scf=(maxcycle=1)
 ----------------------------------------------------------------------
 -----
 title
 -----
 Structure from the checkpoint file:  "Grambow2020_b97d3_006923_forward_mol2.chk"
 Charge =  0 Multiplicity = 1

                         Standard orientation:
 ---------------------------------------------------------------------
 Center     Atomic      Atomic             Coordinates (Angstroms)
 Number     Number       Type             X           Y           Z
 ---------------------------------------------------------------------
      1          8           0       -1.792825   -0.494814   -0.333477
      2          6           0       -0.525755   -0.114042    0.092427
      3          6           0       -0.169261    1.280363    0.569948
      4          6           0        0.520374    0.687449   -0.634284
      5          8           0        1.586805   -0.191530   -0.230658
      6          6           0        0.614533   -1.085927    0.403913
      7          1           0       -2.395571   -0.409215    0.429833
      8          1           0       -0.927740    2.027812    0.330779
      9          1           0        0.392130    1.446017    1.492395
     10          1           0        0.558356    1.132595   -1.627350
     11          1           0        0.858487   -1.289219    1.458012
     12          1           0        0.523157   -2.024293   -0.162621
 ---------------------------------------------------------------------

 SCF Done:  E(RHF) =  -304.939732344     A.U. after    2 cycles

 The electronic state is 1-A.
 Alpha  occ. eigenvalues --  -20.57605 -20.54888 -11.30564 -11.29873 -11.29793
 Alpha  occ. eigenvalues --  -11.25163  -1.48197  -1.45972  -1.12878  -0.95788
 Alpha  occ. eigenvalues --   -0.84307  -0.76650  -0.73610  -0.67245  -0.65069
 Alpha  occ. eigenvalues --   -0.64037  -0.57214  -0.55101  -0.54820  -0.52005
 Alpha  occ. eigenvalues --   -0.46096  -0.41012  -0.38260
 Alpha virt. eigenvalues --    0.03144   0.04191   0.04491   0.04640   0.06340
 Alpha virt. eigenvalues --    0.06799   0.09524   0.10850   0.10942   0.13798
 Alpha virt. eigenvalues --    0.13910   0.14490   0.14750   0.15382   0.15571

 Mulliken charges:
               1
     1  O   -1.455748
     2  C    0.851848
     3  C    0.118199
     4  C    1.233339
     5  O   -1.405808
     6  C    0.455633
     7  H    0.250037
     8  H   -0.043644
     9  H   -0.113836
    10  H   -0.093788
    11  H    0.108206
    12  H    0.095563
 Sum of Mulliken charges =  -0.00000

 Dipole moment (field-independent basis, Debye):
    X=             -1.8190    Y=              0.5039    Z=              1.6004  Tot=              2.4747

 Test job not archived.
 1\1\GINC-SE090\SP\RHF\Aug-CC-pVDZ\C4H6O2\OHZDE\09-Apr-2025\0\\#t hf au
 g-cc-pvdz iop(5/13=1,5/36=2,99/5=2) pseudo=read geom=check guess=(read
 ,tcheck) scf=(maxcycle=1)\\title\\0,1\O,0,0.10812697,-1.37634549,-1.28
 439246\C,0,0.07357987,-0.40914075,-0.28681108\C,0,-1.15616872,-0.07422
 045,0.53478737\C,0,-0.50603693,0.97909316,-0.32844799\O,0,0.6295719,1.
 55816876,0.34077447\C,0,1.31000201,0.26032364,0.31727497\H,0,-0.062531
 67,-2.23925798,-0.86068097\H,0,-2.07872643,-0.48660328,0.12247684\H,0,
 -1.11445843,0.01164031,1.623088\H,0,-1.00113621,1.55443519,-1.10923988

 Normal termination of Gaussian 16 at Wed Apr  9 03:14:53 2025.
