 Gaussian 16, Revision C.01,

 ----------------------------------------------------------------------
 #t hf aug-cc-pvdz symm=none int=(grid=ultrafine) guess=(read,tcheck) s
 table=(opt,rrhf)
 ----------------------------------------------------------------------
 -----
 title
 -----
 Symbolic Z-matrix:
 Charge =  0 Multiplicity = 1

 SCF Done:  E(RHF) =  -306.672389063     A.U. after   15 cycles
 Normal termination of Gaussian 16 at Wed Apr  9 03:51:41 2025.
 Gaussian 16:  ES64L-G16RevC.01  3-Jul-2019

 ----------------------------------------------------------------------
 #t hf aug-cc-pvdz iop(5/13=1,5/36=2,99/5=2) pseudo=read geom=check gue
 ss=(read,tcheck) scf=(maxcycle=1)
 ----------------------------------------------------------------------
 -----
 title
 -----
 Structure from the checkpoint file:  "Grambow2020_wb97xd3_008167_reverse_mol2.chk"
 Charge =  0 Multiplicity = 1

                         Standard orientation:
 ---------------------------------------------------------------------
 Center     Atomic      Atomic             Coordinates (Angstroms)
 Number     Number       Type             X           Y           Z
 ---------------------------------------------------------------------
      1          8           0       -2.148647   -0.918990   -0.393182
      2          6           0       -1.228742   -0.240839   -0.038733
      3          6           0        1.840535   -1.101304   -0.284899
      4          6           0        1.191329    0.103027    0.368032
      5          6           0        0.669129    1.246116   -0.542537
      6          6           0       -0.738060    1.122719    0.030077
      7          6           0       -0.197658   -0.102232    0.972794
      8          1           0        1.196424   -1.518932   -1.062392
      9          1           0        2.793519   -0.829425   -0.744281
     10          1           0        2.032503   -1.888836    0.446919
     11          1           0        1.856798    0.521235    1.124761
     12          1           0        1.133389    2.202577   -0.308624
     13          1           0        0.741949    1.079266   -1.619116
     14          1           0       -1.392668    1.953859    0.265232
     15          1           0       -0.391934   -0.332749    2.014553
 ---------------------------------------------------------------------

 SCF Done:  E(RHF) =  -306.991249772     A.U. after    2 cycles

 The electronic state is 1-A.
 Alpha  occ. eigenvalues --  -20.53963 -11.34357 -11.26720 -11.26446 -11.26188
 Alpha  occ. eigenvalues --  -11.25561 -11.23446  -1.47274  -1.21569  -1.03838
 Alpha  occ. eigenvalues --   -0.96323  -0.88706  -0.77157  -0.74405  -0.70388
 Alpha  occ. eigenvalues --   -0.64837  -0.63012  -0.60972  -0.59548  -0.57133
 Alpha  occ. eigenvalues --   -0.53273  -0.51333  -0.49370  -0.47820  -0.40209
 Alpha  occ. eigenvalues --   -0.37959
 Alpha virt. eigenvalues --    0.02784   0.03417   0.03500   0.04450   0.05647
 Alpha virt. eigenvalues --    0.06336   0.06725   0.07281   0.09381   0.10968
 Alpha virt. eigenvalues --    0.11824   0.12957   0.13526   0.13922   0.14807

 Mulliken charges:
               1
     1  O   -1.274581
     2  C    1.031375
     3  C   -0.350195
     4  C   -0.612459
     5  C   -0.000724
     6  C    0.306711
     7  C    0.467103
     8  H    0.210997
     9  H    0.180004
    10  H    0.178729
    11  H    0.053234
    12  H    0.077907
    13  H    0.054180
    14  H   -0.150595
    15  H   -0.171688
 Sum of Mulliken charges =  -0.00000

 Dipole moment (field-independent basis, Debye):
    X=              3.1371    Y=              2.1387    Z=              1.1964  Tot=              3.9808

 Test job not archived.
 1\1\GINC-SE135\SP\RHF\Aug-CC-pVDZ\C6H8O1\OHZDE\09-Apr-2025\0\\#t hf au
 g-cc-pvdz iop(5/13=1,5/36=2,99/5=2) pseudo=read geom=check guess=(read
 ,tcheck) scf=(maxcycle=1)\\title\\0,1\O,0,1.80158431,2.12819283,-0.584
 34604\C,0,0.81506453,1.45414611,-0.51963763\C,0,0.77621475,-1.58844828
 ,0.46147184\C,0,-0.31651468,-0.71411201,-0.12134967\C,0,-0.96497545,0.
 36367599,0.78768859\C,0,-0.597217,1.47523911,-0.18826095\C,0,0.1122709
 7,0.34492847,-1.13709121\H,0,1.5584293,-0.98092253,0.92281901\H,0,0.37
 392739,-2.25900553,1.22412919\H,0,1.24348884,-2.2011222,-0.31241465\H,

 Normal termination of Gaussian 16 at Wed Apr  9 03:51:47 2025.
