 Gaussian 16, Revision C.01,

 ----------------------------------------------------------------------
 #t hf aug-cc-pvdz symm=none int=(grid=ultrafine) guess=(read,tcheck) s
 table=(opt,rrhf)
 ----------------------------------------------------------------------
 -----
 title
 -----
 Symbolic Z-matrix:
 Charge =  0 Multiplicity = 1

 SCF Done:  E(RHF) =  -271.783375863     A.U. after   15 cycles
 Normal termination of Gaussian 16 at Wed Apr  9 03:40:28 2025.
 Gaussian 16:  ES64L-G16RevC.01  3-Jul-2019

 ----------------------------------------------------------------------
 #t hf aug-cc-pvdz iop(5/13=1,5/36=2,99/5=2) pseudo=read geom=check gue
 ss=(read,tcheck) scf=(maxcycle=1)
 ----------------------------------------------------------------------
 -----
 title
 -----
 Structure from the checkpoint file:  "Grambow2020_wb97xd3_007434_reverse_mol1.chk"
 Charge =  0 Multiplicity = 1

                         Standard orientation:
 ---------------------------------------------------------------------
 Center     Atomic      Atomic             Coordinates (Angstroms)
 Number     Number       Type             X           Y           Z
 ---------------------------------------------------------------------
      1          6           0        2.306576   -0.619505   -0.310151
      2          6           0        0.977415    1.407513    0.266870
      3          6           0       -0.381132    1.110302    0.392450
      4          6           0       -1.198308    0.745642   -0.854814
      5          6           0       -1.449821   -0.675641   -0.382546
      6          6           0       -0.222158   -1.407914    0.065884
      7          6           0       -0.810581   -0.548017    0.978743
      8          1           0        2.908717   -0.082076    0.412739
      9          1           0        2.511850   -0.270449   -1.319097
     10          1           0        2.542384   -1.683584   -0.239355
     11          1           0        1.538258    1.780478    1.115785
     12          1           0        1.424994    1.537857   -0.704521
     13          1           0       -0.913058    1.670578    1.157196
     14          1           0       -0.655114    0.853120   -1.797265
     15          1           0       -2.118228    1.329944   -0.918868
     16          1           0       -2.368941   -1.213078   -0.594245
     17          1           0       -0.091256   -2.475766    0.139451
     18          1           0        1.013605   -0.861174   -0.195578
     19          1           0       -1.125161   -0.660126    2.005137
 ---------------------------------------------------------------------

 SCF Done:  E(RHF) =  -272.082677622     A.U. after    2 cycles

 The electronic state is 1-A.
 Alpha  occ. eigenvalues --  -11.25313 -11.24817 -11.24467 -11.24098 -11.22719
 Alpha  occ. eigenvalues --  -11.22486 -11.21309  -1.19094  -1.03942  -0.95746
 Alpha  occ. eigenvalues --   -0.91577  -0.82068  -0.77368  -0.73238  -0.69902
 Alpha  occ. eigenvalues --   -0.63188  -0.61530  -0.60534  -0.56015  -0.54937
 Alpha  occ. eigenvalues --   -0.53553  -0.52507  -0.47444  -0.43984  -0.41952
 Alpha  occ. eigenvalues --   -0.37952  -0.25690
 Alpha virt. eigenvalues --    0.03169   0.03445   0.03663   0.04068   0.04451
 Alpha virt. eigenvalues --    0.05651   0.05836   0.06421   0.06904   0.07847
 Alpha virt. eigenvalues --    0.09229   0.09464   0.10805   0.11681   0.12840

 Mulliken charges:
               1
     1  C   -0.718041
     2  C   -0.168705
     3  C    0.404212
     4  C   -0.361860
     5  C    0.395637
     6  C    0.010061
     7  C    0.171623
     8  H    0.151562
     9  H    0.179781
    10  H   -0.059157
    11  H   -0.165912
    12  H    0.060100
    13  H    0.008544
    14  H    0.017655
    15  H    0.058701
    16  H   -0.206532
    17  H   -0.339439
    18  H    0.855736
    19  H   -0.293965
 Sum of Mulliken charges =  -0.00000

 Dipole moment (field-independent basis, Debye):
    X=             -0.5681    Y=              0.4307    Z=              0.6530  Tot=              0.9668

 Test job not archived.
 1\1\GINC-SE179\SP\RHF\Aug-CC-pVDZ\C7H12\OHZDE\09-Apr-2025\0\\#t hf aug
 -cc-pvdz iop(5/13=1,5/36=2,99/5=2) pseudo=read geom=check guess=(read,
 tcheck) scf=(maxcycle=1)\\title\\0,1\C,0,1.02934698,0.43018377,-1.9158
 3261\C,0,1.42407258,-0.76351034,0.23537796\C,0,0.28086406,-0.76537843,
 1.03714192\C,0,-0.20034162,0.54361913,1.6785372\C,0,-1.48660841,0.5691
 3736,0.87156291\C,0,-1.30011909,0.36980047,-0.60151399\C,0,-1.31922967
 ,-0.76700971,0.18986007\H,0,1.62277301,-0.43762178,-2.17800039\H,0,1.6
 6810495,1.26501449,-1.63835355\H,0,0.42009763,0.71039063,-2.77791276\H

 Normal termination of Gaussian 16 at Wed Apr  9 03:40:36 2025.
