 Gaussian 16, Revision C.01,

 ----------------------------------------------------------------------
 #t hf aug-cc-pvdz symm=none int=(grid=ultrafine) guess=(read,tcheck) s
 table=(opt,rrhf)
 ----------------------------------------------------------------------
 -----
 title
 -----
 Symbolic Z-matrix:
 Charge =  0 Multiplicity = 1

 SCF Done:  E(RHF) =  -318.777257909     A.U. after   16 cycles
 Normal termination of Gaussian 16 at Wed Apr  9 18:00:06 2025.
 Gaussian 16:  ES64L-G16RevC.01  3-Jul-2019

 ----------------------------------------------------------------------
 #t hf aug-cc-pvdz iop(5/13=1,5/36=2,99/5=2) pseudo=read geom=check gue
 ss=(read,tcheck) scf=(maxcycle=1)
 ----------------------------------------------------------------------
 -----
 title
 -----
 Structure from the checkpoint file:  "Grambow2020_wb97xd3_006925_reverse_mol1.chk"
 Charge =  0 Multiplicity = 1

                         Standard orientation:
 ---------------------------------------------------------------------
 Center     Atomic      Atomic             Coordinates (Angstroms)
 Number     Number       Type             X           Y           Z
 ---------------------------------------------------------------------
      1          7           0       -2.063497   -0.665493    0.441964
      2          6           0       -0.975961   -0.174111   -0.204875
      3          6           0        0.222043   -1.006485   -0.498663
      4          6           0        1.096870   -0.108603    0.007308
      5          7           0        2.426410   -0.154656    0.250616
      6          6           0        0.279985    1.083029    0.353960
      7          7           0       -0.871430    1.101316   -0.676427
      8          1           0       -2.763468   -0.031553    0.787004
      9          1           0       -1.924098   -1.505873    0.976604
     10          1           0        0.305744   -1.874558   -1.138027
     11          1           0        2.894726    0.727874    0.355344
     12          1           0        2.966103   -0.928992   -0.091847
     13          1           0       -0.051142    1.166665    1.387506
     14          1           0       -1.605866    1.715284   -0.336027
 ---------------------------------------------------------------------

 SCF Done:  E(RHF) =  -319.111737089     A.U. after    2 cycles

 The electronic state is 1-A.
 Alpha  occ. eigenvalues --  -15.54131 -15.51462 -15.51097 -11.35615 -11.29109
 Alpha  occ. eigenvalues --  -11.20829 -11.19718  -1.31146  -1.22679  -1.20069
 Alpha  occ. eigenvalues --   -1.05404  -0.89992  -0.84041  -0.80003  -0.76994
 Alpha  occ. eigenvalues --   -0.73858  -0.72413  -0.65268  -0.61048  -0.58504
 Alpha  occ. eigenvalues --   -0.56467  -0.51813  -0.51457  -0.47529  -0.34576
 Alpha  occ. eigenvalues --   -0.25623
 Alpha virt. eigenvalues --    0.02609   0.03787   0.04799   0.05143   0.06080
 Alpha virt. eigenvalues --    0.06556   0.07006   0.09773   0.10950   0.11922
 Alpha virt. eigenvalues --    0.12154   0.12639   0.14011   0.14773   0.15110

 Mulliken charges:
               1
     1  N    0.827571
     2  C   -2.552153
     3  C    0.978673
     4  C   -0.783989
     5  N    0.818248
     6  C   -0.505741
     7  N    0.699381
     8  H    0.162725
     9  H    0.207772
    10  H   -0.120318
    11  H    0.056051
    12  H    0.024205
    13  H    0.046964
    14  H    0.140609
 Sum of Mulliken charges =  -0.00000

 Dipole moment (field-independent basis, Debye):
    X=             -1.4865    Y=             -1.8811    Z=              1.7922  Tot=              2.9933

 Test job not archived.
 1\1\GINC-SE114\SP\RHF\Aug-CC-pVDZ\C4H7N3\OHZDE\09-Apr-2025\0\\#t hf au
 g-cc-pvdz iop(5/13=1,5/36=2,99/5=2) pseudo=read geom=check guess=(read
 ,tcheck) scf=(maxcycle=1)\\title\\0,1\N,0,-2.16908252,-0.15439425,0.34
 489391\C,0,-0.98380649,-0.08606372,-0.31316573\C,0,0.06823526,-1.12919
 576,-0.1736803\C,0,1.0572621,-0.24342979,0.08080795\N,0,2.34626991,-0.
 38734685,0.46387939\C,0,0.43880192,1.0962426,-0.09308778\N,0,-0.641413
 21,0.90796732,-1.18188371\H,0,-2.7671127,0.65331485,0.3741959\H,0,-2.2
 0055115,-0.75883015,1.14812311\H,0,0.03419678,-2.17092717,-0.46174372\

 Normal termination of Gaussian 16 at Wed Apr  9 18:00:10 2025.
