 Gaussian 16, Revision C.01,

 ----------------------------------------------------------------------
 #t hf aug-cc-pvdz symm=none int=(grid=ultrafine) guess=(read,tcheck) s
 table=(opt,rrhf)
 ----------------------------------------------------------------------
 -----
 title
 -----
 Symbolic Z-matrix:
 Charge =  0 Multiplicity = 1

 SCF Done:  E(RHF) =  -305.459339121     A.U. after   14 cycles
 Normal termination of Gaussian 16 at Wed Apr  9 18:44:34 2025.
 Gaussian 16:  ES64L-G16RevC.01  3-Jul-2019

 ----------------------------------------------------------------------
 #t hf aug-cc-pvdz iop(5/13=1,5/36=2,99/5=2) pseudo=read geom=check gue
 ss=(read,tcheck) scf=(maxcycle=1)
 ----------------------------------------------------------------------
 -----
 title
 -----
 Structure from the checkpoint file:  "Grambow2020_wb97xd3_008023_forward_mol2.chk"
 Charge =  0 Multiplicity = 1

                         Standard orientation:
 ---------------------------------------------------------------------
 Center     Atomic      Atomic             Coordinates (Angstroms)
 Number     Number       Type             X           Y           Z
 ---------------------------------------------------------------------
      1          8           0        1.892675   -1.297604    0.064424
      2          6           0        0.540498   -1.224019   -0.294449
      3          6           0       -0.189039   -0.076103    0.441225
      4          6           0        0.442178    1.208063    0.116886
      5          6           0        1.010982    2.222126   -0.166931
      6          6           0       -1.618153   -0.087115    0.120386
      7          6           0       -2.780504   -0.140399   -0.156153
      8          1           0        2.324283   -0.483640   -0.210156
      9          1           0        0.406724   -1.090550   -1.373975
     10          1           0        0.079872   -2.168652   -0.005713
     11          1           0       -0.069233   -0.249708    1.515575
     12          1           0        1.497870    3.137035   -0.410376
     13          1           0       -3.816683   -0.178974   -0.396530
 ---------------------------------------------------------------------

 SCF Done:  E(RHF) =  -305.773705457     A.U. after    2 cycles

 The electronic state is 1-A.
 Alpha  occ. eigenvalues --  -20.55781 -11.30449 -11.30115 -11.25989 -11.25610
 Alpha  occ. eigenvalues --  -11.25050 -11.24692  -1.46583  -1.12697  -1.03929
 Alpha  occ. eigenvalues --   -1.00321  -0.89819  -0.76508  -0.73465  -0.71958
 Alpha  occ. eigenvalues --   -0.69204  -0.67263  -0.60893  -0.59858  -0.51777
 Alpha  occ. eigenvalues --   -0.46778  -0.42789  -0.42638  -0.40887  -0.39902
 Alpha virt. eigenvalues --    0.03167   0.03395   0.04469   0.04820   0.05846
 Alpha virt. eigenvalues --    0.06380   0.09560   0.09923   0.10694   0.11178
 Alpha virt. eigenvalues --    0.11606   0.12049   0.12839   0.13646   0.14342

 Mulliken charges:
               1
     1  O   -1.201763
     2  C    1.029583
     3  C   -1.352733
     4  C    0.512733
     5  C    0.230458
     6  C    0.588842
     7  C    0.236983
     8  H    0.326193
     9  H    0.147451
    10  H    0.062469
    11  H    0.288968
    12  H   -0.436324
    13  H   -0.432860
 Sum of Mulliken charges =   0.00000

 Dipole moment (field-independent basis, Debye):
    X=             -0.4899    Y=              0.9284    Z=             -0.6041  Tot=              1.2112

 Test job not archived.
 1\1\GINC-SE219\SP\RHF\Aug-CC-pVDZ\C6H6O1\OHZDE\09-Apr-2025\0\\#t hf au
 g-cc-pvdz iop(5/13=1,5/36=2,99/5=2) pseudo=read geom=check guess=(read
 ,tcheck) scf=(maxcycle=1)\\title\\0,1\O,0,2.03451098,-1.02467701,-0.09
 760119\C,0,1.30782034,0.02375234,0.48145283\C,0,-0.03062403,0.27101633
 ,-0.25242653\C,0,-0.85784737,-0.93994273,-0.20779657\C,0,-1.47779527,-
 1.96248226,-0.15788649\C,0,-0.71947593,1.4331203,0.31363333\C,0,-1.241
 34355,2.39566775,0.79480948\H,0,1.52365287,-1.83407189,-0.00748681\H,0
 ,1.09902246,-0.15546166,1.5422885\H,0,1.91938363,0.92212183,0.39900444

 Normal termination of Gaussian 16 at Wed Apr  9 18:44:38 2025.
