 Gaussian 16, Revision C.01,

 ----------------------------------------------------------------------
 #t hf aug-cc-pvdz symm=none int=(grid=ultrafine) guess=(read,tcheck) s
 table=(opt,rrhf)
 ----------------------------------------------------------------------
 -----
 title
 -----
 Symbolic Z-matrix:
 Charge =  0 Multiplicity = 1

 SCF Done:  E(RHF) =  -339.287146625     A.U. after   16 cycles
 Normal termination of Gaussian 16 at Wed Apr  9 15:50:35 2025.
 Gaussian 16:  ES64L-G16RevC.01  3-Jul-2019

 ----------------------------------------------------------------------
 #t hf aug-cc-pvdz iop(5/13=1,5/36=2,99/5=2) pseudo=read geom=check gue
 ss=(read,tcheck) scf=(maxcycle=1)
 ----------------------------------------------------------------------
 -----
 title
 -----
 Structure from the checkpoint file:  "Grambow2020_b97d3_006815_reverse_mol2.chk"
 Charge =  0 Multiplicity = 1

                         Standard orientation:
 ---------------------------------------------------------------------
 Center     Atomic      Atomic             Coordinates (Angstroms)
 Number     Number       Type             X           Y           Z
 ---------------------------------------------------------------------
      1          8           0        1.207448    0.856110    0.327169
      2          6           0        0.307669    1.413803   -0.474707
      3          6           0       -1.690108   -0.263079    0.383280
      4          8           0       -2.711041   -0.209836   -0.140538
      5          6           0        1.252926   -0.580108    0.400772
      6          8           0        1.372262   -1.280041   -0.556958
      7          1           0        0.560041    2.504262   -0.358133
      8          1           0        1.267681   -0.857820    1.464688
 ---------------------------------------------------------------------

 SCF Done:  E(RHF) =  -339.601870168     A.U. after    2 cycles

 The electronic state is 1-A.
 Alpha  occ. eigenvalues --  -20.64912 -20.64736 -20.59428 -11.43409 -11.37698
 Alpha  occ. eigenvalues --  -11.34301  -1.58401  -1.58315  -1.50969  -0.98434
 Alpha  occ. eigenvalues --   -0.81524  -0.79963  -0.74494  -0.69551  -0.67283
 Alpha  occ. eigenvalues --   -0.62165  -0.61966  -0.60655  -0.55817  -0.54538
 Alpha  occ. eigenvalues --   -0.49393  -0.39239
 Alpha virt. eigenvalues --    0.03241   0.04310   0.05292   0.06806   0.08412
 Alpha virt. eigenvalues --    0.09618   0.10095   0.10698   0.11770   0.13352
 Alpha virt. eigenvalues --    0.13805   0.14946   0.15291   0.16012   0.16973

 Mulliken charges:
               1
     1  O   -1.028759
     2  C    0.192054
     3  C    0.617295
     4  O   -0.637160
     5  C    1.388483
     6  O   -0.867408
     7  H    0.147894
     8  H    0.187602
 Sum of Mulliken charges =  -0.00000

 Dipole moment (field-independent basis, Debye):
    X=              0.9086    Y=              1.0641    Z=              2.6960  Tot=              3.0375

 Test job not archived.
 1\1\GINC-SE092\SP\RHF\Aug-CC-pVDZ\C3H2O3\OHZDE\09-Apr-2025\0\\#t hf au
 g-cc-pvdz iop(5/13=1,5/36=2,99/5=2) pseudo=read geom=check guess=(read
 ,tcheck) scf=(maxcycle=1)\\title\\0,1\O,0,-0.82971761,-0.69274527,0.61
 498126\C,0,-0.83355665,0.60125866,0.91359117\C,0,0.54500257,1.26615986
 ,-1.36602952\O,0,0.87858212,2.35658819,-1.504648\C,0,0.39771197,-1.276
 33677,0.14270448\O,0,1.42812,-1.20174439,0.73775852\H,0,-1.88377004,0.
 73211871,1.29609454\H,0,0.16295964,-1.857816,-0.76064146\\Version=ES64
 L-G16RevC.01\State=1-A\HF=-339.6018702\RMSD=6.414e-03\Dipole=-0.896414

 Normal termination of Gaussian 16 at Wed Apr  9 15:50:37 2025.
