 Gaussian 16, Revision C.01,

 ----------------------------------------------------------------------
 #t hf aug-cc-pvdz symm=none int=(grid=ultrafine) guess=(read,tcheck) s
 table=(opt,rrhf)
 ----------------------------------------------------------------------
 -----
 title
 -----
 Symbolic Z-matrix:
 Charge =  0 Multiplicity = 1

 SCF Done:  E(RHF) =  -299.637874281     A.U. after   15 cycles
 Normal termination of Gaussian 16 at Wed Apr  9 16:17:40 2025.
 Gaussian 16:  ES64L-G16RevC.01  3-Jul-2019

 ----------------------------------------------------------------------
 #t hf aug-cc-pvdz iop(5/13=1,5/36=2,99/5=2) pseudo=read geom=check gue
 ss=(read,tcheck) scf=(maxcycle=1)
 ----------------------------------------------------------------------
 -----
 title
 -----
 Structure from the checkpoint file:  "Grambow2020_b97d3_007182_reverse_mol2.chk"
 Charge =  0 Multiplicity = 1

                         Standard orientation:
 ---------------------------------------------------------------------
 Center     Atomic      Atomic             Coordinates (Angstroms)
 Number     Number       Type             X           Y           Z
 ---------------------------------------------------------------------
      1          6           0       -2.090256   -0.005903   -0.000461
      2          6           0       -0.597324   -0.080629    0.000574
      3          7           0        0.094557   -1.172353    0.000682
      4          8           0        1.521750   -0.614046   -0.000361
      5          6           0        1.542625    0.702622   -0.000690
      6          7           0        0.223214    1.052617    0.000486
      7          1           0       -2.514772   -1.014933   -0.004964
      8          1           0       -2.453979    0.525453    0.890442
      9          1           0       -2.451009    0.531789   -0.888883
     10          1           0       -0.108906    2.011673    0.001585
 ---------------------------------------------------------------------

 SCF Done:  E(RHF) =  -299.933119281     A.U. after    2 cycles

 The electronic state is 1-A.
 Alpha  occ. eigenvalues --  -20.62708 -15.57822 -15.57534 -11.35711 -11.32251
 Alpha  occ. eigenvalues --  -11.28917  -1.54465  -1.29176  -1.19944  -1.03595
 Alpha  occ. eigenvalues --   -0.89648  -0.85919  -0.76786  -0.68724  -0.65125
 Alpha  occ. eigenvalues --   -0.61407  -0.61391  -0.57451  -0.56133  -0.51612
 Alpha  occ. eigenvalues --   -0.46006  -0.40751
 Alpha virt. eigenvalues --    0.02209   0.03834   0.04190   0.05534   0.07827
 Alpha virt. eigenvalues --    0.09843   0.09859   0.11035   0.11566   0.12874
 Alpha virt. eigenvalues --    0.13306   0.13942   0.14185   0.15657   0.16198

 Mulliken charges:
               1
     1  C   -0.062672
     2  C   -1.526405
     3  N    1.162336
     4  O   -1.106692
     5  C    0.079705
     6  N    0.739236
     7  H    0.215681
     8  H    0.241353
     9  H    0.241029
    10  H    0.016428
 Sum of Mulliken charges =  -0.00000

 Dipole moment (field-independent basis, Debye):
    X=             -5.1617    Y=              2.9029    Z=              0.0017  Tot=              5.9220

 Test job not archived.
 1\1\GINC-SE114\SP\RHF\Aug-CC-pVDZ\C3H4N2O1\OHZDE\09-Apr-2025\0\\#t hf
 aug-cc-pvdz iop(5/13=1,5/36=2,99/5=2) pseudo=read geom=check guess=(re
 ad,tcheck) scf=(maxcycle=1)\\title\\0,1\C,0,-1.42308286,0.13060503,0.1
 2378212\C,0,0.00383195,-0.12724409,-0.23934107\N,0,0.40386168,-0.71835
 851,-1.31689363\O,0,1.92367176,-0.68190867,-1.12340624\C,0,2.26932251,
 -0.09690909,0.00457981\N,0,1.07835518,0.25589928,0.57067756\H,0,-2.083
 30567,-0.25233681,-0.66097161\H,0,-1.6788883,-0.36363966,1.07174224\H,
 0,-1.6045724,1.20843853,0.24162429\H,0,0.99380015,0.73284298,1.4625675

 Normal termination of Gaussian 16 at Wed Apr  9 16:17:43 2025.
