 Gaussian 16, Revision C.01,

 ----------------------------------------------------------------------
 #t hf aug-cc-pvdz symm=none int=(grid=ultrafine) guess=(read,tcheck) s
 table=(opt,rrhf)
 ----------------------------------------------------------------------
 -----
 title
 -----
 Symbolic Z-matrix:
 Charge =  0 Multiplicity = 1

 SCF Done:  E(RHF) =  -302.831783376     A.U. after   15 cycles
 Normal termination of Gaussian 16 at Wed Apr  9 18:15:16 2025.
 Gaussian 16:  ES64L-G16RevC.01  3-Jul-2019

 ----------------------------------------------------------------------
 #t hf aug-cc-pvdz iop(5/13=1,5/36=2,99/5=2) pseudo=read geom=check gue
 ss=(read,tcheck) scf=(maxcycle=1)
 ----------------------------------------------------------------------
 -----
 title
 -----
 Structure from the checkpoint file:  "Grambow2020_wb97xd3_007242_reverse_mol2.chk"
 Charge =  0 Multiplicity = 1

                         Standard orientation:
 ---------------------------------------------------------------------
 Center     Atomic      Atomic             Coordinates (Angstroms)
 Number     Number       Type             X           Y           Z
 ---------------------------------------------------------------------
      1          6           0       -2.433264   -0.470013    0.008515
      2          7           0       -1.043006   -0.077689   -0.004627
      3          6           0       -0.610060    1.162585   -0.001090
      4          7           0        0.740495    1.116893   -0.004894
      5          6           0        1.220422   -0.211390   -0.003415
      6          6           0        2.538771   -0.544553    0.008546
      7          6           0        0.012203   -0.960236   -0.013848
      8          1           0       -2.637339   -1.068574    0.896474
      9          1           0       -3.062590    0.417438    0.020783
     10          1           0       -2.657542   -1.060313   -0.879748
     11          1           0       -1.224835    2.044280    0.005780
     12          1           0        3.307286    0.215114    0.021655
     13          1           0        1.336294    1.922480    0.006755
     14          1           0        2.837220   -1.581142    0.008228
     15          1           0       -0.149355   -2.022063   -0.005532
 ---------------------------------------------------------------------

 SCF Done:  E(RHF) =  -303.150219735     A.U. after    2 cycles

 The electronic state is 1-A.
 Alpha  occ. eigenvalues --  -15.59187 -15.54842 -11.33085 -11.30293 -11.26756
 Alpha  occ. eigenvalues --  -11.21998 -11.14425  -1.37321  -1.23403  -1.04655
 Alpha  occ. eigenvalues --   -1.02666  -0.93080  -0.84694  -0.82281  -0.74902
 Alpha  occ. eigenvalues --   -0.69598  -0.69300  -0.65343  -0.60410  -0.60304
 Alpha  occ. eigenvalues --   -0.59734  -0.56376  -0.49766  -0.47750  -0.38040
 Alpha  occ. eigenvalues --   -0.20335
 Alpha virt. eigenvalues --    0.02316   0.03375   0.03997   0.04710   0.05166
 Alpha virt. eigenvalues --    0.06144   0.07960   0.08329   0.08778   0.09145
 Alpha virt. eigenvalues --    0.11921   0.12326   0.12755   0.13465   0.14135

 Mulliken charges:
               1
     1  C   -0.357879
     2  N    0.787474
     3  C   -0.529685
     4  N    0.710115
     5  C   -0.023037
     6  C    0.388897
     7  C   -0.491157
     8  H    0.210479
     9  H    0.029709
    10  H    0.208272
    11  H   -0.106583
    12  H   -0.292030
    13  H   -0.029696
    14  H   -0.140325
    15  H   -0.364555
 Sum of Mulliken charges =  -0.00000

 Dipole moment (field-independent basis, Debye):
    X=             -5.5999    Y=              2.9046    Z=              0.0601  Tot=              6.3086

 Test job not archived.
 1\1\GINC-SE173\SP\RHF\Aug-CC-pVDZ\C5H8N2\OHZDE\09-Apr-2025\0\\#t hf au
 g-cc-pvdz iop(5/13=1,5/36=2,99/5=2) pseudo=read geom=check guess=(read
 ,tcheck) scf=(maxcycle=1)\\title\\0,1\C,0,-2.34332127,0.03168079,-0.20
 327491\N,0,-0.92603792,-0.08472349,0.05102033\C,0,-0.38695051,-0.83967
 317,0.98116568\N,0,0.95306569,-0.68749147,0.89573671\C,0,1.3150794,0.2
 0093704,-0.14075278\C,0,2.59868025,0.52147167,-0.45509238\C,0,0.046900
 45,0.57888158,-0.65993708\H,0,-2.5602811,-0.28435538,-1.22378568\H,0,-
 2.89183363,-0.59949825,0.49279904\H,0,-2.65625904,1.06782178,-0.075810

 Normal termination of Gaussian 16 at Wed Apr  9 18:15:21 2025.
