 Gaussian 16, Revision C.01,

 ----------------------------------------------------------------------
 #t hf aug-cc-pvdz symm=none int=(grid=ultrafine) guess=(read,tcheck) s
 table=(opt,rrhf)
 ----------------------------------------------------------------------
 -----
 title
 -----
 Symbolic Z-matrix:
 Charge =  0 Multiplicity = 1

 SCF Done:  E(RHF) =  -381.699922286     A.U. after   15 cycles

 1\1\GINC-SE362\Stability\RHF\Aug-CC-pVDZ\C4H10O3\OHZDE\09-Apr-2025\0\\
 #t hf aug-cc-pvdz symm=none int=(grid=ultrafine) guess=(read,tcheck) s
 table=(opt,rrhf)\\title\\0,1\C,0,1.75003024,0.85325582,-0.19551245\O,0
 ,1.10773329,-0.39096594,0.00581325\C,0,0.58664943,-1.07710824,-1.21369
 825\C,0,-0.61417704,-0.70897832,0.5479459\O,0,-0.48867626,-0.00507454,
 1.71931119\C,0,-1.7804604,-0.10496855,-0.19969446\O,0,-1.55681124,1.23
 821933,-0.55230642\H,0,2.03932644,1.26237545,0.77501942\H,0,1.08938368
 ,1.55003591,-0.7158888\H,0,2.63975127,0.6699564,-0.80703004\H,0,0.3479

 Normal termination of Gaussian 16 at Wed Apr  9 19:13:05 2025.
 Gaussian 16:  ES64L-G16RevC.01  3-Jul-2019

 ----------------------------------------------------------------------
 #t hf aug-cc-pvdz iop(5/13=1,5/36=2,99/5=2) pseudo=read geom=check gue
 ss=(read,tcheck) scf=(maxcycle=1)
 ----------------------------------------------------------------------
 -----
 title
 -----
 Structure from the checkpoint file:  "Grambow2020_wb97xd3_008926_forward_mol1.chk"
 Charge =  0 Multiplicity = 1

                         Standard orientation:
 ---------------------------------------------------------------------
 Center     Atomic      Atomic             Coordinates (Angstroms)
 Number     Number       Type             X           Y           Z
 ---------------------------------------------------------------------
      1          6           0       -1.780444    0.085007    1.031799
      2          8           0       -1.240497    0.229629   -0.267704
      3          6           0       -1.029412   -1.027376   -1.045463
      4          6           0        0.511589    0.462877   -0.753302
      5          8           0        0.679759    1.599214   -0.002447
      6          6           0        1.571649   -0.516158   -0.304109
      7          8           0        1.422319   -0.891146    1.043330
      8          1           0       -1.839711    1.069518    1.501084
      9          1           0       -1.162409   -0.583101    1.635465
     10          1           0       -2.782988   -0.342776    0.926625
     11          1           0       -0.854030   -1.826454   -0.317924
     12          1           0       -1.959293   -1.230664   -1.588442
     13          1           0        0.404829    0.629765   -1.814255
     14          1           0        0.077501    2.279308   -0.313854
     15          1           0        2.537196   -0.009628   -0.458942
     16          1           0        1.527518   -1.412168   -0.909935
     17          1           0        1.518444   -0.101481    1.581195
 ---------------------------------------------------------------------

 SCF Done:  E(RHF) =  -382.094563358     A.U. after    2 cycles

 The electronic state is 1-A.
 Alpha  occ. eigenvalues --  -20.60267 -20.56886 -20.56389 -11.41187 -11.30686
 Alpha  occ. eigenvalues --  -11.28047 -11.18703  -1.53244  -1.46730  -1.45921
 Alpha  occ. eigenvalues --   -1.03876  -0.94880  -0.86173  -0.82660  -0.77805
 Alpha  occ. eigenvalues --   -0.71656  -0.68684  -0.65160  -0.63317  -0.61923
 Alpha  occ. eigenvalues --   -0.61056  -0.59073  -0.54749  -0.52097  -0.51934
 Alpha  occ. eigenvalues --   -0.47851  -0.46406  -0.42576  -0.26611
 Alpha virt. eigenvalues --    0.02757   0.03842   0.04073   0.04987   0.06223
 Alpha virt. eigenvalues --    0.06391   0.06524   0.07104   0.09352   0.09925
 Alpha virt. eigenvalues --    0.10789   0.12317   0.13180   0.13386   0.13948

 Mulliken charges:
               1
     1  C    0.255771
     2  O   -1.285891
     3  C    0.030420
     4  C    1.354476
     5  O   -1.281848
     6  C    0.834592
     7  O   -1.036726
     8  H   -0.000704
     9  H    0.204356
    10  H    0.103752
    11  H    0.066938
    12  H   -0.145321
    13  H    0.073305
    14  H    0.306605
    15  H    0.148200
    16  H    0.095502
    17  H    0.276574
 Sum of Mulliken charges =  -0.00000

 Dipole moment (field-independent basis, Debye):
    X=              1.1038    Y=              3.6512    Z=              0.8868  Tot=              3.9162

 Test job not archived.
 1\1\GINC-SE362\SP\RHF\Aug-CC-pVDZ\C4H10O3\OHZDE\09-Apr-2025\0\\#t hf a
 ug-cc-pvdz iop(5/13=1,5/36=2,99/5=2) pseudo=read geom=check guess=(rea
 d,tcheck) scf=(maxcycle=1)\\title\\0,1\C,0,1.75003024,0.85325582,-0.19
 551245\O,0,1.10773329,-0.39096594,0.00581325\C,0,0.58664943,-1.0771082
 4,-1.21369825\C,0,-0.61417704,-0.70897832,0.5479459\O,0,-0.48867626,-0
 .00507454,1.71931119\C,0,-1.7804604,-0.10496855,-0.19969446\O,0,-1.556
 81124,1.23821933,-0.55230642\H,0,2.03932644,1.26237545,0.77501942\H,0,
 1.08938368,1.55003591,-0.7158888\H,0,2.63975127,0.6699564,-0.80703004\

 Normal termination of Gaussian 16 at Wed Apr  9 19:13:11 2025.
