 Gaussian 16, Revision C.01,

 ----------------------------------------------------------------------
 #t hf aug-cc-pvdz symm=none int=(grid=ultrafine) guess=(read,tcheck) s
 table=(opt,rrhf)
 ----------------------------------------------------------------------
 -----
 title
 -----
 Symbolic Z-matrix:
 Charge =  0 Multiplicity = 1

 SCF Done:  E(RHF) =  -322.610493972     A.U. after   16 cycles
 Normal termination of Gaussian 16 at Wed Apr  9 03:33:54 2025.
 Gaussian 16:  ES64L-G16RevC.01  3-Jul-2019

 ----------------------------------------------------------------------
 #t hf aug-cc-pvdz iop(5/13=1,5/36=2,99/5=2) pseudo=read geom=check gue
 ss=(read,tcheck) scf=(maxcycle=1)
 ----------------------------------------------------------------------
 -----
 title
 -----
 Structure from the checkpoint file:  "Grambow2020_wb97xd3_007026_forward_mol1.chk"
 Charge =  0 Multiplicity = 1

                         Standard orientation:
 ---------------------------------------------------------------------
 Center     Atomic      Atomic             Coordinates (Angstroms)
 Number     Number       Type             X           Y           Z
 ---------------------------------------------------------------------
      1          6           0        1.859414   -0.874882    0.323416
      2          6           0        0.567308   -0.512808   -0.392597
      3          6           0       -0.624426   -1.370646   -0.212067
      4          6           0       -1.683568   -0.525689    0.074774
      5          7           0       -1.329629    0.858334    0.192447
      6          6           0        0.027868    0.908490   -0.072862
      7          8           0        0.718494    1.900255   -0.089143
      8          1           0        2.273028   -1.817490   -0.036936
      9          1           0        1.693599   -0.960412    1.399147
     10          1           0        2.587882   -0.081425    0.158318
     11          1           0        0.747801   -0.477492   -1.479187
     12          1           0       -0.677539   -2.447822   -0.284117
     13          1           0       -2.727788   -0.804321    0.141162
     14          1           0       -1.217107   -0.368202    1.143651
 ---------------------------------------------------------------------

 SCF Done:  E(RHF) =  -322.941223058     A.U. after    2 cycles

 The electronic state is 1-A.
 Alpha  occ. eigenvalues --  -20.49314 -15.49595 -11.33632 -11.32465 -11.32289
 Alpha  occ. eigenvalues --  -11.27499 -11.25246  -1.44224  -1.27807  -1.10020
 Alpha  occ. eigenvalues --   -1.02927  -0.93325  -0.82255  -0.76171  -0.73019
 Alpha  occ. eigenvalues --   -0.68248  -0.63809  -0.62934  -0.60426  -0.56964
 Alpha  occ. eigenvalues --   -0.54889  -0.53822  -0.50796  -0.48571  -0.39587
 Alpha  occ. eigenvalues --   -0.33925
 Alpha virt. eigenvalues --    0.01717   0.02383   0.03398   0.03759   0.04069
 Alpha virt. eigenvalues --    0.05464   0.06768   0.07627   0.10192   0.11027
 Alpha virt. eigenvalues --    0.11354   0.12244   0.12648   0.13512   0.13940

 Mulliken charges:
               1
     1  C   -0.098340
     2  C   -1.242031
     3  C    0.902174
     4  C   -1.130743
     5  N    0.589852
     6  C    0.612301
     7  O   -1.340872
     8  H    0.154758
     9  H    0.223545
    10  H    0.191391
    11  H    0.339957
    12  H   -0.071086
    13  H   -0.065572
    14  H    0.934667
 Sum of Mulliken charges =   0.00000

 Dipole moment (field-independent basis, Debye):
    X=             -0.5368    Y=             -7.7121    Z=             -0.1136  Tot=              7.7316

 Test job not archived.
 1\1\GINC-SE162\SP\RHF\Aug-CC-pVDZ\C5H7N1O1\OHZDE\09-Apr-2025\0\\#t hf
 aug-cc-pvdz iop(5/13=1,5/36=2,99/5=2) pseudo=read geom=check guess=(re
 ad,tcheck) scf=(maxcycle=1)\\title\\0,1\C,0,-1.74752576,0.09998496,0.2
 6194881\C,0,-0.39692707,0.17280937,-0.43367383\C,0,0.66999107,1.018647
 77,0.14507558\C,0,1.81744673,0.24395977,0.1799464\N,0,1.6378171,-1.110
 80259,-0.2524778\C,0,0.30714935,-1.19896382,-0.62295509\O,0,-0.2514719
 ,-2.17754769,-1.06015453\H,0,-2.26492183,1.05992424,0.24587975\H,0,-1.
 62968042,-0.21036644,1.30204546\H,0,-2.36382203,-0.64391002,-0.2423293

 Normal termination of Gaussian 16 at Wed Apr  9 03:33:59 2025.
