 Gaussian 16, Revision C.01,

 ----------------------------------------------------------------------
 #t hf aug-cc-pvdz symm=none int=(grid=ultrafine) guess=(read,tcheck) s
 table=(opt,rrhf)
 ----------------------------------------------------------------------
 -----
 title
 -----
 Symbolic Z-matrix:
 Charge =  0 Multiplicity = 1

 SCF Done:  E(RHF) =  -322.517897112     A.U. after   17 cycles
 Normal termination of Gaussian 16 at Wed Apr  9 18:01:09 2025.
 Gaussian 16:  ES64L-G16RevC.01  3-Jul-2019

 ----------------------------------------------------------------------
 #t hf aug-cc-pvdz iop(5/13=1,5/36=2,99/5=2) pseudo=read geom=check gue
 ss=(read,tcheck) scf=(maxcycle=1)
 ----------------------------------------------------------------------
 -----
 title
 -----
 Structure from the checkpoint file:  "Grambow2020_wb97xd3_006937_forward_mol1.chk"
 Charge =  0 Multiplicity = 1

                         Standard orientation:
 ---------------------------------------------------------------------
 Center     Atomic      Atomic             Coordinates (Angstroms)
 Number     Number       Type             X           Y           Z
 ---------------------------------------------------------------------
      1          8           0       -0.249053   -1.277210   -0.642931
      2          6           0       -0.697773   -0.182936   -1.055413
      3          7           0       -1.408236    0.585793   -0.183102
      4          6           0       -1.672086    0.259354    1.066946
      5          6           0        1.297545   -1.005032    0.616151
      6          6           0        1.634019    0.300761    0.311942
      7          6           0        1.618347    1.415718   -0.167937
      8          1           0       -0.486909    0.264210   -2.023462
      9          1           0       -1.677276    1.503063   -0.507789
     10          1           0       -1.438148   -0.739256    1.390524
     11          1           0       -2.179491    0.975766    1.691116
     12          1           0        0.912834   -1.224843    1.603219
     13          1           0        1.839629   -1.803610    0.131069
     14          1           0        1.799123    2.414600   -0.489654
 ---------------------------------------------------------------------

 SCF Done:  E(RHF) =  -322.848352658     A.U. after    2 cycles

 The electronic state is 1-A.
 Alpha  occ. eigenvalues --  -20.54439 -15.60278 -11.31113 -11.28060 -11.28002
 Alpha  occ. eigenvalues --  -11.24037 -11.23642  -1.45767  -1.29606  -1.06000
 Alpha  occ. eigenvalues --   -0.99025  -0.94065  -0.85901  -0.76605  -0.72999
 Alpha  occ. eigenvalues --   -0.69973  -0.65286  -0.63067  -0.62639  -0.60887
 Alpha  occ. eigenvalues --   -0.58340  -0.49961  -0.45473  -0.39877  -0.39137
 Alpha  occ. eigenvalues --   -0.22197
 Alpha virt. eigenvalues --    0.02405   0.02687   0.04006   0.04693   0.04921
 Alpha virt. eigenvalues --    0.05937   0.06031   0.07683   0.09764   0.10482
 Alpha virt. eigenvalues --    0.11274   0.12373   0.12660   0.14321   0.14666

 Mulliken charges:
               1
     1  O   -1.080099
     2  C    0.527190
     3  N    0.943954
     4  C   -0.424052
     5  C   -0.053623
     6  C    0.340224
     7  C    0.108149
     8  H   -0.051280
     9  H    0.183478
    10  H    0.019078
    11  H   -0.093418
    12  H    0.037561
    13  H   -0.008942
    14  H   -0.448219
 Sum of Mulliken charges =  -0.00000

 Dipole moment (field-independent basis, Debye):
    X=             -1.5135    Y=              2.5087    Z=              0.3082  Tot=              2.9460

 Test job not archived.
 1\1\GINC-SE173\SP\RHF\Aug-CC-pVDZ\C5H7N1O1\OHZDE\09-Apr-2025\0\\#t hf
 aug-cc-pvdz iop(5/13=1,5/36=2,99/5=2) pseudo=read geom=check guess=(re
 ad,tcheck) scf=(maxcycle=1)\\title\\0,1\O,0,-1.16080843,-0.33993993,-0
 .796653\C,0,-1.20357174,0.63792673,-0.01506783\N,0,-0.96730643,0.40961
 275,1.30730903\C,0,-0.70708382,-0.77113343,1.83354412\C,0,0.73123542,-
 0.96336576,-1.08448323\C,0,1.42503231,0.14624682,-0.63922214\C,0,1.683
 67427,1.23041011,-0.15823042\H,0,-1.31255608,1.6790647,-0.30776929\H,0
 ,-0.9126442,1.22379235,1.9017088\H,0,-0.82528078,-1.64066831,1.2117800

 Normal termination of Gaussian 16 at Wed Apr  9 18:01:14 2025.
