 Gaussian 16, Revision C.01,

 ----------------------------------------------------------------------
 #t hf aug-cc-pvdz symm=none int=(grid=ultrafine) guess=(read,tcheck) s
 table=(opt,rrhf)
 ----------------------------------------------------------------------
 -----
 title
 -----
 Symbolic Z-matrix:
 Charge =  0 Multiplicity = 1

 SCF Done:  E(RHF) =  -394.440217464     A.U. after   14 cycles
 Normal termination of Gaussian 16 at Wed Apr  9 18:12:52 2025.
 Gaussian 16:  ES64L-G16RevC.01  3-Jul-2019

 ----------------------------------------------------------------------
 #t hf aug-cc-pvdz iop(5/13=1,5/36=2,99/5=2) pseudo=read geom=check gue
 ss=(read,tcheck) scf=(maxcycle=1)
 ----------------------------------------------------------------------
 -----
 title
 -----
 Structure from the checkpoint file:  "Grambow2020_wb97xd3_007195_reverse_mol2.chk"
 Charge =  0 Multiplicity = 1

                         Standard orientation:
 ---------------------------------------------------------------------
 Center     Atomic      Atomic             Coordinates (Angstroms)
 Number     Number       Type             X           Y           Z
 ---------------------------------------------------------------------
      1          7           0       -0.620198   -0.603709    0.072942
      2          6           0       -1.731019   -1.062862    0.006900
      3          8           0       -2.845477   -1.389467   -0.050245
      4          6           0        2.777228   -0.551647   -0.027393
      5          8           0        2.100821   -1.544433    0.015149
      6          6           0        0.393824    2.466987   -0.043237
      7          8           0       -0.601855    2.980900    0.023298
      8          1           0        0.265363   -1.105911    0.063615
      9          1           0        3.877330   -0.616356   -0.083414
     10          1           0        2.330588    0.457358   -0.014031
 ---------------------------------------------------------------------

 SCF Done:  E(RHF) =  -394.815801298     A.U. after    2 cycles

 The electronic state is 1-A.
 Alpha  occ. eigenvalues --  -20.65509 -20.59384 -20.59277 -15.51288 -11.40625
 Alpha  occ. eigenvalues --  -11.37679 -11.37323  -1.60932  -1.54434  -1.52247
 Alpha  occ. eigenvalues --   -1.25812  -0.90131  -0.83730  -0.80962  -0.72936
 Alpha  occ. eigenvalues --   -0.72095  -0.68372  -0.65338  -0.65003  -0.63846
 Alpha  occ. eigenvalues --   -0.63687  -0.56754  -0.56408  -0.49331  -0.46188
 Alpha  occ. eigenvalues --   -0.46140
 Alpha virt. eigenvalues --    0.02861   0.05026   0.05108   0.05300   0.08881
 Alpha virt. eigenvalues --    0.08988   0.09645   0.09923   0.10412   0.11832
 Alpha virt. eigenvalues --    0.13281   0.13535   0.14532   0.15266   0.16616

 Mulliken charges:
               1
     1  N    0.803956
     2  C   -0.100560
     3  O   -0.770302
     4  C    0.669970
     5  O   -0.964397
     6  C    0.482040
     7  O   -0.519343
     8  H    0.171298
     9  H    0.098021
    10  H    0.129316
 Sum of Mulliken charges =  -0.00000

 Dipole moment (field-independent basis, Debye):
    X=              3.9915    Y=              1.2221    Z=             -0.1252  Tot=              4.1763

 Test job not archived.
 1\1\GINC-SE114\SP\RHF\Aug-CC-pVDZ\C3H3N1O3\OHZDE\09-Apr-2025\0\\#t hf
 aug-cc-pvdz iop(5/13=1,5/36=2,99/5=2) pseudo=read geom=check guess=(re
 ad,tcheck) scf=(maxcycle=1)\\title\\0,1\N,0,-0.1379958,0.37766173,-1.2
 269775\C,0,-0.35519931,0.84971558,-2.31283919\O,0,-0.67217925,1.242898
 9,-3.36016095\C,0,1.43810939,-0.08122418,1.74969719\O,0,1.88752498,0.5
 2571492,0.81449097\C,0,-2.04770311,-1.34940302,0.73291351\O,0,-2.90019
 693,-1.53331394,0.02627304\H,0,0.6755831,0.52461978,-0.63283565\H,0,2.
 00125489,-0.16603448,2.69480282\H,0,0.45151203,-0.57342229,1.70363376\

 Normal termination of Gaussian 16 at Wed Apr  9 18:12:55 2025.
