 Gaussian 16, Revision C.01,

 ----------------------------------------------------------------------
 #t hf aug-cc-pvdz symm=none int=(grid=ultrafine) guess=(read,tcheck) s
 table=(opt,rrhf)
 ----------------------------------------------------------------------
 -----
 title
 -----
 Symbolic Z-matrix:
 Charge =  0 Multiplicity = 1

 SCF Done:  E(RHF) =  -304.534501634     A.U. after   16 cycles
 Normal termination of Gaussian 16 at Wed Apr  9 17:09:07 2025.
 Gaussian 16:  ES64L-G16RevC.01  3-Jul-2019

 ----------------------------------------------------------------------
 #t hf aug-cc-pvdz iop(5/13=1,5/36=2,99/5=2) pseudo=read geom=check gue
 ss=(read,tcheck) scf=(maxcycle=1)
 ----------------------------------------------------------------------
 -----
 title
 -----
 Structure from the checkpoint file:  "Grambow2020_wb97xd3_006269_reverse_mol1.chk"
 Charge =  0 Multiplicity = 1

                         Standard orientation:
 ---------------------------------------------------------------------
 Center     Atomic      Atomic             Coordinates (Angstroms)
 Number     Number       Type             X           Y           Z
 ---------------------------------------------------------------------
      1          8           0        2.132998    0.661133   -0.054433
      2          6           0        1.459716   -0.159452    0.442696
      3          8           0        0.214668   -1.090484   -0.628137
      4          6           0       -0.493394   -0.229175    0.004436
      5          6           0       -1.886933   -0.176715    0.496661
      6          6           0       -1.297788    0.941506   -0.393926
      7          1           0        1.615760   -1.114485    0.937723
      8          1           0        0.323448    0.211125    1.004831
      9          1           0       -2.572216   -0.889489    0.053332
     10          1           0       -2.103091    0.086380    1.523901
     11          1           0       -1.594809    0.980348   -1.434353
     12          1           0       -1.140028    1.903944    0.075922
 ---------------------------------------------------------------------

 SCF Done:  E(RHF) =  -304.843669573     A.U. after    2 cycles

 The electronic state is 1-A.
 Alpha  occ. eigenvalues --  -20.57131 -20.52526 -11.43070 -11.36867 -11.26733
 Alpha  occ. eigenvalues --  -11.26233  -1.53230  -1.45292  -1.16808  -0.92844
 Alpha  occ. eigenvalues --   -0.86734  -0.80077  -0.72446  -0.69806  -0.67803
 Alpha  occ. eigenvalues --   -0.62839  -0.61387  -0.57609  -0.55223  -0.49427
 Alpha  occ. eigenvalues --   -0.46322  -0.40120  -0.38590
 Alpha virt. eigenvalues --    0.02892   0.03808   0.04003   0.04676   0.06779
 Alpha virt. eigenvalues --    0.06937   0.08852   0.09515   0.10606   0.11685
 Alpha virt. eigenvalues --    0.13190   0.13355   0.14128   0.14692   0.15137

 Mulliken charges:
               1
     1  O   -1.039602
     2  C    0.789585
     3  O   -1.446726
     4  C    0.791442
     5  C    0.242318
     6  C    0.073666
     7  H    0.233301
     8  H    0.524133
     9  H   -0.045385
    10  H   -0.071837
    11  H   -0.020457
    12  H   -0.030437
 Sum of Mulliken charges =  -0.00000

 Dipole moment (field-independent basis, Debye):
    X=             -2.4140    Y=              0.4083    Z=              2.9009  Tot=              3.7960

 Test job not archived.
 1\1\GINC-SE113\SP\RHF\Aug-CC-pVDZ\C4H6O2\OHZDE\09-Apr-2025\0\\#t hf au
 g-cc-pvdz iop(5/13=1,5/36=2,99/5=2) pseudo=read geom=check guess=(read
 ,tcheck) scf=(maxcycle=1)\\title\\0,1\O,0,2.18947613,0.51531037,1.4052
 3145\C,0,1.84693387,-0.22343759,0.56218745\O,0,1.09811951,0.48183791,-
 1.02069352\C,0,0.08735395,0.06936981,-0.34869814\C,0,-1.24834963,-0.46
 701313,-0.68807476\C,0,-1.07447494,0.72606811,0.27990243\H,0,2.3227162
 7,-0.95045495,-0.09093296\H,0,0.62684699,-0.72590491,0.61999633\H,0,-1
 .59321654,-0.27371438,-1.69698695\H,0,-1.60052756,-1.39409478,-0.25488

 Normal termination of Gaussian 16 at Wed Apr  9 17:09:11 2025.
