 Gaussian 16, Revision C.01,

 ----------------------------------------------------------------------
 #t hf aug-cc-pvdz symm=none int=(grid=ultrafine) guess=(read,tcheck) s
 table=(opt,rrhf)
 ----------------------------------------------------------------------
 -----
 title
 -----
 Symbolic Z-matrix:
 Charge =  0 Multiplicity = 1

 SCF Done:  E(RHF) =  -302.890132198     A.U. after   14 cycles
 Normal termination of Gaussian 16 at Wed Apr  9 18:03:08 2025.
 Gaussian 16:  ES64L-G16RevC.01  3-Jul-2019

 ----------------------------------------------------------------------
 #t hf aug-cc-pvdz iop(5/13=1,5/36=2,99/5=2) pseudo=read geom=check gue
 ss=(read,tcheck) scf=(maxcycle=1)
 ----------------------------------------------------------------------
 -----
 title
 -----
 Structure from the checkpoint file:  "Grambow2020_wb97xd3_006954_forward_mol2.chk"
 Charge =  0 Multiplicity = 1

                         Standard orientation:
 ---------------------------------------------------------------------
 Center     Atomic      Atomic             Coordinates (Angstroms)
 Number     Number       Type             X           Y           Z
 ---------------------------------------------------------------------
      1          6           0        0.616139    1.559174    0.163143
      2          6           0        0.799678    0.068318    0.032714
      3          6           0        2.098793   -0.366964   -0.596018
      4          7           0        0.326877   -0.797866    1.103688
      5          6           0       -0.394182   -0.804596   -0.173864
      6          6           0       -1.708937   -0.217106   -0.252374
      7          7           0       -2.757633    0.247482   -0.306569
      8          1           0        0.687781    2.042183   -0.812905
      9          1           0        1.400294    1.972033    0.801421
     10          1           0       -0.352075    1.816866    0.594116
     11          1           0        2.941233    0.012014   -0.013712
     12          1           0        2.170490   -1.453916   -0.623398
     13          1           0        2.185806    0.019210   -1.613502
     14          1           0       -0.194695   -0.271040    1.795846
     15          1           0       -0.292493   -1.717615   -0.749305
 ---------------------------------------------------------------------

 SCF Done:  E(RHF) =  -303.208053907     A.U. after    2 cycles

 The electronic state is 1-A.
 Alpha  occ. eigenvalues --  -15.53033 -15.51858 -11.31493 -11.30448 -11.28621
 Alpha  occ. eigenvalues --  -11.25036 -11.24568  -1.31272  -1.23943  -1.04913
 Alpha  occ. eigenvalues --   -0.97389  -0.97279  -0.84253  -0.74770  -0.68605
 Alpha  occ. eigenvalues --   -0.65018  -0.61911  -0.61629  -0.58712  -0.56809
 Alpha  occ. eigenvalues --   -0.55100  -0.54197  -0.53109  -0.50538  -0.49444
 Alpha  occ. eigenvalues --   -0.42968
 Alpha virt. eigenvalues --    0.03237   0.03704   0.03975   0.04216   0.05671
 Alpha virt. eigenvalues --    0.06386   0.06793   0.07653   0.09696   0.10860
 Alpha virt. eigenvalues --    0.12099   0.12702   0.13629   0.14067   0.14501

 Mulliken charges:
               1
     1  C   -0.085533
     2  C   -1.457225
     3  C   -0.407062
     4  N    0.629901
     5  C    1.339269
     6  C   -2.355944
     7  N    1.038431
     8  H    0.292837
     9  H    0.234256
    10  H    0.104188
    11  H    0.244376
    12  H    0.166435
    13  H    0.234298
    14  H    0.224832
    15  H   -0.203058
 Sum of Mulliken charges =  -0.00000

 Dipole moment (field-independent basis, Debye):
    X=              3.9244    Y=              0.2356    Z=             -0.4602  Tot=              3.9583

 Test job not archived.
 1\1\GINC-SE454\SP\RHF\Aug-CC-pVDZ\C5H8N2\OHZDE\09-Apr-2025\0\\#t hf au
 g-cc-pvdz iop(5/13=1,5/36=2,99/5=2) pseudo=read geom=check guess=(read
 ,tcheck) scf=(maxcycle=1)\\title\\0,1\C,0,-0.62597701,1.28549364,-0.15
 457056\C,0,-0.25470371,-0.17335656,-0.06934662\C,0,-1.28299243,-1.0613
 8862,0.58371965\N,0,0.45419872,-0.78796139,-1.18313275\C,0,1.18080918,
 -0.56017199,0.07076431\C,0,2.19773205,0.46079814,0.12889458\N,0,3.0099
 6754,1.27159166,0.16670599\H,0,-0.82686403,1.68974327,0.83907218\H,0,-
 1.53157196,1.40032464,-0.75412196\H,0,0.16596143,1.88435703,-0.6059879

 Normal termination of Gaussian 16 at Wed Apr  9 18:03:14 2025.
