 Gaussian 16, Revision C.01,

 ----------------------------------------------------------------------
 #t hf aug-cc-pvdz symm=none int=(grid=ultrafine) guess=(read,tcheck) s
 table=(opt,rrhf)
 ----------------------------------------------------------------------
 -----
 title
 -----
 Symbolic Z-matrix:
 Charge =  0 Multiplicity = 1

 SCF Done:  E(RHF) =  -286.732479144     A.U. after   16 cycles
 Normal termination of Gaussian 16 at Wed Apr  9 19:19:12 2025.
 Gaussian 16:  ES64L-G16RevC.01  3-Jul-2019

 ----------------------------------------------------------------------
 #t hf aug-cc-pvdz iop(5/13=1,5/36=2,99/5=2) pseudo=read geom=check gue
 ss=(read,tcheck) scf=(maxcycle=1)
 ----------------------------------------------------------------------
 -----
 title
 -----
 Structure from the checkpoint file:  "Grambow2020_wb97xd3_009266_reverse_mol2.chk"
 Charge =  0 Multiplicity = 1

                         Standard orientation:
 ---------------------------------------------------------------------
 Center     Atomic      Atomic             Coordinates (Angstroms)
 Number     Number       Type             X           Y           Z
 ---------------------------------------------------------------------
      1          6           0        2.012013   -0.111171   -0.350433
      2          6           0        0.578434   -0.176999    0.077783
      3          6           0       -0.019473    1.046434    0.878267
      4          6           0       -0.941826    1.250799   -0.326462
      5          7           0       -0.570220   -0.054746   -0.925133
      6          6           0       -1.164770   -1.135691   -0.096341
      7          6           0       -0.043136   -1.239458    0.895505
      8          1           0        2.224180    0.826776   -0.867785
      9          1           0        2.243498   -0.933665   -1.027928
     10          1           0        2.658316   -0.191030    0.525250
     11          1           0        0.731791    1.804319    1.089535
     12          1           0       -2.009068    1.375039   -0.133569
     13          1           0       -0.608021    2.060649   -0.975039
     14          1           0       -1.056860   -2.089826   -0.638385
     15          1           0       -2.208142   -1.049909    0.217243
     16          1           0       -0.511607    0.777385    1.816699
 ---------------------------------------------------------------------

 SCF Done:  E(RHF) =  -287.034485658     A.U. after    2 cycles

 The electronic state is 1-A.
 Alpha  occ. eigenvalues --  -15.49224 -11.27811 -11.26876 -11.26785 -11.26557
 Alpha  occ. eigenvalues --  -11.25687 -11.23668  -1.29431  -1.04458  -1.03568
 Alpha  occ. eigenvalues --   -0.96619  -0.87489  -0.81308  -0.70331  -0.68032
 Alpha  occ. eigenvalues --   -0.65462  -0.63057  -0.59604  -0.57773  -0.56680
 Alpha  occ. eigenvalues --   -0.53171  -0.51774  -0.47768  -0.45532  -0.42666
 Alpha  occ. eigenvalues --   -0.35777
 Alpha virt. eigenvalues --    0.03584   0.03857   0.03987   0.04566   0.05160
 Alpha virt. eigenvalues --    0.05478   0.06351   0.07132   0.08496   0.09500
 Alpha virt. eigenvalues --    0.09754   0.11392   0.12820   0.13305   0.13942

 Mulliken charges:
               1
     1  C   -0.637451
     2  C   -0.808751
     3  C    0.271356
     4  C    0.175500
     5  N    0.425897
     6  C   -0.107703
     7  C   -0.274372
     8  H    0.235128
     9  H    0.239258
    10  H    0.309183
    11  H   -0.006146
    12  H   -0.022064
    13  H   -0.010361
    14  H    0.182880
    15  H   -0.038117
    16  H    0.065763
 Sum of Mulliken charges =  -0.00000

 Dipole moment (field-independent basis, Debye):
    X=             -0.2094    Y=              1.8742    Z=              0.0021  Tot=              1.8859

 Test job not archived.
 1\1\GINC-SE018\SP\RHF\Aug-CC-pVDZ\C6H9N1\OHZDE\09-Apr-2025\0\\#t hf au
 g-cc-pvdz iop(5/13=1,5/36=2,99/5=2) pseudo=read geom=check guess=(read
 ,tcheck) scf=(maxcycle=1)\\title\\0,1\C,0,1.97240701,0.04238243,-0.002
 88843\C,0,0.5069683,-0.25632097,0.07530555\C,0,-0.37589633,0.5893497,1
 .07552919\C,0,-1.09178977,1.12120199,-0.16885944\N,0,-0.45441082,0.116
 29712,-1.05478203\C,0,-1.03899686,-1.21532311,-0.74839201\C,0,-0.10445
 62,-1.56865,0.3716009\H,0,2.14792218,1.11076765,-0.14487471\H,0,2.4239
 5696,-0.49107659,-0.83991038\H,0,2.46028109,-0.2811695,0.91808957\H,0,

 Normal termination of Gaussian 16 at Wed Apr  9 19:19:17 2025.
