 Gaussian 16, Revision C.01,

 ----------------------------------------------------------------------
 #t hf aug-cc-pvdz symm=none int=(grid=ultrafine) guess=(read,tcheck) s
 table=(opt,rrhf)
 ----------------------------------------------------------------------
 -----
 title
 -----
 Symbolic Z-matrix:
 Charge =  0 Multiplicity = 1

 SCF Done:  E(RHF) =  -375.764630879     A.U. after   15 cycles
 Normal termination of Gaussian 16 at Wed Apr  9 03:46:26 2025.
 Gaussian 16:  ES64L-G16RevC.01  3-Jul-2019

 ----------------------------------------------------------------------
 #t hf aug-cc-pvdz iop(5/13=1,5/36=2,99/5=2) pseudo=read geom=check gue
 ss=(read,tcheck) scf=(maxcycle=1)
 ----------------------------------------------------------------------
 -----
 title
 -----
 Structure from the checkpoint file:  "Grambow2020_wb97xd3_007909_reverse_mol2.chk"
 Charge =  0 Multiplicity = 1

                         Standard orientation:
 ---------------------------------------------------------------------
 Center     Atomic      Atomic             Coordinates (Angstroms)
 Number     Number       Type             X           Y           Z
 ---------------------------------------------------------------------
      1          6           0       -3.405624    0.658912   -0.040179
      2          8           0        4.153348    0.344969   -0.471930
      3          6           0        3.141711    0.021615    0.011984
      4          7           0        2.164777   -0.390710    0.571929
      5          7           0       -0.638426    0.277896    0.287186
      6          6           0       -1.432273   -0.628673   -0.088338
      7          8           0       -2.751302   -0.577982   -0.278920
      8          1           0       -3.017795    1.439446   -0.699770
      9          1           0       -3.295884    0.963882    1.003651
     10          1           0       -4.456301    0.490689   -0.259128
     11          1           0        1.182679   -0.099809    0.485141
     12          1           0       -1.076822    1.174277    0.472014
     13          1           0       -1.059585   -1.625801   -0.309712
 ---------------------------------------------------------------------

 SCF Done:  E(RHF) =  -376.142015602     A.U. after    2 cycles

 The electronic state is 1-A.
 Alpha  occ. eigenvalues --  -20.61613 -20.57468 -15.51395 -15.49411 -11.38673
 Alpha  occ. eigenvalues --  -11.37593 -11.32555  -1.55226  -1.52366  -1.24167
 Alpha  occ. eigenvalues --   -1.23549  -1.01560  -0.85711  -0.81890  -0.77460
 Alpha  occ. eigenvalues --   -0.72763  -0.70775  -0.69709  -0.63540  -0.62986
 Alpha  occ. eigenvalues --   -0.61684  -0.56352  -0.55865  -0.51968  -0.46736
 Alpha  occ. eigenvalues --   -0.46178  -0.44381
 Alpha virt. eigenvalues --    0.02439   0.03873   0.04290   0.04519   0.06651
 Alpha virt. eigenvalues --    0.07612   0.08691   0.08845   0.10307   0.11028
 Alpha virt. eigenvalues --    0.11915   0.13063   0.13582   0.14036   0.15135

 Mulliken charges:
               1
     1  C    0.220653
     2  O   -0.714020
     3  C   -0.098528
     4  N    0.671644
     5  N    0.626998
     6  C   -0.027182
     7  O   -1.122026
     8  H    0.168332
     9  H    0.170387
    10  H   -0.051472
    11  H    0.172732
    12  H   -0.006411
    13  H   -0.011107
 Sum of Mulliken charges =  -0.00000

 Dipole moment (field-independent basis, Debye):
    X=             -6.3902    Y=              1.2488    Z=             -0.3997  Tot=              6.5234

 Test job not archived.
 1\1\GINC-SE460\SP\RHF\Aug-CC-pVDZ\C3H6N2O2\OHZDE\09-Apr-2025\0\\#t hf
 aug-cc-pvdz iop(5/13=1,5/36=2,99/5=2) pseudo=read geom=check guess=(re
 ad,tcheck) scf=(maxcycle=1)\\title\\0,1\C,0,-0.96491434,-2.23648129,1.
 35103447\O,0,0.72389874,4.17083873,-2.32553873\C,0,0.93489862,3.385216
 49,-1.48862998\N,0,1.25346433,2.63675444,-0.60756731\N,0,0.00710129,0.
 23039241,0.41324435\C,0,0.64595313,-0.85468358,0.32631503\O,0,0.301256
 75,-2.07850483,0.72902531\H,0,-1.77197639,-1.94965569,0.67200033\H,0,-
 1.02445866,-1.64888234,2.27071506\H,0,-1.05293066,-3.29247875,1.590369

 Normal termination of Gaussian 16 at Wed Apr  9 03:46:29 2025.
