 Gaussian 16, Revision C.01,

 ----------------------------------------------------------------------
 #t hf aug-cc-pvdz symm=none int=(grid=ultrafine) guess=(read,tcheck) s
 table=(opt,rrhf)
 ----------------------------------------------------------------------
 -----
 title
 -----
 Symbolic Z-matrix:
 Charge =  0 Multiplicity = 1

 SCF Done:  E(RHF) =  -343.624205172     A.U. after   16 cycles
 Normal termination of Gaussian 16 at Wed Apr  9 03:27:57 2025.
 Gaussian 16:  ES64L-G16RevC.01  3-Jul-2019

 ----------------------------------------------------------------------
 #t hf aug-cc-pvdz iop(5/13=1,5/36=2,99/5=2) pseudo=read geom=check gue
 ss=(read,tcheck) scf=(maxcycle=1)
 ----------------------------------------------------------------------
 -----
 title
 -----
 Structure from the checkpoint file:  "Grambow2020_wb97xd3_006674_reverse_mol1.chk"
 Charge =  0 Multiplicity = 1

                         Standard orientation:
 ---------------------------------------------------------------------
 Center     Atomic      Atomic             Coordinates (Angstroms)
 Number     Number       Type             X           Y           Z
 ---------------------------------------------------------------------
      1          6           0        0.804529   -0.853788    1.197100
      2          6           0       -0.897395   -0.138026   -0.295904
      3          8           0       -1.906534   -0.936592   -0.248923
      4          6           0       -0.965362    1.261749    0.172717
      5          6           0        0.562726    1.425147    0.054576
      6          6           0        0.849167   -0.097118   -0.200119
      7          8           0        1.660803   -0.534906   -1.026592
      8          1           0        0.032794   -0.552673    1.911870
      9          1           0        0.743017   -1.925658    1.011785
     10          1           0        1.778163   -0.635699    1.640037
     11          1           0       -1.662757   -1.790858   -0.634508
     12          1           0       -1.522164    1.844002   -0.568256
     13          1           0       -1.437810    1.418530    1.145358
     14          1           0        0.853370    2.010741   -0.815448
     15          1           0        1.059244    1.815817    0.943054
 ---------------------------------------------------------------------

 SCF Done:  E(RHF) =  -343.976812999     A.U. after    2 cycles

 The electronic state is 1-A.
 Alpha  occ. eigenvalues --  -20.67230 -20.43249 -11.37820 -11.32061 -11.26901
 Alpha  occ. eigenvalues --  -11.23744 -11.23110  -1.59847  -1.37983  -1.14491
 Alpha  occ. eigenvalues --   -0.98329  -0.93722  -0.86032  -0.80395  -0.72195
 Alpha  occ. eigenvalues --   -0.68195  -0.66238  -0.62815  -0.59473  -0.57993
 Alpha  occ. eigenvalues --   -0.55697  -0.54200  -0.51735  -0.50961  -0.49128
 Alpha  occ. eigenvalues --   -0.34527  -0.33047
 Alpha virt. eigenvalues --    0.02433   0.03289   0.03676   0.04697   0.05545
 Alpha virt. eigenvalues --    0.06200   0.06658   0.07295   0.08341   0.10607
 Alpha virt. eigenvalues --    0.11195   0.12003   0.13240   0.14088   0.14662

 Mulliken charges:
               1
     1  C   -0.352170
     2  C    1.222029
     3  O   -1.294731
     4  C   -0.295378
     5  C   -0.058117
     6  C    1.268372
     7  O   -1.711412
     8  H    0.131536
     9  H    0.089870
    10  H    0.140853
    11  H    0.329117
    12  H    0.210252
    13  H    0.072245
    14  H    0.099955
    15  H    0.147578
 Sum of Mulliken charges =  -0.00000

 Dipole moment (field-independent basis, Debye):
    X=             -5.4616    Y=              0.6744    Z=              2.1729  Tot=              5.9165

 Test job not archived.
 1\1\GINC-SE229\SP\RHF\Aug-CC-pVDZ\C5H8O2\OHZDE\09-Apr-2025\0\\#t hf au
 g-cc-pvdz iop(5/13=1,5/36=2,99/5=2) pseudo=read geom=check guess=(read
 ,tcheck) scf=(maxcycle=1)\\title\\0,1\C,0,-1.06981984,-0.97703061,-0.6
 1476748\C,0,-0.1135773,1.10079198,0.02255147\O,0,-1.02474494,2.0040753
 6,0.13268167\C,0,0.65179916,0.59444668,1.18074305\C,0,1.26651317,-0.54
 052913,0.33832714\C,0,0.34201761,-0.30849272,-0.90893946\O,0,0.7223156
 ,-0.34395884,-2.08689721\H,0,-1.47670073,-0.87755611,0.39602196\H,0,-1
 .78976679,-0.60762343,-1.34431782\H,0,-0.89807569,-2.037925,-0.8064079

 Normal termination of Gaussian 16 at Wed Apr  9 03:28:03 2025.
