 Gaussian 16, Revision C.01,

 ----------------------------------------------------------------------
 #t hf aug-cc-pvdz symm=none int=(grid=ultrafine) guess=(read,tcheck) s
 table=(opt,rrhf)
 ----------------------------------------------------------------------
 -----
 title
 -----
 Symbolic Z-matrix:
 Charge =  0 Multiplicity = 1

 SCF Done:  E(RHF) =  -324.963878305     A.U. after   15 cycles
 Normal termination of Gaussian 16 at Wed Apr  9 03:53:03 2025.
 Gaussian 16:  ES64L-G16RevC.01  3-Jul-2019

 ----------------------------------------------------------------------
 #t hf aug-cc-pvdz iop(5/13=1,5/36=2,99/5=2) pseudo=read geom=check gue
 ss=(read,tcheck) scf=(maxcycle=1)
 ----------------------------------------------------------------------
 -----
 title
 -----
 Structure from the checkpoint file:  "Grambow2020_wb97xd3_008237_forward_mol1.chk"
 Charge =  0 Multiplicity = 1

                         Standard orientation:
 ---------------------------------------------------------------------
 Center     Atomic      Atomic             Coordinates (Angstroms)
 Number     Number       Type             X           Y           Z
 ---------------------------------------------------------------------
      1          6           0       -1.760306    1.322138   -0.191563
      2          6           0       -2.332544   -0.014609    0.187720
      3          6           0       -0.683211   -1.485798   -0.141337
      4          7           0        0.357177   -0.733239   -0.617698
      5          6           0        1.268636   -0.090773    0.213254
      6          8           0        1.147168   -0.072102    1.410673
      7          6           0        2.383400    0.617762   -0.519288
      8          1           0       -2.545588    2.081348   -0.238950
      9          1           0       -1.021109    1.655502    0.538998
     10          1           0       -1.280299    1.296032   -1.172224
     11          1           0       -2.799644   -0.009791    1.175629
     12          1           0       -3.024916   -0.435106   -0.536095
     13          1           0       -1.451497   -0.904927    0.628454
     14          1           0       -1.242782   -1.932865   -0.961314
     15          1           0        0.466406   -0.554882   -1.605615
     16          1           0        2.022484    1.581702   -0.885914
     17          1           0        2.744059    0.040957   -1.372295
     18          1           0        3.199449    0.799202    0.175115
 ---------------------------------------------------------------------

 SCF Done:  E(RHF) =  -325.307983681     A.U. after    2 cycles

 The electronic state is 1-A.
 Alpha  occ. eigenvalues --  -20.51742 -15.53965 -11.36064 -11.27041 -11.25436
 Alpha  occ. eigenvalues --  -11.25232 -11.23442  -1.47052  -1.25675  -1.04861
 Alpha  occ. eigenvalues --   -1.02649  -0.92859  -0.85334  -0.80768  -0.71084
 Alpha  occ. eigenvalues --   -0.67995  -0.64807  -0.63184  -0.60634  -0.60191
 Alpha  occ. eigenvalues --   -0.57470  -0.55519  -0.54234  -0.53272  -0.50146
 Alpha  occ. eigenvalues --   -0.45679  -0.42876  -0.30765
 Alpha virt. eigenvalues --    0.02713   0.03715   0.03831   0.04548   0.05314
 Alpha virt. eigenvalues --    0.05766   0.06170   0.07151   0.07749   0.09045
 Alpha virt. eigenvalues --    0.10013   0.11033   0.11693   0.13043   0.13434

 Mulliken charges:
               1
     1  C   -0.309544
     2  C   -0.480273
     3  C   -0.905799
     4  N    0.798799
     5  C    0.794415
     6  O   -1.343389
     7  C   -0.466376
     8  H    0.070612
     9  H    0.183012
    10  H    0.151251
    11  H    0.008931
    12  H    0.055493
    13  H    0.690833
    14  H    0.023795
    15  H    0.138486
    16  H    0.243037
    17  H    0.182674
    18  H    0.164041
 Sum of Mulliken charges =   0.00000

 Dipole moment (field-independent basis, Debye):
    X=             -0.5060    Y=              1.6970    Z=             -4.2067  Tot=              4.5642

 Test job not archived.
 1\1\GINC-SE099\SP\RHF\Aug-CC-pVDZ\C5H11N1O1\OHZDE\09-Apr-2025\0\\#t hf
  aug-cc-pvdz iop(5/13=1,5/36=2,99/5=2) pseudo=read geom=check guess=(r
 ead,tcheck) scf=(maxcycle=1)\\title\\0,1\C,0,-1.57615183,0.15127347,-0
 .9138287\C,0,-1.91047602,0.91075124,0.33901834\C,0,-0.22885882,0.50173
 074,1.75246845\N,0,0.5992448,-0.34440343,1.06401177\C,0,1.59803229,0.1
 0576685,0.20740642\O,0,1.738705,1.27026418,-0.06291181\C,0,2.44715211,
 -0.99293536,-0.38688977\H,0,-2.42728496,0.14017832,-1.59994959\H,0,-0.
 73435523,0.60739627,-1.43784561\H,0,-1.32092486,-0.8895065,-0.70307062

 Normal termination of Gaussian 16 at Wed Apr  9 03:53:10 2025.
