 Gaussian 16, Revision C.01,

 ----------------------------------------------------------------------
 #t hf aug-cc-pvdz symm=none int=(grid=ultrafine) guess=(read,tcheck) s
 table=(opt,rrhf)
 ----------------------------------------------------------------------
 -----
 title
 -----
 Symbolic Z-matrix:
 Charge =  0 Multiplicity = 1

 SCF Done:  E(RHF) =  -344.756960733     A.U. after   16 cycles

 1\1\GINC-SE071\Stability\RHF\Aug-CC-pVDZ\C5H10O2\OHZDE\09-Apr-2025\0\\
 #t hf aug-cc-pvdz symm=none int=(grid=ultrafine) guess=(read,tcheck) s
 table=(opt,rrhf)\\title\\0,1\C,0,2.12760665,0.92458458,-0.18250667\O,0
 ,0.72776181,0.98944465,-0.35275904\C,0,0.15757519,-0.2250836,-0.694622
 94\C,0,0.13473855,-1.37288749,0.67758048\O,0,-0.92959962,-2.11845039,0
 .58594104\C,0,-1.24448081,-0.29936707,-0.5994732\C,0,-2.02467056,0.691
 61417,0.15215703\H,0,2.40460942,0.29242606,0.66606101\H,0,2.61389849,0
 .53976457,-1.08670451\H,0,2.47158944,1.94046089,0.00186481\H,0,0.63003

 Normal termination of Gaussian 16 at Wed Apr  9 03:27:34 2025.
 Gaussian 16:  ES64L-G16RevC.01  3-Jul-2019

 ----------------------------------------------------------------------
 #t hf aug-cc-pvdz iop(5/13=1,5/36=2,99/5=2) pseudo=read geom=check gue
 ss=(read,tcheck) scf=(maxcycle=1)
 ----------------------------------------------------------------------
 -----
 title
 -----
 Structure from the checkpoint file:  "Grambow2020_wb97xd3_006661_forward_mol1.chk"
 Charge =  0 Multiplicity = 1

                         Standard orientation:
 ---------------------------------------------------------------------
 Center     Atomic      Atomic             Coordinates (Angstroms)
 Number     Number       Type             X           Y           Z
 ---------------------------------------------------------------------
      1          6           0       -2.474655   -0.164602   -0.160741
      2          8           0       -1.314902    0.625955   -0.009909
      3          6           0       -0.286197   -0.025335    0.649371
      4          6           0        0.471026   -1.292593   -0.361366
      5          8           0        1.738295   -1.364422   -0.068199
      6          6           0        0.978458    0.588246    0.582307
      7          6           0        1.284164    1.629398   -0.406750
      8          1           0       -2.296040   -1.028298   -0.807693
      9          1           0       -2.836389   -0.517505    0.812269
     10          1           0       -3.233732    0.469989   -0.613970
     11          1           0       -0.572067   -0.482507    1.598622
     12          1           0        0.162397   -0.788798   -1.303112
     13          1           0       -0.129761   -2.220344   -0.245878
     14          1           0        1.706743    0.346479    1.339251
     15          1           0        2.351265    1.811641   -0.495681
     16          1           0        0.854763    1.358363   -1.373765
     17          1           0        0.768898    2.548035   -0.102115
 ---------------------------------------------------------------------

 SCF Done:  E(RHF) =  -345.115832698     A.U. after    2 cycles

 The electronic state is 1-A.
 Alpha  occ. eigenvalues --  -20.56946 -20.43106 -11.35870 -11.30169 -11.29689
 Alpha  occ. eigenvalues --  -11.29611 -11.26829  -1.49575  -1.35439  -1.12358
 Alpha  occ. eigenvalues --   -0.99760  -0.93737  -0.86155  -0.78675  -0.73134
 Alpha  occ. eigenvalues --   -0.68521  -0.66038  -0.63295  -0.61674  -0.59014
 Alpha  occ. eigenvalues --   -0.57865  -0.57008  -0.53515  -0.53107  -0.50219
 Alpha  occ. eigenvalues --   -0.46004  -0.33849  -0.30967
 Alpha virt. eigenvalues --    0.03025   0.03245   0.03512   0.04633   0.05205
 Alpha virt. eigenvalues --    0.05906   0.06246   0.06481   0.08025   0.08634
 Alpha virt. eigenvalues --    0.08929   0.11641   0.12515   0.13139   0.14148

 Mulliken charges:
               1
     1  C    0.115475
     2  O   -1.526945
     3  C    1.106813
     4  C    0.646202
     5  O   -1.350464
     6  C    0.280068
     7  C   -0.462513
     8  H    0.175210
     9  H    0.195863
    10  H   -0.018039
    11  H   -0.025395
    12  H    0.203864
    13  H    0.047058
    14  H   -0.172875
    15  H    0.188750
    16  H    0.263257
    17  H    0.333671
 Sum of Mulliken charges =   0.00000

 Dipole moment (field-independent basis, Debye):
    X=             -3.0136    Y=              3.6452    Z=              1.0161  Tot=              4.8375

 Test job not archived.
 1\1\GINC-SE071\SP\RHF\Aug-CC-pVDZ\C5H10O2\OHZDE\09-Apr-2025\0\\#t hf a
 ug-cc-pvdz iop(5/13=1,5/36=2,99/5=2) pseudo=read geom=check guess=(rea
 d,tcheck) scf=(maxcycle=1)\\title\\0,1\C,0,2.12760665,0.92458458,-0.18
 250667\O,0,0.72776181,0.98944465,-0.35275904\C,0,0.15757519,-0.2250836
 ,-0.69462294\C,0,0.13473855,-1.37288749,0.67758048\O,0,-0.92959962,-2.
 11845039,0.58594104\C,0,-1.24448081,-0.29936707,-0.5994732\C,0,-2.0246
 7056,0.69161417,0.15215703\H,0,2.40460942,0.29242606,0.66606101\H,0,2.
 61389849,0.53976457,-1.08670451\H,0,2.47158944,1.94046089,0.00186481\H

 Normal termination of Gaussian 16 at Wed Apr  9 03:27:40 2025.
