 Gaussian 16, Revision C.01,

 ----------------------------------------------------------------------
 #t hf aug-cc-pvdz symm=none int=(grid=ultrafine) guess=(read,tcheck) s
 table=(opt,rrhf)
 ----------------------------------------------------------------------
 -----
 title
 -----
 Symbolic Z-matrix:
 Charge =  0 Multiplicity = 1

 SCF Done:  E(RHF) =  -268.732946298     A.U. after   17 cycles
 Normal termination of Gaussian 16 at Wed Apr  9 17:07:23 2025.
 Gaussian 16:  ES64L-G16RevC.01  3-Jul-2019

 ----------------------------------------------------------------------
 #t hf aug-cc-pvdz iop(5/13=1,5/36=2,99/5=2) pseudo=read geom=check gue
 ss=(read,tcheck) scf=(maxcycle=1)
 ----------------------------------------------------------------------
 -----
 title
 -----
 Structure from the checkpoint file:  "Grambow2020_wb97xd3_006252_forward_mol1.chk"
 Charge =  0 Multiplicity = 1

                         Standard orientation:
 ---------------------------------------------------------------------
 Center     Atomic      Atomic             Coordinates (Angstroms)
 Number     Number       Type             X           Y           Z
 ---------------------------------------------------------------------
      1          6           0        1.804697   -0.954916    0.213580
      2          6           0        1.534926    0.421990   -0.246586
      3          6           0        0.267774    0.957773   -0.459719
      4          6           0       -0.574392    0.650497    0.772583
      5          6           0       -1.618088   -0.181216    0.435419
      6          8           0       -1.710144   -0.663730   -0.727322
      7          1           0        0.897813   -1.556014    0.245206
      8          1           0        2.550391   -1.408842   -0.448115
      9          1           0        2.255086   -0.947631    1.211222
     10          1           0        2.419001    1.036869   -0.425643
     11          1           0       -0.411404    0.205480   -1.096895
     12          1           0        0.230304    1.963230   -0.873981
     13          1           0       -0.334911    1.030121    1.753136
     14          1           0       -2.414623   -0.378147    1.161991
 ---------------------------------------------------------------------

 SCF Done:  E(RHF) =  -269.014786582     A.U. after    2 cycles

 The electronic state is 1-A.
 Alpha  occ. eigenvalues --  -20.47512 -11.35906 -11.27945 -11.27327 -11.24301
 Alpha  occ. eigenvalues --  -11.20290  -1.40062  -1.14264  -1.02204  -0.94202
 Alpha  occ. eigenvalues --   -0.82380  -0.72250  -0.69997  -0.68806  -0.61614
 Alpha  occ. eigenvalues --   -0.60706  -0.58102  -0.56963  -0.51317  -0.49301
 Alpha  occ. eigenvalues --   -0.48985  -0.37120  -0.28425
 Alpha virt. eigenvalues --    0.01539   0.01976   0.03376   0.03597   0.04859
 Alpha virt. eigenvalues --    0.05823   0.06449   0.07565   0.07780   0.11778
 Alpha virt. eigenvalues --    0.12089   0.12618   0.13904   0.14257   0.14443

 Mulliken charges:
               1
     1  C   -0.515231
     2  C    0.433718
     3  C   -0.607997
     4  C    0.271459
     5  C    0.824116
     6  O   -1.379338
     7  H    0.185833
     8  H    0.208536
     9  H    0.286886
    10  H   -0.097804
    11  H    0.556451
    12  H    0.006687
    13  H   -0.244011
    14  H    0.070695
 Sum of Mulliken charges =  -0.00000

 Dipole moment (field-independent basis, Debye):
    X=              6.0241    Y=              0.9930    Z=              1.1224  Tot=              6.2077

 Test job not archived.
 1\1\GINC-SE173\SP\RHF\Aug-CC-pVDZ\C5H8O1\OHZDE\09-Apr-2025\0\\#t hf au
 g-cc-pvdz iop(5/13=1,5/36=2,99/5=2) pseudo=read geom=check guess=(read
 ,tcheck) scf=(maxcycle=1)\\title\\0,1\C,0,-1.3899639,-0.89574032,-0.49
 293772\C,0,-1.0396441,0.53799549,-0.44738472\C,0,0.11627109,1.05866015
 ,0.12788229\C,0,1.29663406,0.25500581,-0.40420229\C,0,1.90950632,-0.42
 162466,0.62598412\O,0,1.41795537,-0.41133401,1.78853838\H,0,-0.7001771
 8,-1.49970682,0.09372797\H,0,-2.41790707,-1.0198019,-0.13532027\H,0,-1
 .38596435,-1.26189051,-1.52449594\H,0,-1.76572527,1.21162196,-0.906471

 Normal termination of Gaussian 16 at Wed Apr  9 17:07:27 2025.
