 Gaussian 16, Revision C.01,

 ----------------------------------------------------------------------
 #t hf aug-cc-pvdz symm=none int=(grid=ultrafine) guess=(read,tcheck) s
 table=(opt,rrhf)
 ----------------------------------------------------------------------
 -----
 title
 -----
 Symbolic Z-matrix:
 Charge =  0 Multiplicity = 1

 SCF Done:  E(RHF) =  -301.992443992     A.U. after   14 cycles
 Normal termination of Gaussian 16 at Wed Apr  9 03:15:00 2025.
 Gaussian 16:  ES64L-G16RevC.01  3-Jul-2019

 ----------------------------------------------------------------------
 #t hf aug-cc-pvdz iop(5/13=1,5/36=2,99/5=2) pseudo=read geom=check gue
 ss=(read,tcheck) scf=(maxcycle=1)
 ----------------------------------------------------------------------
 -----
 title
 -----
 Structure from the checkpoint file:  "Grambow2020_b97d3_006939_reverse_mol1.chk"
 Charge =  0 Multiplicity = 1

                         Standard orientation:
 ---------------------------------------------------------------------
 Center     Atomic      Atomic             Coordinates (Angstroms)
 Number     Number       Type             X           Y           Z
 ---------------------------------------------------------------------
      1          6           0        2.271732   -0.578088    0.056169
      2          7           0        0.829613   -0.709348   -0.119271
      3          6           0       -0.004229    0.357126   -0.022647
      4          8           0        0.406283    1.598052   -0.016166
      5          7           0       -1.327130    0.381638    0.046635
      6          6           0       -2.226550   -0.744173    0.008674
      7          1           0        2.782614   -1.365259   -0.513398
      8          1           0        2.577489   -0.644781    1.113193
      9          1           0        2.577495    0.398603   -0.331265
     10          1           0        0.418201   -1.617450    0.064346
     11          1           0       -0.900985    1.664204    0.035812
     12          1           0       -3.246653   -0.382586    0.187322
     13          1           0       -2.220244   -1.263352   -0.967220
     14          1           0       -2.001278   -1.489021    0.795812
 ---------------------------------------------------------------------

 SCF Done:  E(RHF) =  -302.305453071     A.U. after    2 cycles

 The electronic state is 1-A.
 Alpha  occ. eigenvalues --  -20.52310 -15.54164 -15.47879 -11.37784 -11.28159
 Alpha  occ. eigenvalues --  -11.26916  -1.46804  -1.25634  -1.18790  -0.98279
 Alpha  occ. eigenvalues --   -0.94899  -0.83311  -0.72119  -0.69933  -0.66189
 Alpha  occ. eigenvalues --   -0.61976  -0.60958  -0.60647  -0.56658  -0.55285
 Alpha  occ. eigenvalues --   -0.52595  -0.44807  -0.43925  -0.38836
 Alpha virt. eigenvalues --    0.02953   0.04328   0.04820   0.04930   0.05747
 Alpha virt. eigenvalues --    0.06240   0.06578   0.08777   0.09814   0.11909
 Alpha virt. eigenvalues --    0.12573   0.14170   0.14722   0.15629   0.16188

 Mulliken charges:
               1
     1  C   -0.290909
     2  N    0.500552
     3  C   -0.250574
     4  O   -1.388161
     5  N    0.401083
     6  C   -0.471108
     7  H    0.091761
     8  H    0.173404
     9  H    0.119011
    10  H    0.208726
    11  H    0.582610
    12  H    0.052425
    13  H    0.148506
    14  H    0.122673
 Sum of Mulliken charges =  -0.00000

 Dipole moment (field-independent basis, Debye):
    X=              0.6464    Y=             -3.4107    Z=              0.3363  Tot=              3.4877

 Test job not archived.
 1\1\GINC-SE423\SP\RHF\Aug-CC-pVDZ\C3H8N2O1\OHZDE\09-Apr-2025\0\\#t hf
 aug-cc-pvdz iop(5/13=1,5/36=2,99/5=2) pseudo=read geom=check guess=(re
 ad,tcheck) scf=(maxcycle=1)\\title\\0,1\C,0,-2.24610275,0.44494283,0.1
 6674317\N,0,-0.7984279,0.51529715,0.00241655\C,0,-0.05224898,-0.587836
 8,-0.25893929\O,0,-0.56054318,-1.73440852,-0.62700289\N,0,1.26459144,-
 0.73228868,-0.23589516\C,0,2.25098047,0.27821738,0.05352368\H,0,-2.693
 5188,1.40649817,-0.11658782\H,0,-2.54363953,0.20189018,1.20000639\H,0,
 -2.62959459,-0.33651685,-0.49641286\H,0,-0.31547349,1.28731636,0.44779

 Normal termination of Gaussian 16 at Wed Apr  9 03:15:05 2025.
