 Gaussian 16, Revision C.01,

 ----------------------------------------------------------------------
 #t hf aug-cc-pvdz symm=none int=(grid=ultrafine) guess=(read,tcheck) s
 table=(opt,rrhf)
 ----------------------------------------------------------------------
 -----
 title
 -----
 Symbolic Z-matrix:
 Charge =  0 Multiplicity = 1

 SCF Done:  E(RHF) =  -338.760761065     A.U. after   15 cycles
 Normal termination of Gaussian 16 at Wed Apr  9 19:09:52 2025.
 Gaussian 16:  ES64L-G16RevC.01  3-Jul-2019

 ----------------------------------------------------------------------
 #t hf aug-cc-pvdz iop(5/13=1,5/36=2,99/5=2) pseudo=read geom=check gue
 ss=(read,tcheck) scf=(maxcycle=1)
 ----------------------------------------------------------------------
 -----
 title
 -----
 Structure from the checkpoint file:  "Grambow2020_wb97xd3_008816_reverse_mol2.chk"
 Charge =  0 Multiplicity = 1

                         Standard orientation:
 ---------------------------------------------------------------------
 Center     Atomic      Atomic             Coordinates (Angstroms)
 Number     Number       Type             X           Y           Z
 ---------------------------------------------------------------------
      1          7           0        1.949589   -0.454035   -0.344800
      2          6           0        0.709113   -0.402184    0.402066
      3          6           0       -0.084498    0.888494    0.094872
      4          8           0        0.316531    2.020620    0.070261
      5          7           0       -1.378944    0.484102   -0.146024
      6          6           0       -1.485016   -0.911097   -0.128232
      7          6           0       -0.324305   -1.481722    0.176926
      8          1           0        1.771768   -0.575806   -1.333106
      9          1           0        2.521654   -1.226814   -0.035358
     10          1           0        0.966531   -0.341682    1.466009
     11          1           0       -2.097828    1.123640   -0.431105
     12          1           0       -2.437782   -1.374655   -0.338804
     13          1           0       -0.142864   -2.541056    0.272245
 ---------------------------------------------------------------------

 SCF Done:  E(RHF) =  -339.106239500     A.U. after    2 cycles

 The electronic state is 1-A.
 Alpha  occ. eigenvalues --  -20.51722 -15.54012 -15.49678 -11.35836 -11.29796
 Alpha  occ. eigenvalues --  -11.28544 -11.23787  -1.46888  -1.28888  -1.19640
 Alpha  occ. eigenvalues --   -1.05508  -0.97087  -0.83649  -0.82548  -0.72978
 Alpha  occ. eigenvalues --   -0.71961  -0.65990  -0.63801  -0.63164  -0.60655
 Alpha  occ. eigenvalues --   -0.59910  -0.55776  -0.49157  -0.45166  -0.41435
 Alpha  occ. eigenvalues --   -0.35062
 Alpha virt. eigenvalues --    0.02790   0.03377   0.04155   0.05118   0.05825
 Alpha virt. eigenvalues --    0.06544   0.09111   0.10351   0.11277   0.11876
 Alpha virt. eigenvalues --    0.12806   0.13093   0.13579   0.14255   0.15127

 Mulliken charges:
               1
     1  N    0.565724
     2  C   -1.809338
     3  C    0.930187
     4  O   -1.306868
     5  N    0.728447
     6  C   -0.460064
     7  C    1.062017
     8  H    0.181410
     9  H    0.167530
    10  H    0.218907
    11  H    0.020519
    12  H   -0.188104
    13  H   -0.110369
 Sum of Mulliken charges =   0.00000

 Dipole moment (field-independent basis, Debye):
    X=             -2.3944    Y=             -4.1389    Z=             -0.4538  Tot=              4.8031

 Test job not archived.
 1\1\GINC-SE105\SP\RHF\Aug-CC-pVDZ\C4H6N2O1\OHZDE\09-Apr-2025\0\\#t hf
 aug-cc-pvdz iop(5/13=1,5/36=2,99/5=2) pseudo=read geom=check guess=(re
 ad,tcheck) scf=(maxcycle=1)\\title\\0,1\N,0,-1.8909093,0.3451875,-0.37
 122759\C,0,-0.69334355,0.10104695,0.40691593\C,0,-0.04284926,-1.251914
 24,0.03760628\O,0,-0.57045764,-2.32530455,-0.07465881\N,0,1.29763592,-
 0.98791187,-0.13719702\C,0,1.56302353,0.38126381,-0.02285101\C,0,0.465
 23995,1.06382449,0.28531752\H,0,-1.66356918,0.50733581,-1.34345275\H,0
 ,-2.38124509,1.15871712,-0.02780248\H,0,-0.99545069,0.00419507,1.45632

 Normal termination of Gaussian 16 at Wed Apr  9 19:09:56 2025.
