 Gaussian 16, Revision C.01,

 ----------------------------------------------------------------------
 #t hf aug-cc-pvdz symm=none int=(grid=ultrafine) guess=(read,tcheck) s
 table=(opt,rrhf)
 ----------------------------------------------------------------------
 -----
 title
 -----
 Symbolic Z-matrix:
 Charge =  0 Multiplicity = 1

 SCF Done:  E(RHF) =  -279.692490614     A.U. after   17 cycles
 Normal termination of Gaussian 16 at Wed Apr  9 15:57:41 2025.
 Gaussian 16:  ES64L-G16RevC.01  3-Jul-2019

 ----------------------------------------------------------------------
 #t hf aug-cc-pvdz iop(5/13=1,5/36=2,99/5=2) pseudo=read geom=check gue
 ss=(read,tcheck) scf=(maxcycle=1)
 ----------------------------------------------------------------------
 -----
 title
 -----
 Structure from the checkpoint file:  "Grambow2020_b97d3_007057_forward_mol1.chk"
 Charge =  0 Multiplicity = 1

                         Standard orientation:
 ---------------------------------------------------------------------
 Center     Atomic      Atomic             Coordinates (Angstroms)
 Number     Number       Type             X           Y           Z
 ---------------------------------------------------------------------
      1          7           0        1.410764   -1.161687    0.132588
      2          6           0        1.147667    0.146141   -0.015104
      3          6           0        0.697940    1.242418   -0.522003
      4          6           0       -0.400417    0.993428    0.462933
      5          7           0       -1.444530    0.106840    0.335473
      6          7           0       -1.298549   -0.865830   -0.498505
      7          1           0        1.819604   -1.425644    1.030081
      8          1           0        0.505081   -1.646689   -0.078403
      9          1           0        0.956878    2.028990   -1.231107
     10          1           0       -0.454615    1.613080    1.358719
     11          1           0       -2.171878   -1.416923   -0.421138
 ---------------------------------------------------------------------

 SCF Done:  E(RHF) =  -279.975130569     A.U. after    2 cycles

 The electronic state is 1-A.
 Alpha  occ. eigenvalues --  -15.56530 -15.55135 -15.51928 -11.33597 -11.29299
 Alpha  occ. eigenvalues --  -11.26093  -1.32264  -1.25424  -1.13207  -1.00626
 Alpha  occ. eigenvalues --   -0.81915  -0.78126  -0.75341  -0.72954  -0.67979
 Alpha  occ. eigenvalues --   -0.65425  -0.58980  -0.57763  -0.51298  -0.43121
 Alpha  occ. eigenvalues --   -0.41653  -0.32296
 Alpha virt. eigenvalues --    0.02898   0.04127   0.04924   0.05588   0.06606
 Alpha virt. eigenvalues --    0.07696   0.08161   0.09027   0.11505   0.12006
 Alpha virt. eigenvalues --    0.13328   0.13838   0.14423   0.15661   0.16125

 Mulliken charges:
               1
     1  N    0.717340
     2  C   -1.475263
     3  C    0.895514
     4  C   -0.741161
     5  N   -0.019431
     6  N    0.021446
     7  H    0.208147
     8  H    0.331401
     9  H   -0.026739
    10  H   -0.035978
    11  H    0.124725
 Sum of Mulliken charges =  -0.00000

 Dipole moment (field-independent basis, Debye):
    X=              2.1373    Y=              0.1635    Z=              0.9516  Tot=              2.3453

 Test job not archived.
 1\1\GINC-SE057\SP\RHF\Aug-CC-pVDZ\C3H5N3\OHZDE\09-Apr-2025\0\\#t hf au
 g-cc-pvdz iop(5/13=1,5/36=2,99/5=2) pseudo=read geom=check guess=(read
 ,tcheck) scf=(maxcycle=1)\\title\\0,1\N,0,-1.69598724,-0.42267698,0.15
 219725\C,0,-0.4806241,-0.98350243,0.05312751\C,0,0.66681976,-1.3119188
 2,-0.43322484\C,0,1.11410999,-0.16899631,0.42242898\N,0,0.99794127,1.1
 7284009,0.14236824\N,0,0.11179703,1.52306674,-0.72654186\H,0,-2.137790
 84,-0.49845499,1.0694673\H,0,-1.56680655,0.5655487,-0.17449448\H,0,1.1
 4803776,-2.05652057,-1.06770958\H,0,1.66038642,-0.38212699,1.34193795\

 Normal termination of Gaussian 16 at Wed Apr  9 15:57:44 2025.
