 Gaussian 16, Revision C.01,

 ----------------------------------------------------------------------
 #t hf aug-cc-pvdz symm=none int=(grid=ultrafine) guess=(read,tcheck) s
 table=(opt,rrhf)
 ----------------------------------------------------------------------
 -----
 title
 -----
 Symbolic Z-matrix:
 Charge =  0 Multiplicity = 1

 SCF Done:  E(RHF) =  -358.573076730     A.U. after   15 cycles
 Normal termination of Gaussian 16 at Wed Apr  9 04:04:30 2025.
 Gaussian 16:  ES64L-G16RevC.01  3-Jul-2019

 ----------------------------------------------------------------------
 #t hf aug-cc-pvdz iop(5/13=1,5/36=2,99/5=2) pseudo=read geom=check gue
 ss=(read,tcheck) scf=(maxcycle=1)
 ----------------------------------------------------------------------
 -----
 title
 -----
 Structure from the checkpoint file:  "Grambow2020_wb97xd3_009140_reverse_mol2.chk"
 Charge =  0 Multiplicity = 1

                         Standard orientation:
 ---------------------------------------------------------------------
 Center     Atomic      Atomic             Coordinates (Angstroms)
 Number     Number       Type             X           Y           Z
 ---------------------------------------------------------------------
      1          6           0       -2.198821   -0.871339   -0.093532
      2          6           0       -0.833418   -0.274193    0.023449
      3          6           0       -0.730703    1.230323   -0.171664
      4          8           0        0.222127    1.859356    0.184728
      5          6           0        1.495727   -0.505463    0.362015
      6          8           0        2.250277   -0.494495   -0.568024
      7          7           0        0.182109   -0.970732    0.282269
      8          1           0       -2.160637   -1.940036    0.100692
      9          1           0       -2.887488   -0.397062    0.610596
     10          1           0       -2.596926   -0.700843   -1.097304
     11          1           0       -1.606406    1.716727   -0.643082
     12          1           0        1.800757   -0.278522    1.397979
 ---------------------------------------------------------------------

 SCF Done:  E(RHF) =  -358.928057624     A.U. after    2 cycles

 The electronic state is 1-A.
 Alpha  occ. eigenvalues --  -20.59048 -20.53626 -15.54211 -11.37692 -11.36983
 Alpha  occ. eigenvalues --  -11.33897 -11.27130  -1.52461  -1.48241  -1.28275
 Alpha  occ. eigenvalues --   -1.06839  -0.93967  -0.91386  -0.77789  -0.74241
 Alpha  occ. eigenvalues --   -0.70554  -0.66921  -0.65264  -0.62702  -0.59696
 Alpha  occ. eigenvalues --   -0.57361  -0.56157  -0.50843  -0.48657  -0.45583
 Alpha  occ. eigenvalues --   -0.42003
 Alpha virt. eigenvalues --    0.02527   0.03142   0.03724   0.04273   0.04858
 Alpha virt. eigenvalues --    0.06164   0.08527   0.09452   0.10629   0.10958
 Alpha virt. eigenvalues --    0.12630   0.13586   0.14446   0.14669   0.15324

 Mulliken charges:
               1
     1  C   -0.428616
     2  C   -1.252925
     3  C    1.281890
     4  O   -1.101213
     5  C    0.854450
     6  O   -1.058757
     7  N    0.839041
     8  H    0.121088
     9  H    0.268587
    10  H    0.261185
    11  H    0.078773
    12  H    0.136497
 Sum of Mulliken charges =  -0.00000

 Dipole moment (field-independent basis, Debye):
    X=             -5.3987    Y=              0.3459    Z=              0.9453  Tot=              5.4917

 Test job not archived.
 1\1\GINC-SE403\SP\RHF\Aug-CC-pVDZ\C4H5N1O2\OHZDE\09-Apr-2025\0\\#t hf
 aug-cc-pvdz iop(5/13=1,5/36=2,99/5=2) pseudo=read geom=check guess=(re
 ad,tcheck) scf=(maxcycle=1)\\title\\0,1\C,0,-1.46979918,-0.49113178,-0
 .86926816\C,0,-0.22932201,-0.09973353,-0.132643\C,0,-0.07475484,1.3754
 3193,0.20229481\O,0,0.69609306,1.76786065,1.02835595\C,0,1.84640002,-0
 .65945013,0.85281501\O,0,2.87259031,-0.44845869,0.27242456\N,0,0.64118
 017,-0.94218076,0.2078832\H,0,-1.49405,-1.56702032,-1.02148438\H,0,-2.
 35981665,-0.18098236,-0.31548836\H,0,-1.50306457,0.01157166,-1.8394729

 Normal termination of Gaussian 16 at Wed Apr  9 04:04:34 2025.
