 Gaussian 16, Revision C.01,

 ----------------------------------------------------------------------
 #t hf aug-cc-pvdz symm=none int=(grid=ultrafine) guess=(read,tcheck) s
 table=(opt,rrhf)
 ----------------------------------------------------------------------
 -----
 title
 -----
 Symbolic Z-matrix:
 Charge =  0 Multiplicity = 1

 SCF Done:  E(RHF) =  -322.600078620     A.U. after   15 cycles
 Normal termination of Gaussian 16 at Wed Apr  9 03:39:28 2025.
 Gaussian 16:  ES64L-G16RevC.01  3-Jul-2019

 ----------------------------------------------------------------------
 #t hf aug-cc-pvdz iop(5/13=1,5/36=2,99/5=2) pseudo=read geom=check gue
 ss=(read,tcheck) scf=(maxcycle=1)
 ----------------------------------------------------------------------
 -----
 title
 -----
 Structure from the checkpoint file:  "Grambow2020_wb97xd3_007392_reverse_mol1.chk"
 Charge =  0 Multiplicity = 1

                         Standard orientation:
 ---------------------------------------------------------------------
 Center     Atomic      Atomic             Coordinates (Angstroms)
 Number     Number       Type             X           Y           Z
 ---------------------------------------------------------------------
      1          6           0       -1.796240   -0.188143    0.801847
      2          6           0       -0.786212    0.996477   -0.250283
      3          6           0        0.699107    1.296905   -0.214183
      4          8           0        1.460166    0.291598    0.438266
      5          6           0        1.161475   -0.975688    0.066990
      6          7           0        0.069191   -1.399304   -0.385075
      7          6           0       -1.067176   -0.511213   -0.434860
      8          1           0       -1.087180   -0.373763    1.627656
      9          1           0       -1.307876    1.290681    0.731397
     10          1           0       -1.332671    1.598512   -0.970805
     11          1           0        0.916194    2.225113    0.310573
     12          1           0        1.054102    1.388474   -1.247175
     13          1           0        2.004925   -1.642309    0.224158
     14          1           0       -1.678878   -0.734395   -1.303483
 ---------------------------------------------------------------------

 SCF Done:  E(RHF) =  -322.928707000     A.U. after    2 cycles

 The electronic state is 1-A.
 Alpha  occ. eigenvalues --  -20.59622 -15.49830 -11.34826 -11.32433 -11.28658
 Alpha  occ. eigenvalues --  -11.28405 -11.26185  -1.53224  -1.24951  -1.14163
 Alpha  occ. eigenvalues --   -0.99979  -0.92457  -0.83590  -0.77273  -0.74083
 Alpha  occ. eigenvalues --   -0.71589  -0.66910  -0.62666  -0.60342  -0.59528
 Alpha  occ. eigenvalues --   -0.54819  -0.53119  -0.50256  -0.45988  -0.42433
 Alpha  occ. eigenvalues --   -0.35513
 Alpha virt. eigenvalues --    0.02970   0.03808   0.04002   0.04786   0.05651
 Alpha virt. eigenvalues --    0.06245   0.07609   0.08877   0.09662   0.11497
 Alpha virt. eigenvalues --    0.12372   0.13134   0.13837   0.14153   0.14606

 Mulliken charges:
               1
     1  C   -0.300454
     2  C   -0.657707
     3  C    0.718573
     4  O   -1.207714
     5  C    0.272846
     6  N    0.876147
     7  C   -0.507087
     8  H    0.184162
     9  H    0.366375
    10  H    0.111976
    11  H    0.011889
    12  H    0.223245
    13  H   -0.053913
    14  H   -0.038337
 Sum of Mulliken charges =   0.00000

 Dipole moment (field-independent basis, Debye):
    X=              2.3209    Y=              2.7823    Z=             -0.9074  Tot=              3.7351

 Test job not archived.
 1\1\GINC-SE250\SP\RHF\Aug-CC-pVDZ\C5H7N1O1\OHZDE\09-Apr-2025\0\\#t hf
 aug-cc-pvdz iop(5/13=1,5/36=2,99/5=2) pseudo=read geom=check guess=(re
 ad,tcheck) scf=(maxcycle=1)\\title\\0,1\C,0,-1.53638244,-1.09028992,0.
 28270856\C,0,-0.77693242,0.44976935,-0.48012371\C,0,0.36570298,1.31300
 217,0.01681242\O,0,1.18839588,0.66079328,0.97250207\C,0,1.5523556,-0.6
 002667,0.6403325\N,0,0.93518564,-1.39919811,-0.10646463\C,0,-0.3672991
 7,-1.03403939,-0.60916268\H,0,-1.13645966,-1.02080201,1.3095558\H,0,-1
 .67078959,0.46237188,0.24323295\H,0,-1.23559197,0.82109202,-1.3922454\

 Normal termination of Gaussian 16 at Wed Apr  9 03:39:32 2025.
