 Gaussian 16, Revision C.01,

 ----------------------------------------------------------------------
 #t hf aug-cc-pvdz symm=none int=(grid=ultrafine) guess=(read,tcheck) s
 table=(opt,rrhf)
 ----------------------------------------------------------------------
 -----
 title
 -----
 Symbolic Z-matrix:
 Charge =  0 Multiplicity = 1

 SCF Done:  E(RHF) =  -344.883206918     A.U. after   13 cycles

 1\1\GINC-SE174\Stability\RHF\Aug-CC-pVDZ\C5H10O2\OHZDE\09-Apr-2025\0\\
 #t hf aug-cc-pvdz symm=none int=(grid=ultrafine) guess=(read,tcheck) s
 table=(opt,rrhf)\\title\\0,1\C,0,2.04054108,1.57046632,-0.77222822\C,0
 ,0.57983211,-1.52981005,0.4363454\C,0,-0.12921345,-1.52896876,1.550283
 98\O,0,-1.44842197,-1.24849251,1.28138374\C,0,-1.4796233,-0.85786046,-
 0.09074693\C,0,-1.68287222,0.63340784,-0.22019031\O,0,-0.22323655,-1.2
 4946224,-0.64469836\H,0,1.41974675,0.90658559,-1.37202317\H,0,3.091494
 2,1.39041119,-0.99470218\H,0,1.79568742,2.60695908,-1.00065475\H,0,1.6

 Normal termination of Gaussian 16 at Wed Apr  9 18:07:18 2025.
 Gaussian 16:  ES64L-G16RevC.01  3-Jul-2019

 ----------------------------------------------------------------------
 #t hf aug-cc-pvdz iop(5/13=1,5/36=2,99/5=2) pseudo=read geom=check gue
 ss=(read,tcheck) scf=(maxcycle=1)
 ----------------------------------------------------------------------
 -----
 title
 -----
 Structure from the checkpoint file:  "Grambow2020_wb97xd3_007110_reverse_mol2.chk"
 Charge =  0 Multiplicity = 1

                         Standard orientation:
 ---------------------------------------------------------------------
 Center     Atomic      Atomic             Coordinates (Angstroms)
 Number     Number       Type             X           Y           Z
 ---------------------------------------------------------------------
      1          6           0       -3.200643   -0.091781   -0.261027
      2          6           0        0.159499   -1.340135    0.336548
      3          6           0        1.069427   -1.253086   -0.616373
      4          8           0        1.723980   -0.045508   -0.548542
      5          6           0        0.999016    0.723970    0.409915
      6          6           0        0.185608    1.800272   -0.269708
      7          8           0        0.150918   -0.195160    1.098866
      8          1           0       -2.583647    0.183355    0.593077
      9          1           0       -3.910511   -0.863897    0.032814
     10          1           0       -3.744720    0.782206   -0.616799
     11          1           0       -0.524147   -2.124811    0.608565
     12          1           0       -2.561239   -0.471611   -1.057297
     13          1           0        1.379731   -1.945205   -1.379103
     14          1           0        1.711381    1.138993    1.128147
     15          1           0       -0.508958    1.346434   -0.977923
     16          1           0       -0.381045    2.361403    0.474141
     17          1           0        0.846529    2.483041   -0.804343
 ---------------------------------------------------------------------

 SCF Done:  E(RHF) =  -345.242584290     A.U. after    2 cycles

 The electronic state is 1-A.
 Alpha  occ. eigenvalues --  -20.57115 -20.57087 -11.35306 -11.29166 -11.29031
 Alpha  occ. eigenvalues --  -11.23093 -11.21556  -1.55149  -1.44870  -1.06823
 Alpha  occ. eigenvalues --   -0.98398  -0.94338  -0.85187  -0.82965  -0.74821
 Alpha  occ. eigenvalues --   -0.68771  -0.63196  -0.61349  -0.57551  -0.57071
 Alpha  occ. eigenvalues --   -0.55023  -0.54809  -0.54677  -0.53659  -0.53052
 Alpha  occ. eigenvalues --   -0.51814  -0.50729  -0.31813
 Alpha virt. eigenvalues --    0.03608   0.03968   0.04095   0.04287   0.05847
 Alpha virt. eigenvalues --    0.06154   0.06892   0.07516   0.08115   0.09979
 Alpha virt. eigenvalues --    0.11427   0.11898   0.12408   0.13879   0.14012

 Mulliken charges:
               1
     1  C   -0.311688
     2  C    0.875553
     3  C    0.551704
     4  O   -1.484121
     5  C    1.650798
     6  C   -0.384119
     7  O   -1.513705
     8  H    0.093414
     9  H    0.052431
    10  H    0.095550
    11  H   -0.160698
    12  H    0.075264
    13  H   -0.106119
    14  H    0.019661
    15  H    0.176737
    16  H    0.188473
    17  H    0.180867
 Sum of Mulliken charges =  -0.00000

 Dipole moment (field-independent basis, Debye):
    X=             -0.3837    Y=             -0.0555    Z=             -0.3859  Tot=              0.5470

 Test job not archived.
 1\1\GINC-SE174\SP\RHF\Aug-CC-pVDZ\C5H10O2\OHZDE\09-Apr-2025\0\\#t hf a
 ug-cc-pvdz iop(5/13=1,5/36=2,99/5=2) pseudo=read geom=check guess=(rea
 d,tcheck) scf=(maxcycle=1)\\title\\0,1\C,0,2.04054108,1.57046632,-0.77
 222822\C,0,0.57983211,-1.52981005,0.4363454\C,0,-0.12921345,-1.5289687
 6,1.55028398\O,0,-1.44842197,-1.24849251,1.28138374\C,0,-1.4796233,-0.
 85786046,-0.09074693\C,0,-1.68287222,0.63340784,-0.22019031\O,0,-0.223
 23655,-1.24946224,-0.64469836\H,0,1.41974675,0.90658559,-1.37202317\H,
 0,3.0914942,1.39041119,-0.99470218\H,0,1.79568742,2.60695908,-1.000654

 Normal termination of Gaussian 16 at Wed Apr  9 18:07:24 2025.
