 Gaussian 16, Revision C.01,

 ----------------------------------------------------------------------
 #t hf aug-cc-pvdz symm=none int=(grid=ultrafine) guess=(read,tcheck) s
 table=(opt,rrhf)
 ----------------------------------------------------------------------
 -----
 title
 -----
 Symbolic Z-matrix:
 Charge =  0 Multiplicity = 1

 SCF Done:  E(RHF) =  -321.305620191     A.U. after   19 cycles
 Normal termination of Gaussian 16 at Wed Apr  9 18:22:07 2025.
 Gaussian 16:  ES64L-G16RevC.01  3-Jul-2019

 ----------------------------------------------------------------------
 #t hf aug-cc-pvdz iop(5/13=1,5/36=2,99/5=2) pseudo=read geom=check gue
 ss=(read,tcheck) scf=(maxcycle=1)
 ----------------------------------------------------------------------
 -----
 title
 -----
 Structure from the checkpoint file:  "Grambow2020_wb97xd3_007498_reverse_mol1.chk"
 Charge =  0 Multiplicity = 1

                         Standard orientation:
 ---------------------------------------------------------------------
 Center     Atomic      Atomic             Coordinates (Angstroms)
 Number     Number       Type             X           Y           Z
 ---------------------------------------------------------------------
      1          8           0        0.328463    1.996604   -0.123285
      2          6           0        0.186842    0.851562    0.092983
      3          6           0        1.173596   -0.348485   -0.001300
      4          6           0        2.350654   -0.687569   -0.074835
      5          6           0       -1.026852   -0.107729    0.451068
      6          6           0       -2.209822   -0.282729   -0.282240
      7          7           0       -0.274087   -1.324278    0.080937
      8          1           0        3.356860   -1.034265   -0.127721
      9          1           0       -1.181711   -0.063276    1.530826
     10          1           0       -2.176222   -0.304419   -1.365158
     11          1           0       -3.179940   -0.370065    0.189265
     12          1           0       -0.374590   -1.481158   -0.921549
 ---------------------------------------------------------------------

 SCF Done:  E(RHF) =  -321.625630840     A.U. after    2 cycles

 The electronic state is 1-A.
 Alpha  occ. eigenvalues --  -20.57740 -15.54142 -11.37526 -11.31963 -11.30242
 Alpha  occ. eigenvalues --  -11.27216 -11.25492  -1.52296  -1.24588  -1.05341
 Alpha  occ. eigenvalues --   -1.00697  -0.93325  -0.82014  -0.73874  -0.70788
 Alpha  occ. eigenvalues --   -0.70147  -0.67213  -0.64729  -0.60081  -0.55872
 Alpha  occ. eigenvalues --   -0.52866  -0.49382  -0.43540  -0.40775  -0.29017
 Alpha virt. eigenvalues --   -0.02736   0.03058   0.03877   0.04033   0.04921
 Alpha virt. eigenvalues --    0.06401   0.07723   0.09544   0.10058   0.10564
 Alpha virt. eigenvalues --    0.11793   0.12213   0.13361   0.13711   0.13897

 Mulliken charges:
               1
     1  O   -1.186734
     2  C    0.964050
     3  C    0.174703
     4  C    0.076835
     5  C   -0.109712
     6  C    0.050008
     7  N    0.092957
     8  H   -0.323942
     9  H    0.026456
    10  H   -0.054288
    11  H   -0.036105
    12  H    0.325772
 Sum of Mulliken charges =  -0.00000

 Dipole moment (field-independent basis, Debye):
    X=             -2.5768    Y=             -0.5948    Z=             -0.7998  Tot=              2.7629

 Test job not archived.
 1\1\GINC-SE114\SP\RHF\Aug-CC-pVDZ\C5H5N1O1\OHZDE\09-Apr-2025\0\\#t hf
 aug-cc-pvdz iop(5/13=1,5/36=2,99/5=2) pseudo=read geom=check guess=(re
 ad,tcheck) scf=(maxcycle=1)\\title\\0,1\O,0,0.54693643,-1.6699865,1.46
 683762\C,0,0.4577416,-0.86789307,0.6144053\C,0,1.38220768,0.31655982,0
 .208056\C,0,2.50098103,0.80956643,0.31361593\C,0,-0.63231619,-0.454705
 01,-0.46381781\C,0,-1.96267303,-0.08256023,-0.22001047\N,0,-0.00378788
 ,0.86030854,-0.70740845\H,0,3.45954678,1.27227604,0.36358263\H,0,-0.51
 036493,-1.10722681,-1.3305235\H,0,-2.20264848,0.53507854,0.63745434\H,

 Normal termination of Gaussian 16 at Wed Apr  9 18:22:11 2025.
