 Gaussian 16, Revision C.01,

 ----------------------------------------------------------------------
 #t hf aug-cc-pvdz symm=none int=(grid=ultrafine) guess=(read,tcheck) s
 table=(opt,rrhf)
 ----------------------------------------------------------------------
 -----
 title
 -----
 Symbolic Z-matrix:
 Charge =  0 Multiplicity = 1

 SCF Done:  E(RHF) =  -234.193582364     A.U. after   12 cycles
 Normal termination of Gaussian 16 at Wed Apr  9 15:51:08 2025.
 Gaussian 16:  ES64L-G16RevC.01  3-Jul-2019

 ----------------------------------------------------------------------
 #t hf aug-cc-pvdz iop(5/13=1,5/36=2,99/5=2) pseudo=read geom=check gue
 ss=(read,tcheck) scf=(maxcycle=1)
 ----------------------------------------------------------------------
 -----
 title
 -----
 Structure from the checkpoint file:  "Grambow2020_b97d3_006826_forward_mol2.chk"
 Charge =  0 Multiplicity = 1

                         Standard orientation:
 ---------------------------------------------------------------------
 Center     Atomic      Atomic             Coordinates (Angstroms)
 Number     Number       Type             X           Y           Z
 ---------------------------------------------------------------------
      1          6           0        1.576987   -1.007680    0.001456
      2          6           0        0.416909   -0.013229    0.000301
      3          6           0        0.933669    1.430702   -0.001987
      4          6           0       -0.687489   -0.235239   -1.086422
      5          6           0       -1.773132    0.001681   -0.000276
      6          6           0       -0.688031   -0.230635    1.087260
      7          1           0        2.217507   -0.865795    0.885864
      8          1           0        1.209112   -2.044180    0.011839
      9          1           0        2.205062   -0.878974   -0.893580
     10          1           0        1.544491    1.626249    0.892390
     11          1           0        0.105510    2.154258   -0.010294
     12          1           0        1.556741    1.620231   -0.889182
     13          1           0       -0.674056    0.442787   -1.951229
     14          1           0       -0.691812   -1.272204   -1.450695
     15          1           0       -2.636632   -0.675744    0.000621
     16          1           0       -2.142299    1.035482   -0.002544
     17          1           0       -0.691781   -1.266206    1.455124
     18          1           0       -0.675323    0.450497    1.949689
 ---------------------------------------------------------------------

 SCF Done:  E(RHF) =  -234.455358085     A.U. after    2 cycles

 The electronic state is 1-A.
 Alpha  occ. eigenvalues --  -11.23477 -11.22503 -11.22206 -11.22202 -11.22175
 Alpha  occ. eigenvalues --  -11.22014  -1.13688  -0.99636  -0.92819  -0.89349
 Alpha  occ. eigenvalues --   -0.82515  -0.71523  -0.64331  -0.63357  -0.59792
 Alpha  occ. eigenvalues --   -0.57069  -0.55612  -0.54152  -0.51779  -0.49767
 Alpha  occ. eigenvalues --   -0.46894  -0.45047  -0.42602  -0.42440
 Alpha virt. eigenvalues --    0.03755   0.03874   0.03927   0.04099   0.05964
 Alpha virt. eigenvalues --    0.06260   0.06400   0.06546   0.06688   0.09712
 Alpha virt. eigenvalues --    0.09801   0.09885   0.12486   0.13624   0.14190

 Mulliken charges:
               1
     1  C   -0.306115
     2  C   -1.203655
     3  C   -0.213919
     4  C    0.173771
     5  C   -0.065136
     6  C    0.174520
     7  H    0.243322
     8  H    0.124243
     9  H    0.243773
    10  H    0.194130
    11  H    0.177145
    12  H    0.196563
    13  H    0.037680
    14  H    0.065088
    15  H   -0.010129
    16  H    0.065962
    17  H    0.066055
    18  H    0.036702
 Sum of Mulliken charges =  -0.00000

 Dipole moment (field-independent basis, Debye):
    X=              0.0231    Y=             -0.0039    Z=             -0.0003  Tot=              0.0235

 Test job not archived.
 1\1\GINC-SE226\SP\RHF\Aug-CC-pVDZ\C6H12\OHZDE\09-Apr-2025\0\\#t hf aug
 -cc-pvdz iop(5/13=1,5/36=2,99/5=2) pseudo=read geom=check guess=(read,
 tcheck) scf=(maxcycle=1)\\title\\0,1\C,0,-1.44570987,-1.0011693,0.5006
 5105\C,0,-0.35284375,-0.04848227,0.01821525\C,0,-0.9622149,1.19062297,
 -0.64906844\C,0,0.74423068,0.33782947,1.06566025\C,0,1.83125544,0.1086
 6423,-0.02076796\C,0,0.7829444,-0.6769746,-0.85621035\H,0,-2.07833658,
 -1.3327828,-0.33743714\H,0,-1.01119349,-1.89493824,0.97197458\H,0,-2.0
 9655856,-0.50947548,1.24008776\H,0,-1.56851877,0.90355734,-1.52155952\

 Normal termination of Gaussian 16 at Wed Apr  9 15:51:14 2025.
