 Gaussian 16, Revision C.01,

 ----------------------------------------------------------------------
 #t hf aug-cc-pvdz symm=none int=(grid=ultrafine) guess=(read,tcheck) s
 table=(opt,rrhf)
 ----------------------------------------------------------------------
 -----
 title
 -----
 Symbolic Z-matrix:
 Charge =  0 Multiplicity = 1

 SCF Done:  E(RHF) =  -323.914807105     A.U. after   14 cycles
 Normal termination of Gaussian 16 at Wed Apr  9 18:24:21 2025.
 Gaussian 16:  ES64L-G16RevC.01  3-Jul-2019

 ----------------------------------------------------------------------
 #t hf aug-cc-pvdz iop(5/13=1,5/36=2,99/5=2) pseudo=read geom=check gue
 ss=(read,tcheck) scf=(maxcycle=1)
 ----------------------------------------------------------------------
 -----
 title
 -----
 Structure from the checkpoint file:  "Grambow2020_wb97xd3_007533_forward_mol2.chk"
 Charge =  0 Multiplicity = 1

                         Standard orientation:
 ---------------------------------------------------------------------
 Center     Atomic      Atomic             Coordinates (Angstroms)
 Number     Number       Type             X           Y           Z
 ---------------------------------------------------------------------
      1          6           0       -2.837181   -0.440643    0.139965
      2          8           0       -1.653358    0.181415   -0.291685
      3          6           0       -0.501356   -0.497020    0.122946
      4          6           0        0.708908    0.287725   -0.383580
      5          6           0        0.785790    1.695242    0.209688
      6          6           0        1.927181   -0.473063   -0.093696
      7          7           0        2.875511   -1.069421    0.153943
      8          1           0       -3.670449    0.155768   -0.227496
      9          1           0       -2.885937   -0.490426    1.234979
     10          1           0       -2.923146   -1.458612   -0.260502
     11          1           0       -0.482893   -1.518291   -0.281641
     12          1           0       -0.463757   -0.572380    1.219925
     13          1           0        0.624618    0.357473   -1.472028
     14          1           0        1.635933    2.242790   -0.196237
     15          1           0       -0.129231    2.235061   -0.027741
     16          1           0        0.893093    1.649792    1.294681
 ---------------------------------------------------------------------

 SCF Done:  E(RHF) =  -324.250591473     A.U. after    2 cycles

 The electronic state is 1-A.
 Alpha  occ. eigenvalues --  -20.56452 -15.50986 -11.30971 -11.29610 -11.29161
 Alpha  occ. eigenvalues --  -11.27649 -11.24802  -1.49049  -1.23656  -1.11342
 Alpha  occ. eigenvalues --   -0.97895  -0.92877  -0.86466  -0.72978  -0.70226
 Alpha  occ. eigenvalues --   -0.67442  -0.64851  -0.62153  -0.59878  -0.58934
 Alpha  occ. eigenvalues --   -0.56151  -0.54510  -0.53711  -0.50566  -0.48843
 Alpha  occ. eigenvalues --   -0.48310  -0.43770
 Alpha virt. eigenvalues --    0.03170   0.03736   0.03808   0.04279   0.05832
 Alpha virt. eigenvalues --    0.06264   0.06898   0.07419   0.08170   0.10117
 Alpha virt. eigenvalues --    0.11562   0.12590   0.13297   0.13996   0.14234

 Mulliken charges:
               1
     1  C    0.085013
     2  O   -1.302412
     3  C    1.032567
     4  C   -0.616536
     5  C    0.088905
     6  C   -1.863612
     7  N    1.121665
     8  H   -0.031249
     9  H    0.181795
    10  H    0.185541
    11  H    0.115299
    12  H    0.193201
    13  H    0.244804
    14  H    0.131430
    15  H    0.192734
    16  H    0.240856
 Sum of Mulliken charges =   0.00000

 Dipole moment (field-independent basis, Debye):
    X=             -4.3563    Y=              1.5026    Z=             -0.1850  Tot=              4.6119

 Test job not archived.
 1\1\GINC-SE340\SP\RHF\Aug-CC-pVDZ\C5H9N1O1\OHZDE\09-Apr-2025\0\\#t hf
 aug-cc-pvdz iop(5/13=1,5/36=2,99/5=2) pseudo=read geom=check guess=(re
 ad,tcheck) scf=(maxcycle=1)\\title\\0,1\C,0,2.49269025,0.388926,0.0502
 0372\O,0,1.1199426,0.6818285,0.11718918\C,0,0.32705253,-0.46278729,0.2
 6031005\C,0,-1.13444901,-0.01558862,0.29431704\C,0,-1.56997782,0.66577
 197,-1.003776\C,0,-1.98176423,-1.17361857,0.59103923\N,0,-2.63661757,-
 2.09065708,0.80668737\H,0,3.02168523,1.3338814,-0.06067481\H,0,2.72240
 663,-0.25464215,-0.80826167\H,0,2.84042372,-0.10949965,0.96381035\H,0,

 Normal termination of Gaussian 16 at Wed Apr  9 18:24:25 2025.
