 Gaussian 16, Revision C.01,

 ----------------------------------------------------------------------
 #t hf aug-cc-pvdz symm=none int=(grid=ultrafine) guess=(read,tcheck) s
 table=(opt,rrhf)
 ----------------------------------------------------------------------
 -----
 title
 -----
 Symbolic Z-matrix:
 Charge =  0 Multiplicity = 1

 SCF Done:  E(RHF) =  -357.240950696     A.U. after   17 cycles
 Normal termination of Gaussian 16 at Wed Apr  9 19:08:36 2025.
 Gaussian 16:  ES64L-G16RevC.01  3-Jul-2019

 ----------------------------------------------------------------------
 #t hf aug-cc-pvdz iop(5/13=1,5/36=2,99/5=2) pseudo=read geom=check gue
 ss=(read,tcheck) scf=(maxcycle=1)
 ----------------------------------------------------------------------
 -----
 title
 -----
 Structure from the checkpoint file:  "Grambow2020_wb97xd3_008633_reverse_mol1.chk"
 Charge =  0 Multiplicity = 1

                         Standard orientation:
 ---------------------------------------------------------------------
 Center     Atomic      Atomic             Coordinates (Angstroms)
 Number     Number       Type             X           Y           Z
 ---------------------------------------------------------------------
      1          7           0        2.225327    0.162028    0.212035
      2          6           0        0.988170    0.057961    0.010224
      3          6           0        0.071422    1.206226   -0.076639
      4          6           0       -1.220011    0.824364   -0.203872
      5          6           0       -1.043398   -0.786786   -0.448107
      6          8           0       -1.495355   -0.373455    0.704567
      7          8           0        0.321883   -1.100329   -0.297629
      8          1           0        2.674823   -0.749395    0.253266
      9          1           0        0.455553    2.206833   -0.212454
     10          1           0       -2.096981    1.388045   -0.470200
 ---------------------------------------------------------------------

 SCF Done:  E(RHF) =  -357.586705392     A.U. after    2 cycles

 The electronic state is 1-A.
 Alpha  occ. eigenvalues --  -20.64108 -20.60323 -15.51134 -11.37986 -11.37704
 Alpha  occ. eigenvalues --  -11.36242 -11.32458  -1.61458  -1.50935  -1.24016
 Alpha  occ. eigenvalues --   -1.12470  -0.91917  -0.88352  -0.81904  -0.78073
 Alpha  occ. eigenvalues --   -0.72759  -0.69691  -0.65940  -0.63369  -0.59830
 Alpha  occ. eigenvalues --   -0.55258  -0.51200  -0.46933  -0.46605  -0.36584
 Alpha virt. eigenvalues --   -0.00854   0.02827   0.03986   0.05085   0.07771
 Alpha virt. eigenvalues --    0.08602   0.10416   0.10900   0.11746   0.12382
 Alpha virt. eigenvalues --    0.13257   0.13803   0.14379   0.14809   0.15716

 Mulliken charges:
               1
     1  N    0.749229
     2  C   -0.283317
     3  C    0.394910
     4  C    0.838453
     5  C    0.661664
     6  O   -0.963385
     7  O   -1.391319
     8  H    0.136486
     9  H   -0.054003
    10  H   -0.088717
 Sum of Mulliken charges =  -0.00000

 Dipole moment (field-independent basis, Debye):
    X=             -1.3731    Y=              2.2170    Z=             -0.1242  Tot=              2.6107

 Test job not archived.
 1\1\GINC-SE041\SP\RHF\Aug-CC-pVDZ\C4H3N1O2\OHZDE\09-Apr-2025\0\\#t hf
 aug-cc-pvdz iop(5/13=1,5/36=2,99/5=2) pseudo=read geom=check guess=(re
 ad,tcheck) scf=(maxcycle=1)\\title\\0,1\N,0,2.132016,-0.26229784,-0.16
 613289\C,0,0.92633097,0.06073323,-0.01092484\C,0,-0.18929552,-0.899233
 85,-0.02897841\C,0,-1.39326165,-0.28985935,0.06554882\C,0,-0.93617702,
 1.24621486,0.40934753\O,0,-1.39585517,0.98114227,-0.78321134\O,0,0.469
 43428,1.30655863,0.33477652\H,0,2.74306073,0.55019733,-0.13586756\H,0,
 -0.00342666,-1.95934059,0.06505849\H,0,-2.37162495,-0.69237869,0.26183

 Normal termination of Gaussian 16 at Wed Apr  9 19:08:39 2025.
