 Gaussian 16, Revision C.01,

 ----------------------------------------------------------------------
 #t hf aug-cc-pvdz symm=none int=(grid=ultrafine) guess=(read,tcheck) s
 table=(opt,rrhf)
 ----------------------------------------------------------------------
 -----
 title
 -----
 Symbolic Z-matrix:
 Charge =  0 Multiplicity = 1

 SCF Done:  E(RHF) =  -359.748780308     A.U. after   14 cycles
 Normal termination of Gaussian 16 at Wed Apr  9 04:05:41 2025.
 Gaussian 16:  ES64L-G16RevC.01  3-Jul-2019

 ----------------------------------------------------------------------
 #t hf aug-cc-pvdz iop(5/13=1,5/36=2,99/5=2) pseudo=read geom=check gue
 ss=(read,tcheck) scf=(maxcycle=1)
 ----------------------------------------------------------------------
 -----
 title
 -----
 Structure from the checkpoint file:  "Grambow2020_wb97xd3_009240_reverse_mol2.chk"
 Charge =  0 Multiplicity = 1

                         Standard orientation:
 ---------------------------------------------------------------------
 Center     Atomic      Atomic             Coordinates (Angstroms)
 Number     Number       Type             X           Y           Z
 ---------------------------------------------------------------------
      1          6           0       -1.809769   -1.600957   -0.601768
      2          6           0       -0.386611   -1.111065   -0.583317
      3          6           0       -0.519349    2.241970    0.288416
      4          8           0       -1.641927    2.218307    0.252714
      5          6           0        0.366817   -1.128475    0.485104
      6          8           0        1.014420   -1.147082    1.448516
      7          7           0        2.478788    0.620497   -0.819810
      8          1           0       -2.115702   -1.971704    0.376604
      9          1           0       -2.494966   -0.797266   -0.881118
     10          1           0       -1.936911   -2.413623   -1.319926
     11          1           0        0.098261   -0.704915   -1.461581
     12          1           0        2.076600    1.382455   -0.288375
     13          1           0        2.978453    1.021595   -1.602039
     14          1           0        3.156279    0.161337   -0.225350
 ---------------------------------------------------------------------

 SCF Done:  E(RHF) =  -360.103213896     A.U. after    2 cycles

 The electronic state is 1-A.
 Alpha  occ. eigenvalues --  -20.65345 -20.59522 -15.48790 -11.37147 -11.36864
 Alpha  occ. eigenvalues --  -11.24615 -11.23352  -1.60788  -1.53812  -1.14798
 Alpha  occ. eigenvalues --   -1.07748  -0.92959  -0.80894  -0.73861  -0.67817
 Alpha  occ. eigenvalues --   -0.67128  -0.66993  -0.64050  -0.63723  -0.62792
 Alpha  occ. eigenvalues --   -0.61568  -0.57408  -0.55730  -0.55290  -0.52814
 Alpha  occ. eigenvalues --   -0.47375  -0.33861
 Alpha virt. eigenvalues --    0.03488   0.04121   0.05293   0.05586   0.06522
 Alpha virt. eigenvalues --    0.06794   0.07273   0.08962   0.09766   0.10287
 Alpha virt. eigenvalues --    0.11561   0.12850   0.13090   0.13873   0.14347

 Mulliken charges:
               1
     1  C   -0.747658
     2  C    0.980052
     3  C    0.451333
     4  O   -0.480859
     5  C    0.176707
     6  O   -0.869064
     7  N   -0.047821
     8  H    0.124100
     9  H    0.189143
    10  H    0.197055
    11  H   -0.099624
    12  H    0.010488
    13  H    0.052070
    14  H    0.064078
 Sum of Mulliken charges =  -0.00000

 Dipole moment (field-independent basis, Debye):
    X=              0.0598    Y=              1.0610    Z=             -1.1995  Tot=              1.6025

 Test job not archived.
 1\1\GINC-SE335\SP\RHF\Aug-CC-pVDZ\C4H7N1O2\OHZDE\09-Apr-2025\0\\#t hf
 aug-cc-pvdz iop(5/13=1,5/36=2,99/5=2) pseudo=read geom=check guess=(re
 ad,tcheck) scf=(maxcycle=1)\\title\\0,1\C,0,-1.35369785,-1.63310694,0.
 99163942\C,0,-0.19946095,-0.93407375,0.32470262\C,0,-1.26262886,2.3005
 9058,-0.32875257\O,0,-2.29756339,2.04375755,0.02474746\C,0,0.71160124,
 -0.26326701,0.9800373\O,0,1.50476668,0.33296759,1.58277425\N,0,1.82350
 056,0.96244132,-1.56622298\H,0,-1.32058501,-1.51157622,2.07441085\H,0,
 -2.30741408,-1.23133003,0.64170682\H,0,-1.34270196,-2.70363709,0.77672

 Normal termination of Gaussian 16 at Wed Apr  9 04:05:45 2025.
