 Gaussian 16, Revision C.01,

 ----------------------------------------------------------------------
 #t hf aug-cc-pvdz symm=none int=(grid=ultrafine) guess=(read,tcheck) s
 table=(opt,rrhf)
 ----------------------------------------------------------------------
 -----
 title
 -----
 Symbolic Z-matrix:
 Charge =  0 Multiplicity = 1

 SCF Done:  E(RHF) =  -344.888344388     A.U. after   12 cycles

 1\1\GINC-SE045\Stability\RHF\Aug-CC-pVDZ\C5H10O2\OHZDE\09-Apr-2025\0\\
 #t hf aug-cc-pvdz symm=none int=(grid=ultrafine) guess=(read,tcheck) s
 table=(opt,rrhf)\\title\\0,1\C,0,-2.68206522,-0.50231737,-0.31315116\C
 ,0,-1.37723763,0.18863436,-0.57422829\O,0,-0.81541696,0.92286189,0.507
 10005\C,0,-0.12237753,-0.23362058,0.03938392\C,0,1.22493495,0.0080427,
 -0.58151327\C,0,2.23409131,0.54671378,0.42568013\O,0,2.44778433,-0.337
 26133,1.51202014\H,0,-3.5034008,0.21663681,-0.31171125\H,0,-2.88198422
 ,-1.24423058,-1.08907985\H,0,-2.66457345,-1.00481433,0.65456453\H,0,-1

 Normal termination of Gaussian 16 at Wed Apr  9 03:34:34 2025.
 Gaussian 16:  ES64L-G16RevC.01  3-Jul-2019

 ----------------------------------------------------------------------
 #t hf aug-cc-pvdz iop(5/13=1,5/36=2,99/5=2) pseudo=read geom=check gue
 ss=(read,tcheck) scf=(maxcycle=1)
 ----------------------------------------------------------------------
 -----
 title
 -----
 Structure from the checkpoint file:  "Grambow2020_wb97xd3_007048_reverse_mol2.chk"
 Charge =  0 Multiplicity = 1

                         Standard orientation:
 ---------------------------------------------------------------------
 Center     Atomic      Atomic             Coordinates (Angstroms)
 Number     Number       Type             X           Y           Z
 ---------------------------------------------------------------------
      1          6           0       -2.877155   -0.336364   -0.351996
      2          6           0       -1.641623    0.387341    0.092820
      3          8           0       -0.798204   -0.294584    1.013486
      4          6           0       -0.298229   -0.028893   -0.296455
      5          6           0        0.868650    0.914737   -0.380842
      6          6           0        2.117673    0.345568    0.281719
      7          8           0        2.543817   -0.870188   -0.307815
      8          1           0       -3.636472   -0.316824    0.431933
      9          1           0       -3.296264    0.137401   -1.242143
     10          1           0       -2.650725   -1.377580   -0.584119
     11          1           0       -1.777862    1.440923    0.334611
     12          1           0        2.030632   -1.588189    0.065245
     13          1           0       -0.223164   -0.920104   -0.918870
     14          1           0        1.080306    1.125908   -1.432814
     15          1           0        0.612249    1.859727    0.106877
     16          1           0        1.934952    0.214751    1.353683
     17          1           0        2.945541    1.047835    0.168740
 ---------------------------------------------------------------------

 SCF Done:  E(RHF) =  -345.249330488     A.U. after    2 cycles

 The electronic state is 1-A.
 Alpha  occ. eigenvalues --  -20.55479 -20.54609 -11.29447 -11.29043 -11.28283
 Alpha  occ. eigenvalues --  -11.23710 -11.23685  -1.49760  -1.44863  -1.05279
 Alpha  occ. eigenvalues --   -1.02246  -0.91909  -0.84099  -0.80766  -0.70708
 Alpha  occ. eigenvalues --   -0.68172  -0.67125  -0.61763  -0.59603  -0.58506
 Alpha  occ. eigenvalues --   -0.57076  -0.55614  -0.52006  -0.51402  -0.48470
 Alpha  occ. eigenvalues --   -0.45747  -0.43666  -0.42017
 Alpha virt. eigenvalues --    0.03491   0.03583   0.04063   0.04397   0.05503
 Alpha virt. eigenvalues --    0.06109   0.06444   0.07555   0.08230   0.08986
 Alpha virt. eigenvalues --    0.11802   0.12318   0.13192   0.14155   0.14811

 Mulliken charges:
               1
     1  C   -0.606757
     2  C    0.656027
     3  O   -1.425791
     4  C    1.426422
     5  C   -0.803603
     6  C    0.613633
     7  O   -1.112837
     8  H    0.214019
     9  H    0.247932
    10  H    0.172762
    11  H   -0.127593
    12  H    0.324623
    13  H   -0.142721
    14  H    0.158189
    15  H    0.221102
    16  H    0.161480
    17  H    0.023111
 Sum of Mulliken charges =  -0.00000

 Dipole moment (field-independent basis, Debye):
    X=             -1.6426    Y=              0.9953    Z=             -0.6989  Tot=              2.0438

 Test job not archived.
 1\1\GINC-SE045\SP\RHF\Aug-CC-pVDZ\C5H10O2\OHZDE\09-Apr-2025\0\\#t hf a
 ug-cc-pvdz iop(5/13=1,5/36=2,99/5=2) pseudo=read geom=check guess=(rea
 d,tcheck) scf=(maxcycle=1)\\title\\0,1\C,0,-2.68206522,-0.50231737,-0.
 31315116\C,0,-1.37723763,0.18863436,-0.57422829\O,0,-0.81541696,0.9228
 6189,0.50710005\C,0,-0.12237753,-0.23362058,0.03938392\C,0,1.22493495,
 0.0080427,-0.58151327\C,0,2.23409131,0.54671378,0.42568013\O,0,2.44778
 433,-0.33726133,1.51202014\H,0,-3.5034008,0.21663681,-0.31171125\H,0,-
 2.88198422,-1.24423058,-1.08907985\H,0,-2.66457345,-1.00481433,0.65456

 Normal termination of Gaussian 16 at Wed Apr  9 03:34:41 2025.
