 Gaussian 16, Revision C.01,

 ----------------------------------------------------------------------
 #t hf aug-cc-pvdz symm=none int=(grid=ultrafine) guess=(read,tcheck) s
 table=(opt,rrhf)
 ----------------------------------------------------------------------
 -----
 title
 -----
 Symbolic Z-matrix:
 Charge =  0 Multiplicity = 1

 SCF Done:  E(RHF) =  -270.052564644     A.U. after   13 cycles

 1\1\GINC-SE040\Stability\RHF\Aug-CC-pVDZ\C5H10O1\OHZDE\09-Apr-2025\0\\
 #t hf aug-cc-pvdz symm=none int=(grid=ultrafine) guess=(read,tcheck) s
 table=(opt,rrhf)\\title\\0,1\C,0,1.50640541,0.09662493,-1.40901731\C,0
 ,0.83245509,0.58535372,-0.12080271\C,0,-0.68607461,0.07549893,1.791343
 79\O,0,-1.81376698,0.34414978,2.16246073\C,0,-0.29505963,-0.35027999,0
 .38499222\C,0,-1.50302587,-0.4276129,-0.55200632\H,0,1.92625913,-0.910
 98047,-1.27254654\H,0,2.32607941,0.76896412,-1.6983707\H,0,0.79736294,
 0.0555929,-2.24639106\H,0,1.59559425,0.68499486,0.66845815\H,0,0.40966

 Normal termination of Gaussian 16 at Wed Apr  9 03:09:00 2025.
 Gaussian 16:  ES64L-G16RevC.01  3-Jul-2019

 ----------------------------------------------------------------------
 #t hf aug-cc-pvdz iop(5/13=1,5/36=2,99/5=2) pseudo=read geom=check gue
 ss=(read,tcheck) scf=(maxcycle=1)
 ----------------------------------------------------------------------
 -----
 title
 -----
 Structure from the checkpoint file:  "Grambow2020_b97d3_006615_reverse_mol2.chk"
 Charge =  0 Multiplicity = 1

                         Standard orientation:
 ---------------------------------------------------------------------
 Center     Atomic      Atomic             Coordinates (Angstroms)
 Number     Number       Type             X           Y           Z
 ---------------------------------------------------------------------
      1          6           0       -2.457487   -0.152023    0.021676
      2          6           0       -1.059441   -0.684743   -0.316320
      3          6           0        1.378266   -0.700071    0.212393
      4          8           0        2.416932   -0.256698   -0.241683
      5          6           0        0.086399    0.081318    0.392714
      6          6           0        0.225943    1.539003   -0.053167
      7          1           0       -2.636740   -0.185216    1.106543
      8          1           0       -3.233143   -0.756670   -0.468621
      9          1           0       -2.585727    0.887011   -0.309357
     10          1           0       -1.003712   -1.749854   -0.037619
     11          1           0       -0.891988   -0.636579   -1.404021
     12          1           0        1.303807   -1.771640    0.535905
     13          1           0       -0.129445    0.041695    1.478612
     14          1           0        0.387749    1.593338   -1.138349
     15          1           0        1.086120    2.015165    0.433499
     16          1           0       -0.674449    2.115421    0.193101
 ---------------------------------------------------------------------

 SCF Done:  E(RHF) =  -270.339894042     A.U. after    2 cycles

 The electronic state is 1-A.
 Alpha  occ. eigenvalues --  -20.54686 -11.34185 -11.25613 -11.25077 -11.23920
 Alpha  occ. eigenvalues --  -11.23105  -1.46825  -1.10493  -0.99856  -0.92024
 Alpha  occ. eigenvalues --   -0.83955  -0.76510  -0.68660  -0.64965  -0.63525
 Alpha  occ. eigenvalues --   -0.60273  -0.56243  -0.55013  -0.53319  -0.51713
 Alpha  occ. eigenvalues --   -0.51534  -0.48890  -0.47452  -0.41134
 Alpha virt. eigenvalues --    0.03262   0.03518   0.03708   0.04595   0.06037
 Alpha virt. eigenvalues --    0.06354   0.06789   0.07156   0.08114   0.09723
 Alpha virt. eigenvalues --    0.11572   0.12343   0.13145   0.14133   0.14456

 Mulliken charges:
               1
     1  C   -0.410765
     2  C   -0.123303
     3  C    1.365006
     4  O   -1.194652
     5  C   -1.108695
     6  C   -0.165822
     7  H    0.177251
     8  H    0.131188
     9  H    0.172578
    10  H    0.100258
    11  H    0.167116
    12  H    0.129724
    13  H    0.243402
    14  H    0.217910
    15  H    0.140727
    16  H    0.158075
 Sum of Mulliken charges =  -0.00000

 Dipole moment (field-independent basis, Debye):
    X=             -2.9631    Y=             -0.6000    Z=              0.9551  Tot=              3.1705

 Test job not archived.
 1\1\GINC-SE040\SP\RHF\Aug-CC-pVDZ\C5H10O1\OHZDE\09-Apr-2025\0\\#t hf a
 ug-cc-pvdz iop(5/13=1,5/36=2,99/5=2) pseudo=read geom=check guess=(rea
 d,tcheck) scf=(maxcycle=1)\\title\\0,1\C,0,1.50640541,0.09662493,-1.40
 901731\C,0,0.83245509,0.58535372,-0.12080271\C,0,-0.68607461,0.0754989
 3,1.79134379\O,0,-1.81376698,0.34414978,2.16246073\C,0,-0.29505963,-0.
 35027999,0.38499222\C,0,-1.50302587,-0.4276129,-0.55200632\H,0,1.92625
 913,-0.91098047,-1.27254654\H,0,2.32607941,0.76896412,-1.6983707\H,0,0
 .79736294,0.0555929,-2.24639106\H,0,1.59559425,0.68499486,0.66845815\H

 Normal termination of Gaussian 16 at Wed Apr  9 03:09:05 2025.
