 Gaussian 16, Revision C.01,

 ----------------------------------------------------------------------
 #t hf aug-cc-pvdz symm=none int=(grid=ultrafine) guess=(read,tcheck) s
 table=(opt,rrhf)
 ----------------------------------------------------------------------
 -----
 title
 -----
 Symbolic Z-matrix:
 Charge =  0 Multiplicity = 1

 SCF Done:  E(RHF) =  -344.702255239     A.U. after   15 cycles

 1\1\GINC-SE070\Stability\RHF\Aug-CC-pVDZ\C5H10O2\OHZDE\09-Apr-2025\0\\
 #t hf aug-cc-pvdz symm=none int=(grid=ultrafine) guess=(read,tcheck) s
 table=(opt,rrhf)\\title\\0,1\C,0,1.25541519,0.4387932,1.19664881\O,0,1
 .01909902,0.82738881,-0.98276087\C,0,0.20079297,-0.16662141,-1.3351614
 \C,0,0.64273445,-1.46318862,-0.61605336\O,0,-0.00683687,-0.93436527,0.
 59381304\C,0,-0.97781541,-0.25573351,-0.30856455\C,0,-1.61599936,0.974
 31505,0.25501669\H,0,0.95508131,0.01987247,2.14948627\H,0,2.23230566,0
 .14847927,0.8459932\H,0,1.03746386,1.48492951,1.06521017\H,0,-0.055521

 Normal termination of Gaussian 16 at Wed Apr  9 03:27:34 2025.
 Gaussian 16:  ES64L-G16RevC.01  3-Jul-2019

 ----------------------------------------------------------------------
 #t hf aug-cc-pvdz iop(5/13=1,5/36=2,99/5=2) pseudo=read geom=check gue
 ss=(read,tcheck) scf=(maxcycle=1)
 ----------------------------------------------------------------------
 -----
 title
 -----
 Structure from the checkpoint file:  "Grambow2020_wb97xd3_006662_reverse_mol1.chk"
 Charge =  0 Multiplicity = 1

                         Standard orientation:
 ---------------------------------------------------------------------
 Center     Atomic      Atomic             Coordinates (Angstroms)
 Number     Number       Type             X           Y           Z
 ---------------------------------------------------------------------
      1          6           0       -0.639616    1.717665   -0.202187
      2          8           0       -0.555023    0.213933    1.437421
      3          6           0       -0.325902   -0.906441    0.748849
      4          6           0       -1.198999   -0.901404   -0.528332
      5          8           0       -0.222537    0.032143   -1.111758
      6          6           0        0.815854   -0.650672   -0.291311
      7          6           0        2.008081    0.186330    0.049198
      8          1           0       -0.431635    2.082590   -1.200770
      9          1           0       -1.680709    1.680625    0.074053
     10          1           0        0.003812    2.101722    0.570911
     11          1           0       -0.274758   -1.836185    1.333830
     12          1           0       -2.193703   -0.464748   -0.471723
     13          1           0       -1.189358   -1.814146   -1.126502
     14          1           0        1.083673   -1.541735   -0.864783
     15          1           0        2.822098   -0.465690    0.370092
     16          1           0        2.356033    0.753490   -0.816937
     17          1           0        1.768516    0.862605    0.869220
 ---------------------------------------------------------------------

 SCF Done:  E(RHF) =  -345.063193425     A.U. after    2 cycles

 The electronic state is 1-A.
 Alpha  occ. eigenvalues --  -20.59769 -20.41611 -11.36000 -11.28740 -11.28375
 Alpha  occ. eigenvalues --  -11.25710 -11.22680  -1.49895  -1.31948  -1.03371
 Alpha  occ. eigenvalues --   -0.99932  -0.94863  -0.87021  -0.75497  -0.70540
 Alpha  occ. eigenvalues --   -0.66854  -0.65332  -0.62304  -0.61494  -0.59784
 Alpha  occ. eigenvalues --   -0.54522  -0.52976  -0.52027  -0.49608  -0.49198
 Alpha  occ. eigenvalues --   -0.44361  -0.32640  -0.32390
 Alpha virt. eigenvalues --    0.02801   0.03666   0.03804   0.04603   0.05615
 Alpha virt. eigenvalues --    0.06069   0.06311   0.07044   0.08526   0.09339
 Alpha virt. eigenvalues --    0.10119   0.11526   0.12598   0.13428   0.14000

 Mulliken charges:
               1
     1  C   -0.111498
     2  O   -1.644658
     3  C    1.429318
     4  C    0.499666
     5  O   -1.329408
     6  C    0.537954
     7  C   -0.450657
     8  H    0.129086
     9  H    0.207142
    10  H    0.309560
    11  H    0.020013
    12  H    0.009602
    13  H   -0.032103
    14  H   -0.210977
    15  H    0.144073
    16  H    0.260124
    17  H    0.232765
 Sum of Mulliken charges =  -0.00000

 Dipole moment (field-independent basis, Debye):
    X=              0.3740    Y=              0.9767    Z=             -3.5712  Tot=              3.7212

 Test job not archived.
 1\1\GINC-SE070\SP\RHF\Aug-CC-pVDZ\C5H10O2\OHZDE\09-Apr-2025\0\\#t hf a
 ug-cc-pvdz iop(5/13=1,5/36=2,99/5=2) pseudo=read geom=check guess=(rea
 d,tcheck) scf=(maxcycle=1)\\title\\0,1\C,0,1.25541519,0.4387932,1.1966
 4881\O,0,1.01909902,0.82738881,-0.98276087\C,0,0.20079297,-0.16662141,
 -1.3351614\C,0,0.64273445,-1.46318862,-0.61605336\O,0,-0.00683687,-0.9
 3436527,0.59381304\C,0,-0.97781541,-0.25573351,-0.30856455\C,0,-1.6159
 9936,0.97431505,0.25501669\H,0,0.95508131,0.01987247,2.14948627\H,0,2.
 23230566,0.14847927,0.8459932\H,0,1.03746386,1.48492951,1.06521017\H,0

 Normal termination of Gaussian 16 at Wed Apr  9 03:27:41 2025.
