 Gaussian 16, Revision C.01,

 ----------------------------------------------------------------------
 #t hf aug-cc-pvdz symm=none int=(grid=ultrafine) guess=(read,tcheck) s
 table=(opt,rrhf)
 ----------------------------------------------------------------------
 -----
 title
 -----
 Symbolic Z-matrix:
 Charge =  0 Multiplicity = 1

 SCF Done:  E(RHF) =  -338.607954297     A.U. after   15 cycles
 Normal termination of Gaussian 16 at Wed Apr  9 03:40:45 2025.
 Gaussian 16:  ES64L-G16RevC.01  3-Jul-2019

 ----------------------------------------------------------------------
 #t hf aug-cc-pvdz iop(5/13=1,5/36=2,99/5=2) pseudo=read geom=check gue
 ss=(read,tcheck) scf=(maxcycle=1)
 ----------------------------------------------------------------------
 -----
 title
 -----
 Structure from the checkpoint file:  "Grambow2020_wb97xd3_007487_forward_mol1.chk"
 Charge =  0 Multiplicity = 1

                         Standard orientation:
 ---------------------------------------------------------------------
 Center     Atomic      Atomic             Coordinates (Angstroms)
 Number     Number       Type             X           Y           Z
 ---------------------------------------------------------------------
      1          6           0        2.377581    0.040479   -0.141108
      2          8           0        1.012447    0.080516   -0.513020
      3          6           0        0.124693    0.613020    0.719725
      4          6           0       -0.085443   -0.822483    0.490970
      5          7           0       -1.265263   -1.141756   -0.123055
      6          6           0       -1.807716    0.034267   -0.331448
      7          7           0       -1.066452    1.069830    0.071749
      8          1           0        2.551503   -0.622753    0.710305
      9          1           0        2.704125    1.044922    0.132825
     10          1           0        2.929801   -0.331856   -1.005444
     11          1           0        0.550237   -1.609050    0.874776
     12          1           0       -2.790033    0.163235   -0.772527
     13          1           0       -1.377893    2.023155    0.094541
 ---------------------------------------------------------------------

 SCF Done:  E(RHF) =  -338.951782688     A.U. after    2 cycles

 The electronic state is 1-A.
 Alpha  occ. eigenvalues --  -20.57976 -15.54572 -15.48939 -11.35213 -11.33473
 Alpha  occ. eigenvalues --  -11.28476 -11.26411  -1.47761  -1.33832  -1.19097
 Alpha  occ. eigenvalues --   -1.02808  -0.91874  -0.86396  -0.84715  -0.78474
 Alpha  occ. eigenvalues --   -0.66810  -0.66070  -0.65019  -0.62076  -0.59585
 Alpha  occ. eigenvalues --   -0.55268  -0.52365  -0.50073  -0.44457  -0.42500
 Alpha  occ. eigenvalues --   -0.34593
 Alpha virt. eigenvalues --    0.03056   0.04328   0.04815   0.05067   0.05758
 Alpha virt. eigenvalues --    0.06916   0.07262   0.09442   0.10228   0.10778
 Alpha virt. eigenvalues --    0.11837   0.12727   0.14098   0.14797   0.15417

 Mulliken charges:
               1
     1  C    0.335169
     2  O   -1.115234
     3  C   -0.470849
     4  C   -0.051899
     5  N    0.637343
     6  C   -0.314965
     7  N    0.647734
     8  H    0.140551
     9  H    0.140959
    10  H   -0.008268
    11  H   -0.001946
    12  H   -0.001594
    13  H    0.062998
 Sum of Mulliken charges =  -0.00000

 Dipole moment (field-independent basis, Debye):
    X=             -0.5863    Y=              1.1847    Z=             -0.7424  Tot=              1.5160

 Test job not archived.
 1\1\GINC-SE115\SP\RHF\Aug-CC-pVDZ\C4H6N2O1\OHZDE\09-Apr-2025\0\\#t hf
 aug-cc-pvdz iop(5/13=1,5/36=2,99/5=2) pseudo=read geom=check guess=(re
 ad,tcheck) scf=(maxcycle=1)\\title\\0,1\C,0,-2.04039514,0.00489468,-0.
 43732518\O,0,-0.66507065,-0.3243792,-0.49709366\C,0,0.03312056,-0.0184
 0881,0.92073538\C,0,0.44968055,0.95178379,-0.10022325\N,0,1.71059359,0
 .76215855,-0.59527575\C,0,2.10969422,-0.3135894,0.04048887\N,0,1.20602
 94,-0.83660807,0.87371872\H,0,-2.19959326,1.06107464,-0.20458006\H,0,-
 2.51911668,-0.59442036,0.33870604\H,0,-2.46072435,-0.21388123,-1.42023

 Normal termination of Gaussian 16 at Wed Apr  9 03:40:49 2025.
