 Gaussian 16, Revision C.01,

 ----------------------------------------------------------------------
 #t hf aug-cc-pvdz symm=none int=(grid=ultrafine) guess=(read,tcheck) s
 table=(opt,rrhf)
 ----------------------------------------------------------------------
 -----
 title
 -----
 Symbolic Z-matrix:
 Charge =  0 Multiplicity = 1

 SCF Done:  E(RHF) =  -308.821771115     A.U. after   17 cycles

 1\1\GINC-SE135\Stability\RHF\Aug-CC-pVDZ\C6H12O1\OHZDE\09-Apr-2025\0\\
 #t hf aug-cc-pvdz symm=none int=(grid=ultrafine) guess=(read,tcheck) s
 table=(opt,rrhf)\\title\\0,1\C,0,-0.72265484,-1.71569627,-0.09646441\C
 ,0,-0.70006751,-0.24526509,-0.5747869\C,0,-1.67660961,0.56743177,0.121
 24677\C,0,0.05651385,1.9059476,0.88624549\O,0,0.84090681,0.75189743,1.
 04335649\C,0,0.75243311,0.3227358,-0.26777939\C,0,1.94214136,-0.477010
 12,-0.6835159\H,0,-1.68816706,-2.17619723,-0.30319978\H,0,0.04370246,-
 2.30974765,-0.59860239\H,0,-0.54408055,-1.76712392,0.97934049\H,0,-0.8

 Normal termination of Gaussian 16 at Wed Apr  9 17:36:04 2025.
 Gaussian 16:  ES64L-G16RevC.01  3-Jul-2019

 ----------------------------------------------------------------------
 #t hf aug-cc-pvdz iop(5/13=1,5/36=2,99/5=2) pseudo=read geom=check gue
 ss=(read,tcheck) scf=(maxcycle=1)
 ----------------------------------------------------------------------
 -----
 title
 -----
 Structure from the checkpoint file:  "Grambow2020_wb97xd3_006731_forward_mol1.chk"
 Charge =  0 Multiplicity = 1

                         Standard orientation:
 ---------------------------------------------------------------------
 Center     Atomic      Atomic             Coordinates (Angstroms)
 Number     Number       Type             X           Y           Z
 ---------------------------------------------------------------------
      1          6           0        1.672681   -1.006758    0.529176
      2          6           0        0.538913   -0.783395   -0.498514
      3          6           0       -0.574109   -1.685485   -0.284066
      4          6           0       -1.944009    0.159679    0.031072
      5          8           0       -0.890746    0.789884    0.713176
      6          6           0        0.030538    0.711375   -0.314519
      7          6           0        1.035829    1.813279   -0.259444
      8          1           0        2.086890   -2.010316    0.437984
      9          1           0        2.488337   -0.295579    0.383320
     10          1           0        1.292296   -0.886276    1.545386
     11          1           0        0.951806   -0.850487   -1.507267
     12          1           0       -0.793608   -1.998248    0.730069
     13          1           0       -0.891580   -2.368334   -1.063272
     14          1           0       -2.501964   -0.560341    0.626803
     15          1           0       -2.639929    0.926489   -0.324361
     16          1           0       -1.288727    0.157688   -1.027016
     17          1           0        1.541881    1.851720    0.713765
     18          1           0        1.787992    1.691476   -1.039514
     19          1           0        0.533511    2.770966   -0.403536
 ---------------------------------------------------------------------

 SCF Done:  E(RHF) =  -309.152108064     A.U. after    2 cycles

 The electronic state is 1-A.
 Alpha  occ. eigenvalues --  -20.55842 -11.30020 -11.29143 -11.24726 -11.23974
 Alpha  occ. eigenvalues --  -11.23409 -11.22584  -1.49641  -1.08793  -1.01015
 Alpha  occ. eigenvalues --   -0.93463  -0.90327  -0.83901  -0.75822  -0.68679
 Alpha  occ. eigenvalues --   -0.66978  -0.63503  -0.60346  -0.59128  -0.56952
 Alpha  occ. eigenvalues --   -0.54904  -0.53966  -0.52321  -0.50830  -0.49242
 Alpha  occ. eigenvalues --   -0.44167  -0.43363  -0.24076
 Alpha virt. eigenvalues --    0.02983   0.03662   0.03766   0.04251   0.05188
 Alpha virt. eigenvalues --    0.05842   0.06130   0.06526   0.07115   0.07346
 Alpha virt. eigenvalues --    0.09148   0.09596   0.09960   0.12289   0.12717

 Mulliken charges:
               1
     1  C   -0.062744
     2  C   -0.774392
     3  C    0.121806
     4  C    0.181173
     5  O   -1.405616
     6  C    0.515804
     7  C   -0.529651
     8  H    0.134822
     9  H    0.147310
    10  H    0.204525
    11  H    0.025996
    12  H    0.099709
    13  H   -0.082560
    14  H   -0.094252
    15  H   -0.070474
    16  H    0.963289
    17  H    0.295409
    18  H    0.219630
    19  H    0.110215
 Sum of Mulliken charges =  -0.00000

 Dipole moment (field-independent basis, Debye):
    X=              0.1969    Y=             -0.6001    Z=             -0.5897  Tot=              0.8641

 Test job not archived.
 1\1\GINC-SE135\SP\RHF\Aug-CC-pVDZ\C6H12O1\OHZDE\09-Apr-2025\0\\#t hf a
 ug-cc-pvdz iop(5/13=1,5/36=2,99/5=2) pseudo=read geom=check guess=(rea
 d,tcheck) scf=(maxcycle=1)\\title\\0,1\C,0,-0.72265484,-1.71569627,-0.
 09646441\C,0,-0.70006751,-0.24526509,-0.5747869\C,0,-1.67660961,0.5674
 3177,0.12124677\C,0,0.05651385,1.9059476,0.88624549\O,0,0.84090681,0.7
 5189743,1.04335649\C,0,0.75243311,0.3227358,-0.26777939\C,0,1.94214136
 ,-0.47701012,-0.6835159\H,0,-1.68816706,-2.17619723,-0.30319978\H,0,0.
 04370246,-2.30974765,-0.59860239\H,0,-0.54408055,-1.76712392,0.9793404

 Normal termination of Gaussian 16 at Wed Apr  9 17:36:12 2025.
