 Gaussian 16, Revision C.01,

 ----------------------------------------------------------------------
 #t hf aug-cc-pvdz symm=none int=(grid=ultrafine) guess=(read,tcheck) s
 table=(opt,rrhf)
 ----------------------------------------------------------------------
 -----
 title
 -----
 Symbolic Z-matrix:
 Charge =  0 Multiplicity = 1

 SCF Done:  E(RHF) =  -320.297014925     A.U. after   15 cycles
 Normal termination of Gaussian 16 at Wed Apr  9 18:30:26 2025.
 Gaussian 16:  ES64L-G16RevC.01  3-Jul-2019

 ----------------------------------------------------------------------
 #t hf aug-cc-pvdz iop(5/13=1,5/36=2,99/5=2) pseudo=read geom=check gue
 ss=(read,tcheck) scf=(maxcycle=1)
 ----------------------------------------------------------------------
 -----
 title
 -----
 Structure from the checkpoint file:  "Grambow2020_wb97xd3_007657_forward_mol1.chk"
 Charge =  0 Multiplicity = 1

                         Standard orientation:
 ---------------------------------------------------------------------
 Center     Atomic      Atomic             Coordinates (Angstroms)
 Number     Number       Type             X           Y           Z
 ---------------------------------------------------------------------
      1          7           0       -2.107889   -0.077484    0.596274
      2          6           0       -2.001938    0.147029   -0.566570
      3          6           0       -0.472067    0.047109   -0.154394
      4          6           0        0.287076   -1.075439   -0.089524
      5          8           0        1.580120   -0.741088    0.040338
      6          6           0        1.646582    0.614473    0.079971
      7          6           0        0.419493    1.159306   -0.023031
      8          1           0        0.044174   -2.123164   -0.127496
      9          1           0        2.632841    1.034560    0.181557
     10          1           0        0.162374    2.204829   -0.029396
 ---------------------------------------------------------------------

 SCF Done:  E(RHF) =  -320.613441243     A.U. after    2 cycles

 The electronic state is 1-A.
 Alpha  occ. eigenvalues --  -20.64024 -15.57690 -11.33211 -11.32080 -11.31528
 Alpha  occ. eigenvalues --  -11.28388 -11.26363  -1.58384  -1.31800  -1.11985
 Alpha  occ. eigenvalues --   -1.03956  -0.84442  -0.82377  -0.77850  -0.71286
 Alpha  occ. eigenvalues --   -0.66485  -0.64630  -0.62460  -0.60717  -0.59058
 Alpha  occ. eigenvalues --   -0.53780  -0.52300  -0.41141  -0.35270
 Alpha virt. eigenvalues --    0.03189   0.03976   0.04463   0.05555   0.08171
 Alpha virt. eigenvalues --    0.08228   0.09086   0.09738   0.10885   0.11746
 Alpha virt. eigenvalues --    0.12973   0.13320   0.13944   0.14521   0.15177

 Mulliken charges:
               1
     1  N    0.487991
     2  C   -0.355074
     3  C    0.512060
     4  C    0.432004
     5  O   -1.317129
     6  C    0.690862
     7  C   -0.072231
     8  H   -0.142085
     9  H   -0.105070
    10  H   -0.131327
 Sum of Mulliken charges =  -0.00000

 Dipole moment (field-independent basis, Debye):
    X=              2.7429    Y=              0.2033    Z=             -0.3360  Tot=              2.7709

 Test job not archived.
 1\1\GINC-SE131\SP\RHF\Aug-CC-pVDZ\C5H3N1O1\OHZDE\09-Apr-2025\0\\#t hf
 aug-cc-pvdz iop(5/13=1,5/36=2,99/5=2) pseudo=read geom=check guess=(re
 ad,tcheck) scf=(maxcycle=1)\\title\\0,1\N,0,2.33006505,-0.17722552,0.6
 0849404\C,0,2.19900772,-0.30983205,-0.56584795\C,0,0.69707734,-0.01852
 56,-0.14191005\C,0,0.10595805,1.19464603,-0.00257708\O,0,-1.22225498,1
 .04112153,0.11099662\C,0,-1.48209901,-0.29073909,0.06447747\C,0,-0.345
 03394,-0.99783039,-0.07802021\H,0,0.4963919,2.1971215,0.02527261\H,0,-
 2.5188013,-0.57102759,0.14312046\H,0,-0.24005382,-2.06683681,-0.152014

 Normal termination of Gaussian 16 at Wed Apr  9 18:30:29 2025.
