 Gaussian 16, Revision C.01,

 ----------------------------------------------------------------------
 #t hf aug-cc-pvdz symm=none int=(grid=ultrafine) guess=(read,tcheck) s
 table=(opt,rrhf)
 ----------------------------------------------------------------------
 -----
 title
 -----
 Symbolic Z-matrix:
 Charge =  0 Multiplicity = 1

 SCF Done:  E(RHF) =  -284.702510848     A.U. after   20 cycles
 Normal termination of Gaussian 16 at Wed Apr  9 03:21:39 2025.
 Gaussian 16:  ES64L-G16RevC.01  3-Jul-2019

 ----------------------------------------------------------------------
 #t hf aug-cc-pvdz iop(5/13=1,5/36=2,99/5=2) pseudo=read geom=check gue
 ss=(read,tcheck) scf=(maxcycle=1)
 ----------------------------------------------------------------------
 -----
 title
 -----
 Structure from the checkpoint file:  "Grambow2020_wb97xd3_006092_reverse_mol1.chk"
 Charge =  0 Multiplicity = 1

                         Standard orientation:
 ---------------------------------------------------------------------
 Center     Atomic      Atomic             Coordinates (Angstroms)
 Number     Number       Type             X           Y           Z
 ---------------------------------------------------------------------
      1          6           0        1.817200   -0.304952   -0.731954
      2          6           0        0.917991    0.020723    0.441003
      3          7           0        0.328478    1.272971    0.380734
      4          6           0       -0.297683   -0.855663    0.664003
      5          6           0       -1.427626   -0.562586   -0.105485
      6          8           0       -1.683885    0.523214   -0.615233
      7          1           0        1.244758   -0.220422   -1.656246
      8          1           0        2.214414   -1.317595   -0.652811
      9          1           0        2.646726    0.402831   -0.774167
     10          1           0        1.434990   -0.106792    1.411287
     11          1           0       -0.100509    1.468660    1.285989
     12          1           0       -0.268178   -1.669388    1.377304
     13          1           0       -2.059770   -1.438926   -0.340036
 ---------------------------------------------------------------------

 SCF Done:  E(RHF) =  -284.991586402     A.U. after    2 cycles

 The electronic state is 1-A.
 Alpha  occ. eigenvalues --  -20.52374 -15.58714 -11.31903 -11.30231 -11.26402
 Alpha  occ. eigenvalues --  -11.23749  -1.44937  -1.24583  -1.03694  -0.99182
 Alpha  occ. eigenvalues --   -0.85712  -0.77217  -0.73780  -0.67658  -0.62811
 Alpha  occ. eigenvalues --   -0.61285  -0.59837  -0.55972  -0.53713  -0.51153
 Alpha  occ. eigenvalues --   -0.49858  -0.40748  -0.32437
 Alpha virt. eigenvalues --   -0.02686   0.02684   0.03792   0.04363   0.04893
 Alpha virt. eigenvalues --    0.05952   0.06342   0.07393   0.10185   0.11561
 Alpha virt. eigenvalues --    0.12705   0.13542   0.13835   0.14797   0.15114

 Mulliken charges:
               1
     1  C   -0.257113
     2  C   -1.552478
     3  N    0.681265
     4  C    0.426664
     5  C    0.899991
     6  O   -1.169752
     7  H    0.243478
     8  H    0.199330
     9  H    0.155452
    10  H    0.178924
    11  H    0.249574
    12  H   -0.163984
    13  H    0.108648
 Sum of Mulliken charges =  -0.00000

 Dipole moment (field-independent basis, Debye):
    X=              2.0222    Y=             -2.9856    Z=              2.7717  Tot=              4.5482

 Test job not archived.
 1\1\GINC-SE015\SP\RHF\Aug-CC-pVDZ\C4H7N1O1\OHZDE\09-Apr-2025\0\\#t hf
 aug-cc-pvdz iop(5/13=1,5/36=2,99/5=2) pseudo=read geom=check guess=(re
 ad,tcheck) scf=(maxcycle=1)\\title\\0,1\C,0,-1.07058848,-0.49481352,1.
 15715417\C,0,-0.36501548,-0.58027181,-0.17900921\N,0,-0.9211808,0.2093
 1781,-1.17224187\C,0,1.08322313,-0.13959816,-0.24271243\C,0,1.31246609
 ,1.23410232,-0.36588034\O,0,0.52274276,2.05271634,-0.82488221\H,0,-1.0
 8504875,0.54396799,1.48862992\H,0,-0.56200847,-1.09937781,1.90904281\H
 ,0,-2.10123033,-0.83941144,1.05774985\H,0,-0.27051574,-1.62394616,-0.5

 Normal termination of Gaussian 16 at Wed Apr  9 03:21:43 2025.
