 Gaussian 16, Revision C.01,

 ----------------------------------------------------------------------
 #t hf aug-cc-pvdz symm=none int=(grid=ultrafine) guess=(read,tcheck) s
 table=(opt,rrhf)
 ----------------------------------------------------------------------
 -----
 title
 -----
 Symbolic Z-matrix:
 Charge =  0 Multiplicity = 1

 SCF Done:  E(RHF) =  -307.695856620     A.U. after   15 cycles

 1\1\GINC-SE041\Stability\RHF\Aug-CC-pVDZ\C6H10O1\OHZDE\09-Apr-2025\0\\
 #t hf aug-cc-pvdz symm=none int=(grid=ultrafine) guess=(read,tcheck) s
 table=(opt,rrhf)\\title\\0,1\C,0,1.94060027,0.22343492,-0.71788505\C,0
 ,0.62166252,0.19469826,-0.01466756\C,0,0.08494633,-1.11069582,0.611059
 53\C,0,-1.22155566,-0.94085908,-0.20067999\C,0,-0.77090404,0.47267771,
 -0.62852803\C,0,-0.79438511,1.61461374,0.39335599\O,0,0.43639159,1.325
 00484,0.88019091\H,0,2.75187763,0.07502904,-0.00178183\H,0,1.9889491,-
 0.57625442,-1.45877797\H,0,2.08798818,1.17971353,-1.22098454\H,0,0.666

 Normal termination of Gaussian 16 at Wed Apr  9 03:34:40 2025.
 Gaussian 16:  ES64L-G16RevC.01  3-Jul-2019

 ----------------------------------------------------------------------
 #t hf aug-cc-pvdz iop(5/13=1,5/36=2,99/5=2) pseudo=read geom=check gue
 ss=(read,tcheck) scf=(maxcycle=1)
 ----------------------------------------------------------------------
 -----
 title
 -----
 Structure from the checkpoint file:  "Grambow2020_wb97xd3_007034_forward_mol1.chk"
 Charge =  0 Multiplicity = 1

                         Standard orientation:
 ---------------------------------------------------------------------
 Center     Atomic      Atomic             Coordinates (Angstroms)
 Number     Number       Type             X           Y           Z
 ---------------------------------------------------------------------
      1          6           0       -2.023102   -0.210509    0.303727
      2          6           0       -0.583091   -0.048988   -0.063992
      3          6           0        0.166140   -1.154174   -0.839148
      4          6           0        1.247573   -1.171599    0.267610
      5          6           0        0.618165    0.088031    0.901176
      6          6           0        0.787309    1.445789    0.210742
      7          8           0       -0.283614    1.268455   -0.600040
      8          1           0       -2.645087   -0.189352   -0.593873
      9          1           0       -2.178155   -1.167943    0.803768
     10          1           0       -2.342594    0.591321    0.970282
     11          1           0       -0.387418   -2.082855   -0.972593
     12          1           0        0.514196   -0.806828   -1.811722
     13          1           0        2.288991   -1.098286   -0.040106
     14          1           0        1.131009   -2.030635    0.930955
     15          1           0        0.536977    0.138491    1.985584
     16          1           0        2.195466    1.036847   -0.813580
     17          1           0        1.877553    1.770305   -0.339080
 ---------------------------------------------------------------------

 SCF Done:  E(RHF) =  -308.020767003     A.U. after    2 cycles

 The electronic state is 1-A.
 Alpha  occ. eigenvalues --  -20.57398 -11.31436 -11.30521 -11.24676 -11.24627
 Alpha  occ. eigenvalues --  -11.23965 -11.23953  -1.51906  -1.14349  -1.02142
 Alpha  occ. eigenvalues --   -0.96004  -0.87288  -0.84765  -0.72155  -0.69282
 Alpha  occ. eigenvalues --   -0.68558  -0.66917  -0.60146  -0.59042  -0.57429
 Alpha  occ. eigenvalues --   -0.55298  -0.52023  -0.48904  -0.48169  -0.46339
 Alpha  occ. eigenvalues --   -0.44135  -0.31489
 Alpha virt. eigenvalues --    0.03137   0.03665   0.03757   0.04315   0.05857
 Alpha virt. eigenvalues --    0.06137   0.06395   0.06932   0.07241   0.09831
 Alpha virt. eigenvalues --    0.11004   0.11976   0.12574   0.13043   0.13756

 Mulliken charges:
               1
     1  C   -0.434752
     2  C    0.773322
     3  C    0.108686
     4  C   -0.054812
     5  C   -0.174174
     6  C    0.382713
     7  O   -1.453812
     8  H    0.249256
     9  H    0.245543
    10  H    0.216499
    11  H    0.010305
    12  H    0.081419
    13  H   -0.000328
    14  H    0.087978
    15  H   -0.155313
    16  H   -0.069599
    17  H    0.187067
 Sum of Mulliken charges =  -0.00000

 Dipole moment (field-independent basis, Debye):
    X=             -0.7527    Y=             -2.8252    Z=              0.7762  Tot=              3.0250

 Test job not archived.
 1\1\GINC-SE041\SP\RHF\Aug-CC-pVDZ\C6H10O1\OHZDE\09-Apr-2025\0\\#t hf a
 ug-cc-pvdz iop(5/13=1,5/36=2,99/5=2) pseudo=read geom=check guess=(rea
 d,tcheck) scf=(maxcycle=1)\\title\\0,1\C,0,1.94060027,0.22343492,-0.71
 788505\C,0,0.62166252,0.19469826,-0.01466756\C,0,0.08494633,-1.1106958
 2,0.61105953\C,0,-1.22155566,-0.94085908,-0.20067999\C,0,-0.77090404,0
 .47267771,-0.62852803\C,0,-0.79438511,1.61461374,0.39335599\O,0,0.4363
 9159,1.32500484,0.88019091\H,0,2.75187763,0.07502904,-0.00178183\H,0,1
 .9889491,-0.57625442,-1.45877797\H,0,2.08798818,1.17971353,-1.22098454

 Normal termination of Gaussian 16 at Wed Apr  9 03:34:47 2025.
