 Gaussian 16, Revision C.01,

 ----------------------------------------------------------------------
 #t hf aug-cc-pvdz symm=none int=(grid=ultrafine) guess=(read,tcheck) s
 table=(opt,rrhf)
 ----------------------------------------------------------------------
 -----
 title
 -----
 Symbolic Z-matrix:
 Charge =  0 Multiplicity = 1

 SCF Done:  E(RHF) =  -268.683820796     A.U. after   15 cycles
 Normal termination of Gaussian 16 at Wed Apr  9 16:56:12 2025.
 Gaussian 16:  ES64L-G16RevC.01  3-Jul-2019

 ----------------------------------------------------------------------
 #t hf aug-cc-pvdz iop(5/13=1,5/36=2,99/5=2) pseudo=read geom=check gue
 ss=(read,tcheck) scf=(maxcycle=1)
 ----------------------------------------------------------------------
 -----
 title
 -----
 Structure from the checkpoint file:  "Grambow2020_wb97xd3_006186_forward_mol1.chk"
 Charge =  0 Multiplicity = 1

                         Standard orientation:
 ---------------------------------------------------------------------
 Center     Atomic      Atomic             Coordinates (Angstroms)
 Number     Number       Type             X           Y           Z
 ---------------------------------------------------------------------
      1          8           0        1.800303   -0.720282    0.350794
      2          6           0        0.665529   -0.176340   -0.190613
      3          6           0        0.473996    1.269654   -0.519652
      4          6           0       -0.299945    0.636566    0.605351
      5          6           0       -1.672179    0.080542    0.297873
      6          6           0       -1.276006   -1.084821   -0.609788
      7          1           0        2.476293   -0.777872   -0.328829
      8          1           0        1.288011    1.915046   -0.216905
      9          1           0       -0.033045    1.541977   -1.437481
     10          1           0       -0.030725    0.926648    1.612535
     11          1           0       -2.168407   -0.253238    1.211616
     12          1           0       -2.319830    0.804382   -0.202323
     13          1           0       -1.056601   -1.937489    0.053826
     14          1           0        0.093507   -0.810808   -0.997816
 ---------------------------------------------------------------------

 SCF Done:  E(RHF) =  -268.964521929     A.U. after    2 cycles

 The electronic state is 1-A.
 Alpha  occ. eigenvalues --  -20.57766 -11.31313 -11.26237 -11.25361 -11.24736
 Alpha  occ. eigenvalues --  -11.23827  -1.48824  -1.18671  -1.01234  -0.88010
 Alpha  occ. eigenvalues --   -0.83430  -0.75571  -0.72692  -0.66762  -0.65198
 Alpha  occ. eigenvalues --   -0.59214  -0.56820  -0.55713  -0.52869  -0.50965
 Alpha  occ. eigenvalues --   -0.43220  -0.41442  -0.33180
 Alpha virt. eigenvalues --    0.03307   0.03711   0.04182   0.04762   0.06058
 Alpha virt. eigenvalues --    0.06400   0.07005   0.08283   0.09714   0.10800
 Alpha virt. eigenvalues --    0.12018   0.13178   0.14177   0.14608   0.15333

 Mulliken charges:
               1
     1  O   -1.413051
     2  C    1.036767
     3  C    0.217390
     4  C    0.269711
     5  C   -0.243168
     6  C   -0.566298
     7  H    0.260239
     8  H   -0.126034
     9  H   -0.095322
    10  H   -0.135598
    11  H    0.113896
    12  H    0.121042
    13  H    0.243506
    14  H    0.316919
 Sum of Mulliken charges =   0.00000

 Dipole moment (field-independent basis, Debye):
    X=              1.3057    Y=              1.2885    Z=              0.5749  Tot=              1.9224

 Test job not archived.
 1\1\GINC-SE229\SP\RHF\Aug-CC-pVDZ\C5H8O1\OHZDE\09-Apr-2025\0\\#t hf au
 g-cc-pvdz iop(5/13=1,5/36=2,99/5=2) pseudo=read geom=check guess=(read
 ,tcheck) scf=(maxcycle=1)\\title\\0,1\O,0,1.29829302,0.81296853,1.5216
 7043\C,0,0.75011987,0.20244131,0.42464267\C,0,0.71205429,0.77878594,-0
 .9545701\C,0,-0.55741399,0.61786257,-0.1621238\C,0,-1.35618668,-0.6520
 7591,-0.35173143\C,0,-0.38136631,-1.6586246,0.26101351\H,0,2.25546498,
 0.76002206,1.46524388\H,0,1.08455504,1.79165521,-1.03296604\H,0,0.9035
 378,0.13430175,-1.80406039\H,0,-1.02841376,1.52151662,0.20203775\H,0,-

 Normal termination of Gaussian 16 at Wed Apr  9 16:56:16 2025.
