 Gaussian 16, Revision C.01,

 ----------------------------------------------------------------------
 #t hf aug-cc-pvdz symm=none int=(grid=ultrafine) guess=(read,tcheck) s
 table=(opt,rrhf)
 ----------------------------------------------------------------------
 -----
 title
 -----
 Symbolic Z-matrix:
 Charge =  0 Multiplicity = 1

 SCF Done:  E(RHF) =  -286.702506275     A.U. after   14 cycles
 Normal termination of Gaussian 16 at Wed Apr  9 19:18:02 2025.
 Gaussian 16:  ES64L-G16RevC.01  3-Jul-2019

 ----------------------------------------------------------------------
 #t hf aug-cc-pvdz iop(5/13=1,5/36=2,99/5=2) pseudo=read geom=check gue
 ss=(read,tcheck) scf=(maxcycle=1)
 ----------------------------------------------------------------------
 -----
 title
 -----
 Structure from the checkpoint file:  "Grambow2020_wb97xd3_009263_forward_mol1.chk"
 Charge =  0 Multiplicity = 1

                         Standard orientation:
 ---------------------------------------------------------------------
 Center     Atomic      Atomic             Coordinates (Angstroms)
 Number     Number       Type             X           Y           Z
 ---------------------------------------------------------------------
      1          6           0        2.132922   -0.187402   -0.230603
      2          6           0        0.656658   -0.254388    0.004846
      3          6           0       -0.118600    0.534651    1.031719
      4          6           0       -0.644718    1.332584   -0.162070
      5          7           0       -0.395017    0.130733   -1.019015
      6          6           0       -1.351723   -0.823040   -0.396662
      7          6           0       -0.697843   -0.861881    1.006554
      8          1           0        2.407290    0.830184   -0.517033
      9          1           0        2.434761   -0.865669   -1.028478
     10          1           0        2.673670   -0.445868    0.680471
     11          1           0        0.294809    0.936581    1.948664
     12          1           0       -1.676172    1.692313   -0.162994
     13          1           0        0.025914    2.140802   -0.454046
     14          1           0       -1.317232   -1.787352   -0.902640
     15          1           0       -2.380485   -0.456264   -0.390720
     16          1           0        0.442397   -1.402997    0.437173
 ---------------------------------------------------------------------

 SCF Done:  E(RHF) =  -287.006093866     A.U. after    2 cycles

 The electronic state is 1-A.
 Alpha  occ. eigenvalues --  -15.50865 -11.31247 -11.27090 -11.26200 -11.25681
 Alpha  occ. eigenvalues --  -11.25597 -11.24722  -1.32421  -1.06467  -1.01556
 Alpha  occ. eigenvalues --   -0.99895  -0.88846  -0.77285  -0.73554  -0.69450
 Alpha  occ. eigenvalues --   -0.65312  -0.63311  -0.61477  -0.58895  -0.55484
 Alpha  occ. eigenvalues --   -0.52987  -0.51633  -0.49414  -0.46371  -0.41081
 Alpha  occ. eigenvalues --   -0.34397
 Alpha virt. eigenvalues --    0.03143   0.03781   0.04092   0.04689   0.05267
 Alpha virt. eigenvalues --    0.05450   0.06321   0.07664   0.09258   0.10063
 Alpha virt. eigenvalues --    0.10562   0.12335   0.12796   0.13075   0.14084

 Mulliken charges:
               1
     1  C   -0.549438
     2  C   -1.324216
     3  C    0.801175
     4  C    0.012946
     5  N    0.563809
     6  C   -0.123926
     7  C   -0.458906
     8  H    0.262856
     9  H    0.218940
    10  H    0.243033
    11  H   -0.171786
    12  H    0.012308
    13  H   -0.050454
    14  H   -0.004822
    15  H    0.073424
    16  H    0.495058
 Sum of Mulliken charges =   0.00000

 Dipole moment (field-independent basis, Debye):
    X=              1.4747    Y=              1.3889    Z=             -0.0828  Tot=              2.0274

 Test job not archived.
 1\1\GINC-SE362\SP\RHF\Aug-CC-pVDZ\C6H9N1\OHZDE\09-Apr-2025\0\\#t hf au
 g-cc-pvdz iop(5/13=1,5/36=2,99/5=2) pseudo=read geom=check guess=(read
 ,tcheck) scf=(maxcycle=1)\\title\\0,1\C,0,2.00301234,0.14055704,0.0633
 1128\C,0,0.5433914,-0.18694358,0.10240901\C,0,-0.49972574,0.49249622,0
 .95583973\C,0,-0.97909095,1.12264757,-0.35249819\N,0,-0.3995429,-0.051
 18176,-1.07872217\C,0,-1.25323973,-1.13507838,-0.5231491\C,0,-0.813767
 56,-0.98663583,0.95431886\H,0,2.13234644,1.17675914,-0.2566271\H,0,2.5
 3242069,-0.5068872,-0.6354739\H,0,2.44260071,0.02943752,1.05511976\H,0

 Normal termination of Gaussian 16 at Wed Apr  9 19:18:07 2025.
