 Gaussian 16, Revision C.01,

 ----------------------------------------------------------------------
 #t hf aug-cc-pvdz symm=none int=(grid=ultrafine) guess=(read,tcheck) s
 table=(opt,rrhf)
 ----------------------------------------------------------------------
 -----
 title
 -----
 Symbolic Z-matrix:
 Charge =  0 Multiplicity = 1

 SCF Done:  E(RHF) =  -339.293092005     A.U. after   17 cycles
 Normal termination of Gaussian 16 at Wed Apr  9 15:50:35 2025.
 Gaussian 16:  ES64L-G16RevC.01  3-Jul-2019

 ----------------------------------------------------------------------
 #t hf aug-cc-pvdz iop(5/13=1,5/36=2,99/5=2) pseudo=read geom=check gue
 ss=(read,tcheck) scf=(maxcycle=1)
 ----------------------------------------------------------------------
 -----
 title
 -----
 Structure from the checkpoint file:  "Grambow2020_b97d3_006818_reverse_mol2.chk"
 Charge =  0 Multiplicity = 1

                         Standard orientation:
 ---------------------------------------------------------------------
 Center     Atomic      Atomic             Coordinates (Angstroms)
 Number     Number       Type             X           Y           Z
 ---------------------------------------------------------------------
      1          8           0       -2.486738   -0.703604   -0.515402
      2          6           0       -1.855359   -0.275055    0.452143
      3          6           0       -0.456487    0.129000    0.283434
      4          8           0       -0.232423    1.340347   -0.123075
      5          6           0        2.200630    0.100793   -0.105065
      6          8           0        2.983771   -0.729732    0.010862
      7          1           0       -2.214844   -0.368115    1.507293
      8          1           0        0.765255    1.383596   -0.269439
 ---------------------------------------------------------------------

 SCF Done:  E(RHF) =  -339.611806780     A.U. after    2 cycles

 The electronic state is 1-A.
 Alpha  occ. eigenvalues --  -20.67096 -20.65263 -20.55962 -11.40190 -11.36085
 Alpha  occ. eigenvalues --  -11.34476  -1.60662  -1.56564  -1.47197  -0.99572
 Alpha  occ. eigenvalues --   -0.82798  -0.81817  -0.73514  -0.70958  -0.65657
 Alpha  occ. eigenvalues --   -0.64360  -0.64164  -0.59949  -0.57753  -0.53879
 Alpha  occ. eigenvalues --   -0.45712  -0.38167
 Alpha virt. eigenvalues --    0.03439   0.04340   0.05711   0.06838   0.08006
 Alpha virt. eigenvalues --    0.08635   0.09146   0.10816   0.12376   0.12966
 Alpha virt. eigenvalues --    0.13868   0.14276   0.15051   0.16076   0.16720

 Mulliken charges:
               1
     1  O   -1.051498
     2  C    1.094638
     3  C    0.258546
     4  O   -1.121147
     5  C    0.613645
     6  O   -0.694358
     7  H    0.227340
     8  H    0.672835
 Sum of Mulliken charges =   0.00000

 Dipole moment (field-independent basis, Debye):
    X=              2.2931    Y=              1.9579    Z=              1.7741  Tot=              3.4985

 Test job not archived.
 1\1\GINC-SE129\SP\RHF\Aug-CC-pVDZ\C3H2O3\OHZDE\09-Apr-2025\0\\#t hf au
 g-cc-pvdz iop(5/13=1,5/36=2,99/5=2) pseudo=read geom=check guess=(read
 ,tcheck) scf=(maxcycle=1)\\title\\0,1\O,0,-2.36973873,0.32737844,0.898
 53591\C,0,-1.28743501,0.90817925,0.79991777\C,0,-0.17827149,0.25932358
 ,0.09471652\O,0,-0.1265872,0.40448909,-1.19333355\C,0,1.83669032,-1.38
 757635,-0.56834413\O,0,2.49834636,-2.08197922,0.06136744\H,0,-1.024328
 29,1.8174027,1.39600395\H,0,0.63343704,-0.18955349,-1.49020391\\Versio
 n=ES64L-G16RevC.01\State=1-A\HF=-339.6118068\RMSD=9.413e-03\Dipole=1.1

 Normal termination of Gaussian 16 at Wed Apr  9 15:50:37 2025.
