 Gaussian 16, Revision C.01,

 ----------------------------------------------------------------------
 #t hf aug-cc-pvdz symm=none int=(grid=ultrafine) guess=(read,tcheck) s
 table=(opt,rrhf)
 ----------------------------------------------------------------------
 -----
 title
 -----
 Symbolic Z-matrix:
 Charge =  0 Multiplicity = 1

 SCF Done:  E(RHF) =  -286.785714727     A.U. after   13 cycles
 Normal termination of Gaussian 16 at Wed Apr  9 18:29:32 2025.
 Gaussian 16:  ES64L-G16RevC.01  3-Jul-2019

 ----------------------------------------------------------------------
 #t hf aug-cc-pvdz iop(5/13=1,5/36=2,99/5=2) pseudo=read geom=check gue
 ss=(read,tcheck) scf=(maxcycle=1)
 ----------------------------------------------------------------------
 -----
 title
 -----
 Structure from the checkpoint file:  "Grambow2020_wb97xd3_007627_forward_mol2.chk"
 Charge =  0 Multiplicity = 1

                         Standard orientation:
 ---------------------------------------------------------------------
 Center     Atomic      Atomic             Coordinates (Angstroms)
 Number     Number       Type             X           Y           Z
 ---------------------------------------------------------------------
      1          6           0        2.061677   -0.702110    0.021946
      2          6           0        0.702954   -0.096281   -0.126564
      3          6           0        0.442586    1.304113   -0.573433
      4          6           0       -0.026950    0.863046    0.781321
      5          6           0       -1.277933   -0.057699    0.737008
      6          7           0       -1.787132   -0.322384   -0.586005
      7          6           0       -0.576609   -0.990830   -0.173881
      8          1           0        2.063491   -1.475962    0.794034
      9          1           0        2.799411    0.051366    0.303961
     10          1           0        2.390971   -1.162928   -0.913369
     11          1           0        1.317915    1.942220   -0.543443
     12          1           0       -0.233360    1.565021   -1.380590
     13          1           0        0.335477    1.319942    1.691369
     14          1           0       -1.909845   -0.257960    1.590994
     15          1           0       -1.665080    0.426068   -1.254872
     16          1           0       -0.543403   -2.072520   -0.184433
 ---------------------------------------------------------------------

 SCF Done:  E(RHF) =  -287.095242593     A.U. after    2 cycles

 The electronic state is 1-A.
 Alpha  occ. eigenvalues --  -15.49847 -11.26322 -11.26025 -11.24560 -11.24215
 Alpha  occ. eigenvalues --  -11.23848 -11.23314  -1.29974  -1.14840  -0.98275
 Alpha  occ. eigenvalues --   -0.93674  -0.86003  -0.80360  -0.73690  -0.70881
 Alpha  occ. eigenvalues --   -0.69307  -0.61540  -0.58550  -0.57483  -0.55108
 Alpha  occ. eigenvalues --   -0.53117  -0.48928  -0.47888  -0.44421  -0.42786
 Alpha  occ. eigenvalues --   -0.34335
 Alpha virt. eigenvalues --    0.03489   0.03778   0.03908   0.04099   0.05694
 Alpha virt. eigenvalues --    0.05991   0.06319   0.07032   0.08726   0.09659
 Alpha virt. eigenvalues --    0.12570   0.13082   0.13307   0.13698   0.14073

 Mulliken charges:
               1
     1  C   -0.660193
     2  C    0.334154
     3  C    0.148962
     4  C    0.601850
     5  C   -0.399894
     6  N    0.756910
     7  C   -0.632842
     8  H    0.229810
     9  H    0.151437
    10  H    0.224717
    11  H   -0.091447
    12  H   -0.316707
    13  H   -0.276734
    14  H   -0.196964
    15  H    0.364856
    16  H   -0.237917
 Sum of Mulliken charges =  -0.00000

 Dipole moment (field-independent basis, Debye):
    X=              2.0142    Y=              0.7187    Z=              0.5925  Tot=              2.2191

 Test job not archived.
 1\1\GINC-SE115\SP\RHF\Aug-CC-pVDZ\C6H9N1\OHZDE\09-Apr-2025\0\\#t hf au
 g-cc-pvdz iop(5/13=1,5/36=2,99/5=2) pseudo=read geom=check guess=(read
 ,tcheck) scf=(maxcycle=1)\\title\\0,1\C,0,1.5864751,-0.65493113,0.9153
 0301\C,0,0.43703211,-0.18706305,0.08158165\C,0,0.55353149,0.74988747,-
 1.07476624\C,0,-0.29208387,1.13401384,0.1032584\C,0,-1.64750615,0.3769
 595,0.16955335\N,0,-1.87506251,-0.55099279,-0.91064464\C,0,-0.94008738
 ,-0.92294353,0.1235256\H,0,1.26430727,-0.88181909,1.93495936\H,0,2.365
 50143,0.10741499,0.97409091\H,0,2.03251121,-1.56123705,0.49665808\H,0,

 Normal termination of Gaussian 16 at Wed Apr  9 18:29:38 2025.
