 Gaussian 16, Revision C.01,

 ----------------------------------------------------------------------
 #t hf aug-cc-pvdz symm=none int=(grid=ultrafine) guess=(read,tcheck) s
 table=(opt,rrhf)
 ----------------------------------------------------------------------
 -----
 title
 -----
 Symbolic Z-matrix:
 Charge =  0 Multiplicity = 1

 SCF Done:  E(RHF) =  -299.596126089     A.U. after   15 cycles
 Normal termination of Gaussian 16 at Wed Apr  9 03:08:41 2025.
 Gaussian 16:  ES64L-G16RevC.01  3-Jul-2019

 ----------------------------------------------------------------------
 #t hf aug-cc-pvdz iop(5/13=1,5/36=2,99/5=2) pseudo=read geom=check gue
 ss=(read,tcheck) scf=(maxcycle=1)
 ----------------------------------------------------------------------
 -----
 title
 -----
 Structure from the checkpoint file:  "Grambow2020_b97d3_006604_reverse_mol2.chk"
 Charge =  0 Multiplicity = 1

                         Standard orientation:
 ---------------------------------------------------------------------
 Center     Atomic      Atomic             Coordinates (Angstroms)
 Number     Number       Type             X           Y           Z
 ---------------------------------------------------------------------
      1          6           0        2.099335   -0.458592   -0.000136
      2          6           0        0.771124    0.226872   -0.000009
      3          7           0        0.545376    1.460779    0.000178
      4          6           0       -2.584965    0.098956   -0.000354
      5          7           0       -1.483758   -0.362949    0.000276
      6          8           0       -0.247173   -0.837021    0.000113
      7          1           0        2.886464    0.300116   -0.003685
      8          1           0        2.198782   -1.100794   -0.885508
      9          1           0        2.201686   -1.095699    0.888492
     10          1           0       -0.453828    1.704320   -0.000384
 ---------------------------------------------------------------------

 SCF Done:  E(RHF) =  -299.888632365     A.U. after    2 cycles

 The electronic state is 1-A.
 Alpha  occ. eigenvalues --  -20.68570 -15.61454 -15.52705 -11.39368 -11.32249
 Alpha  occ. eigenvalues --  -11.27742  -1.60269  -1.26726  -1.23967  -1.04839
 Alpha  occ. eigenvalues --   -0.90205  -0.80601  -0.74935  -0.71653  -0.64177
 Alpha  occ. eigenvalues --   -0.62058  -0.60353  -0.54554  -0.51866  -0.51042
 Alpha  occ. eigenvalues --   -0.50101  -0.46861
 Alpha virt. eigenvalues --    0.03111   0.04886   0.05216   0.05485   0.07789
 Alpha virt. eigenvalues --    0.08998   0.10068   0.11339   0.11708   0.11834
 Alpha virt. eigenvalues --    0.13080   0.13798   0.14130   0.15023   0.15768

 Mulliken charges:
               1
     1  C   -0.434323
     2  C   -0.097448
     3  N    0.571772
     4  C   -0.451344
     5  N    0.811527
     6  O   -1.267430
     7  H    0.195386
     8  H    0.248190
     9  H    0.248611
    10  H    0.175058
 Sum of Mulliken charges =  -0.00000

 Dipole moment (field-independent basis, Debye):
    X=              2.6660    Y=             -1.5681    Z=             -0.0013  Tot=              3.0930

 Test job not archived.
 1\1\GINC-SE092\SP\RHF\Aug-CC-pVDZ\C3H4N2O1\OHZDE\09-Apr-2025\0\\#t hf
 aug-cc-pvdz iop(5/13=1,5/36=2,99/5=2) pseudo=read geom=check guess=(re
 ad,tcheck) scf=(maxcycle=1)\\title\\0,1\C,0,-1.5791976,0.07158764,0.06
 266691\C,0,-0.09643283,0.19094514,0.20815644\N,0,0.53913338,0.91890375
 ,1.00791845\C,0,3.01175415,-0.68568327,-0.71401149\N,0,1.81893665,-0.7
 1672214,-0.76131793\O,0,0.49478866,-0.72396488,-0.7829008\H,0,-2.05808
 151,0.73594019,0.78691045\H,0,-1.89933296,-0.9638368,0.24044616\H,0,-1
 .88769432,0.34716591,-0.9546472\H,0,1.56119438,0.83589647,0.92903801\\

 Normal termination of Gaussian 16 at Wed Apr  9 03:08:45 2025.
