 Gaussian 16, Revision C.01,

 ----------------------------------------------------------------------
 #t hf aug-cc-pvdz symm=none int=(grid=ultrafine) guess=(read,tcheck) s
 table=(opt,rrhf)
 ----------------------------------------------------------------------
 -----
 title
 -----
 Symbolic Z-matrix:
 Charge =  0 Multiplicity = 1

 SCF Done:  E(RHF) =  -305.614235722     A.U. after   16 cycles
 Normal termination of Gaussian 16 at Wed Apr  9 17:00:13 2025.
 Gaussian 16:  ES64L-G16RevC.01  3-Jul-2019

 ----------------------------------------------------------------------
 #t hf aug-cc-pvdz iop(5/13=1,5/36=2,99/5=2) pseudo=read geom=check gue
 ss=(read,tcheck) scf=(maxcycle=1)
 ----------------------------------------------------------------------
 -----
 title
 -----
 Structure from the checkpoint file:  "Grambow2020_wb97xd3_006218_reverse_mol1.chk"
 Charge =  0 Multiplicity = 1

                         Standard orientation:
 ---------------------------------------------------------------------
 Center     Atomic      Atomic             Coordinates (Angstroms)
 Number     Number       Type             X           Y           Z
 ---------------------------------------------------------------------
      1          6           0        0.323282    1.417612    0.337884
      2          8           0        1.379795    0.733751   -0.307452
      3          6           0        1.006075   -0.549868   -0.468142
      4          6           0        0.366122   -1.295128    0.729673
      5          6           0       -0.462090   -0.806962   -0.363742
      6          8           0       -2.115021    0.266742   -0.008106
      7          1           0        0.317374    1.243065    1.422349
      8          1           0       -1.278904    0.890213    0.069460
      9          1           0        0.454545    2.482890    0.143337
     10          1           0        1.616967   -1.089933   -1.185500
     11          1           0        0.451089   -0.720808    1.644524
     12          1           0        0.444977   -2.367895    0.872809
     13          1           0       -1.006996   -1.495436   -0.992515
     14          1           0       -2.517571    0.460031   -0.864037
 ---------------------------------------------------------------------

 SCF Done:  E(RHF) =  -305.931833533     A.U. after    2 cycles

 The electronic state is 1-A.
 Alpha  occ. eigenvalues --  -20.56695 -20.54788 -11.35300 -11.32658 -11.26807
 Alpha  occ. eigenvalues --  -11.22495  -1.48607  -1.44109  -1.17141  -0.91583
 Alpha  occ. eigenvalues --   -0.84926  -0.79474  -0.73411  -0.71945  -0.66354
 Alpha  occ. eigenvalues --   -0.62164  -0.58547  -0.58069  -0.57342  -0.50840
 Alpha  occ. eigenvalues --   -0.50207  -0.47046  -0.39070  -0.28841
 Alpha virt. eigenvalues --    0.02661   0.03577   0.04099   0.04320   0.05586
 Alpha virt. eigenvalues --    0.06510   0.07019   0.08434   0.09453   0.10671
 Alpha virt. eigenvalues --    0.11391   0.12575   0.13556   0.14348   0.15137

 Mulliken charges:
               1
     1  C   -0.215884
     2  O   -1.369348
     3  C    1.516958
     4  C    0.095476
     5  C    0.305267
     6  O   -1.127214
     7  H    0.072493
     8  H    1.016151
     9  H   -0.172686
    10  H   -0.110150
    11  H    0.007469
    12  H   -0.118527
    13  H   -0.196068
    14  H    0.296064
 Sum of Mulliken charges =   0.00000

 Dipole moment (field-independent basis, Debye):
    X=             -0.9156    Y=             -3.2428    Z=             -1.3231  Tot=              3.6201

 Test job not archived.
 1\1\GINC-SE162\SP\RHF\Aug-CC-pVDZ\C4H8O2\OHZDE\09-Apr-2025\0\\#t hf au
 g-cc-pvdz iop(5/13=1,5/36=2,99/5=2) pseudo=read geom=check guess=(read
 ,tcheck) scf=(maxcycle=1)\\title\\0,1\C,0,1.21411812,-0.12110228,-0.90
 909501\O,0,0.29023225,-1.16533228,-1.14650381\C,0,-0.74062813,-1.00881
 928,-0.29445073\C,0,-0.43736545,-0.71638402,1.19626295\C,0,-0.87214622
 ,0.35215374,0.30801266\O,0,0.11594911,2.09231053,0.22420188\H,0,1.8528
 2073,-0.32228783,-0.03837728\H,0,0.62623564,1.38131642,-0.34844047\H,0
 ,1.83626622,-0.02442225,-1.79986977\H,0,-1.61974725,-1.58309365,-0.571

 Normal termination of Gaussian 16 at Wed Apr  9 17:00:17 2025.
