 Gaussian 16, Revision C.01,

 ----------------------------------------------------------------------
 #t hf aug-cc-pvdz symm=none int=(grid=ultrafine) guess=(read,tcheck) s
 table=(opt,rrhf)
 ----------------------------------------------------------------------
 -----
 title
 -----
 Symbolic Z-matrix:
 Charge =  0 Multiplicity = 1

 SCF Done:  E(RHF) =  -343.573856049     A.U. after   14 cycles
 Normal termination of Gaussian 16 at Wed Apr  9 18:14:15 2025.
 Gaussian 16:  ES64L-G16RevC.01  3-Jul-2019

 ----------------------------------------------------------------------
 #t hf aug-cc-pvdz iop(5/13=1,5/36=2,99/5=2) pseudo=read geom=check gue
 ss=(read,tcheck) scf=(maxcycle=1)
 ----------------------------------------------------------------------
 -----
 title
 -----
 Structure from the checkpoint file:  "Grambow2020_wb97xd3_007217_reverse_mol1.chk"
 Charge =  0 Multiplicity = 1

                         Standard orientation:
 ---------------------------------------------------------------------
 Center     Atomic      Atomic             Coordinates (Angstroms)
 Number     Number       Type             X           Y           Z
 ---------------------------------------------------------------------
      1          8           0        2.822147   -0.382437    0.099565
      2          6           0        1.621469    0.184080    0.008542
      3          6           0        0.452904   -0.557563   -0.172880
      4          6           0       -1.828049   -0.557993    0.809287
      5          6           0       -2.033875   -0.406479   -0.659625
      6          6           0       -0.789848    0.237472   -0.041831
      7          8           0       -0.613132    1.519080    0.045485
      8          1           0        3.506982    0.291389    0.087496
      9          1           0        1.023222    0.006231   -1.192550
     10          1           0        1.439409    1.251148    0.173606
     11          1           0        0.506926   -1.635056   -0.291306
     12          1           0       -1.609906   -1.540956    1.209468
     13          1           0       -2.374264    0.101148    1.469928
     14          1           0       -2.753240    0.326723   -0.997003
     15          1           0       -1.946855   -1.290883   -1.280995
 ---------------------------------------------------------------------

 SCF Done:  E(RHF) =  -343.929091434     A.U. after    2 cycles

 The electronic state is 1-A.
 Alpha  occ. eigenvalues --  -20.65257 -20.40342 -11.40109 -11.32639 -11.27400
 Alpha  occ. eigenvalues --  -11.21574 -11.21294  -1.57716  -1.33631  -1.15589
 Alpha  occ. eigenvalues --   -1.09340  -0.88869  -0.82389  -0.81106  -0.76583
 Alpha  occ. eigenvalues --   -0.70941  -0.68470  -0.65746  -0.60574  -0.58562
 Alpha  occ. eigenvalues --   -0.55633  -0.51350  -0.50739  -0.45062  -0.44561
 Alpha  occ. eigenvalues --   -0.33322  -0.28078
 Alpha virt. eigenvalues --    0.01404   0.03049   0.04009   0.05172   0.05689
 Alpha virt. eigenvalues --    0.06542   0.07050   0.07682   0.08263   0.10219
 Alpha virt. eigenvalues --    0.10824   0.12157   0.13452   0.14071   0.14556

 Mulliken charges:
               1
     1  O   -1.351294
     2  C    1.306975
     3  C   -0.693291
     4  C    0.091875
     5  C    0.167202
     6  C    1.929042
     7  O   -1.855765
     8  H    0.352931
     9  H    0.473144
    10  H    0.138672
    11  H   -0.144720
    12  H   -0.138048
    13  H   -0.061932
    14  H   -0.077194
    15  H   -0.137598
 Sum of Mulliken charges =  -0.00000

 Dipole moment (field-independent basis, Debye):
    X=              5.8431    Y=             -3.5913    Z=             -0.9015  Tot=              6.9175

 Test job not archived.
 1\1\GINC-SE113\SP\RHF\Aug-CC-pVDZ\C5H8O2\OHZDE\09-Apr-2025\0\\#t hf au
 g-cc-pvdz iop(5/13=1,5/36=2,99/5=2) pseudo=read geom=check guess=(read
 ,tcheck) scf=(maxcycle=1)\\title\\0,1\O,0,2.86820073,-0.25727268,0.736
 15337\C,0,1.75321637,-0.48107264,0.04508263\C,0,0.51457614,0.03451876,
 0.4303467\C,0,-1.37942784,1.16316106,-0.71259397\C,0,-1.98026568,-0.02
 122768,-0.03492132\C,0,-0.55465808,-0.15455893,-0.57696483\O,0,-0.2354
 1083,-0.91428245,-1.57810043\H,0,3.58377944,-0.7988459,0.39288792\H,0,
 0.82242413,-1.19077498,0.72486223\H,0,1.73157647,-0.98856077,-0.924975

 Normal termination of Gaussian 16 at Wed Apr  9 18:14:20 2025.
