 Gaussian 16, Revision C.01,

 ----------------------------------------------------------------------
 #t hf aug-cc-pvdz symm=none int=(grid=ultrafine) guess=(read,tcheck) s
 table=(opt,rrhf)
 ----------------------------------------------------------------------
 -----
 title
 -----
 Symbolic Z-matrix:
 Charge =  0 Multiplicity = 1

 SCF Done:  E(RHF) =  -268.674868508     A.U. after   15 cycles
 Normal termination of Gaussian 16 at Wed Apr  9 15:59:54 2025.
 Gaussian 16:  ES64L-G16RevC.01  3-Jul-2019

 ----------------------------------------------------------------------
 #t hf aug-cc-pvdz iop(5/13=1,5/36=2,99/5=2) pseudo=read geom=check gue
 ss=(read,tcheck) scf=(maxcycle=1)
 ----------------------------------------------------------------------
 -----
 title
 -----
 Structure from the checkpoint file:  "Grambow2020_b97d3_007079_forward_mol1.chk"
 Charge =  0 Multiplicity = 1

                         Standard orientation:
 ---------------------------------------------------------------------
 Center     Atomic      Atomic             Coordinates (Angstroms)
 Number     Number       Type             X           Y           Z
 ---------------------------------------------------------------------
      1          6           0       -1.834207    0.096541    0.350445
      2          6           0       -0.728614    0.161252   -0.559548
      3          6           0       -0.046727   -1.061364   -0.654067
      4          6           0        1.041602   -0.867250    0.235330
      5          8           0        1.445929    0.445760    0.286859
      6          6           0        0.317795    1.220691   -0.251017
      7          1           0       -1.042356   -0.387299    1.362511
      8          1           0       -2.567322   -0.709394    0.228308
      9          1           0       -2.293389    1.031170    0.697675
     10          1           0       -0.585373   -2.007679   -0.686750
     11          1           0        1.818481   -1.567292    0.534931
     12          1           0       -0.056318   -0.931011    1.453449
     13          1           0        0.674148    1.774227   -1.130569
     14          1           0       -0.014395    1.931979    0.518710
 ---------------------------------------------------------------------

 SCF Done:  E(RHF) =  -268.957487374     A.U. after    2 cycles

 The electronic state is 1-A.
 Alpha  occ. eigenvalues --  -20.57240 -11.34076 -11.30081 -11.26690 -11.25574
 Alpha  occ. eigenvalues --  -11.24980  -1.49230  -1.13082  -1.01073  -0.94042
 Alpha  occ. eigenvalues --   -0.81729  -0.76669  -0.70346  -0.68401  -0.61945
 Alpha  occ. eigenvalues --   -0.60621  -0.57205  -0.55573  -0.54887  -0.50118
 Alpha  occ. eigenvalues --   -0.49609  -0.35694  -0.32522
 Alpha virt. eigenvalues --    0.03583   0.03773   0.04182   0.04725   0.06202
 Alpha virt. eigenvalues --    0.06588   0.07529   0.07918   0.09222   0.10190
 Alpha virt. eigenvalues --    0.12170   0.12371   0.13556   0.14441   0.14842

 Mulliken charges:
               1
     1  C   -0.463106
     2  C   -0.480954
     3  C    0.234033
     4  C    0.557472
     5  O   -1.320017
     6  C    0.639621
     7  H    0.357486
     8  H    0.053097
     9  H    0.052788
    10  H   -0.031555
    11  H   -0.047337
    12  H    0.224633
    13  H    0.121214
    14  H    0.102626
 Sum of Mulliken charges =  -0.00000

 Dipole moment (field-independent basis, Debye):
    X=             -1.0051    Y=             -0.2175    Z=             -0.0678  Tot=              1.0306

 Test job not archived.
 1\1\GINC-SE220\SP\RHF\Aug-CC-pVDZ\C5H8O1\OHZDE\09-Apr-2025\0\\#t hf au
 g-cc-pvdz iop(5/13=1,5/36=2,99/5=2) pseudo=read geom=check guess=(read
 ,tcheck) scf=(maxcycle=1)\\title\\0,1\C,0,-1.41199203,0.32769796,-0.62
 680547\C,0,-0.59346788,0.33508189,0.54987339\C,0,0.56096627,1.11605944
 ,0.38847601\C,0,1.53863753,0.14169512,0.05993324\O,0,1.28683184,-1.071
 83607,0.65496935\C,0,-0.13172925,-1.02839377,1.04008517\H,0,-0.3615842
 4,-0.06265283,-1.4203265\H,0,-1.69352742,1.28746777,-1.07567757\H,0,-2
 .20432624,-0.42633454,-0.71948379\H,0,0.52670663,2.07536099,-0.1265841

 Normal termination of Gaussian 16 at Wed Apr  9 15:59:59 2025.
