 Gaussian 16, Revision C.01,

 ----------------------------------------------------------------------
 #t hf aug-cc-pvdz symm=none int=(grid=ultrafine) guess=(read,tcheck) s
 table=(opt,rrhf)
 ----------------------------------------------------------------------
 -----
 title
 -----
 Symbolic Z-matrix:
 Charge =  0 Multiplicity = 1

 SCF Done:  E(RHF) =  -323.786955107     A.U. after   15 cycles
 Normal termination of Gaussian 16 at Wed Apr  9 18:24:23 2025.
 Gaussian 16:  ES64L-G16RevC.01  3-Jul-2019

 ----------------------------------------------------------------------
 #t hf aug-cc-pvdz iop(5/13=1,5/36=2,99/5=2) pseudo=read geom=check gue
 ss=(read,tcheck) scf=(maxcycle=1)
 ----------------------------------------------------------------------
 -----
 title
 -----
 Structure from the checkpoint file:  "Grambow2020_wb97xd3_007533_reverse_mol1.chk"
 Charge =  0 Multiplicity = 1

                         Standard orientation:
 ---------------------------------------------------------------------
 Center     Atomic      Atomic             Coordinates (Angstroms)
 Number     Number       Type             X           Y           Z
 ---------------------------------------------------------------------
      1          6           0        2.468039    0.547669   -0.222838
      2          8           0        1.574156   -0.572043   -0.271355
      3          6           0        0.392000   -0.600142    0.864306
      4          6           0       -0.739065   -0.352371   -0.014984
      5          6           0       -1.733837   -1.460843   -0.304465
      6          6           0       -1.245091    0.980651    0.008098
      7          7           0       -1.626166    2.070465    0.002301
      8          1           0        3.062043    0.538786   -1.134314
      9          1           0        3.122766    0.433096    0.639282
     10          1           0        1.905281    1.481857   -0.149702
     11          1           0        0.693326    0.177755    1.561987
     12          1           0        0.498080   -1.600530    1.272781
     13          1           0        0.624727   -0.379969   -0.844079
     14          1           0       -2.266408   -1.265304   -1.235535
     15          1           0       -1.217722   -2.416256   -0.420336
     16          1           0       -2.484454   -1.576124    0.483948
 ---------------------------------------------------------------------

 SCF Done:  E(RHF) =  -324.123551668     A.U. after    2 cycles

 The electronic state is 1-A.
 Alpha  occ. eigenvalues --  -20.62562 -15.47015 -11.34250 -11.32468 -11.25020
 Alpha  occ. eigenvalues --  -11.23489 -11.22780  -1.52385  -1.19961  -1.09676
 Alpha  occ. eigenvalues --   -0.98938  -0.94334  -0.86604  -0.76460  -0.71086
 Alpha  occ. eigenvalues --   -0.67401  -0.65224  -0.62587  -0.58435  -0.57954
 Alpha  occ. eigenvalues --   -0.55140  -0.54510  -0.54000  -0.52644  -0.49602
 Alpha  occ. eigenvalues --   -0.46178  -0.32253
 Alpha virt. eigenvalues --    0.02494   0.03222   0.03558   0.04556   0.05564
 Alpha virt. eigenvalues --    0.05893   0.06960   0.07709   0.08805   0.10430
 Alpha virt. eigenvalues --    0.10907   0.12613   0.12877   0.13354   0.14656

 Mulliken charges:
               1
     1  C    0.262618
     2  O   -1.285077
     3  C    0.532242
     4  C    0.214991
     5  C   -0.237708
     6  C   -2.305605
     7  N    1.030490
     8  H    0.024726
     9  H    0.117119
    10  H    0.198975
    11  H    0.086627
    12  H   -0.099438
    13  H    0.975990
    14  H    0.178028
    15  H    0.071239
    16  H    0.234781
 Sum of Mulliken charges =   0.00000

 Dipole moment (field-independent basis, Debye):
    X=              5.3201    Y=             -4.0906    Z=              0.8921  Tot=              6.7699

 Test job not archived.
 1\1\GINC-SE362\SP\RHF\Aug-CC-pVDZ\C5H9N1O1\OHZDE\09-Apr-2025\0\\#t hf
 aug-cc-pvdz iop(5/13=1,5/36=2,99/5=2) pseudo=read geom=check guess=(re
 ad,tcheck) scf=(maxcycle=1)\\title\\0,1\C,0,2.30480802,0.38651188,0.58
 447524\O,0,1.28481507,0.59455149,-0.40115558\C,0,0.28116269,-0.6719652
 3,-0.6779735\C,0,-0.92511734,-0.10470778,-0.09749249\C,0,-2.07708936,0
 .31045985,-0.99341411\C,0,-1.25848174,-0.58801275,1.20205698\N,0,-1.50
 246979,-0.95427054,2.26942286\H,0,2.7579617,1.35121479,0.80289716\H,0,
 3.05668039,-0.28342026,0.17104581\H,0,1.87477661,-0.04155008,1.4936445

 Normal termination of Gaussian 16 at Wed Apr  9 18:24:28 2025.
