 Gaussian 16, Revision C.01,

 ----------------------------------------------------------------------
 #t hf aug-cc-pvdz symm=none int=(grid=ultrafine) guess=(read,tcheck) s
 table=(opt,rrhf)
 ----------------------------------------------------------------------
 -----
 title
 -----
 Symbolic Z-matrix:
 Charge =  0 Multiplicity = 1

 SCF Done:  E(RHF) =  -316.454954453     A.U. after   16 cycles
 Normal termination of Gaussian 16 at Wed Apr  9 18:16:57 2025.
 Gaussian 16:  ES64L-G16RevC.01  3-Jul-2019

 ----------------------------------------------------------------------
 #t hf aug-cc-pvdz iop(5/13=1,5/36=2,99/5=2) pseudo=read geom=check gue
 ss=(read,tcheck) scf=(maxcycle=1)
 ----------------------------------------------------------------------
 -----
 title
 -----
 Structure from the checkpoint file:  "Grambow2020_wb97xd3_007267_forward_mol1.chk"
 Charge =  0 Multiplicity = 1

                         Standard orientation:
 ---------------------------------------------------------------------
 Center     Atomic      Atomic             Coordinates (Angstroms)
 Number     Number       Type             X           Y           Z
 ---------------------------------------------------------------------
      1          7           0        2.866607    0.047178    0.013893
      2          6           0        1.723610   -0.037003    0.000139
      3          6           0        0.286376   -0.100851   -0.012915
      4          7           0       -0.411189   -1.196379   -0.002607
      5          6           0       -1.783717   -0.852198   -0.087779
      6          6           0       -1.769617    0.588016   -0.021871
      7          7           0       -0.451025    1.032535   -0.020067
      8          1           0       -2.082141   -0.012313    1.004015
      9          1           0       -2.585619    1.266201   -0.229002
     10          1           0       -0.102898    1.974987    0.021010
 ---------------------------------------------------------------------

 SCF Done:  E(RHF) =  -316.766880278     A.U. after    2 cycles

 The electronic state is 1-A.
 Alpha  occ. eigenvalues --  -15.60494 -15.56188 -15.52581 -11.39465 -11.33503
 Alpha  occ. eigenvalues --  -11.32036 -11.28285  -1.39722  -1.27799  -1.22272
 Alpha  occ. eigenvalues --   -1.10633  -0.94334  -0.87783  -0.86651  -0.73529
 Alpha  occ. eigenvalues --   -0.70896  -0.67183  -0.64676  -0.57167  -0.55438
 Alpha  occ. eigenvalues --   -0.53128  -0.48242  -0.47111  -0.38800
 Alpha virt. eigenvalues --    0.01393   0.02795   0.03663   0.04648   0.06631
 Alpha virt. eigenvalues --    0.08273   0.08922   0.10369   0.10599   0.10991
 Alpha virt. eigenvalues --    0.11803   0.12641   0.13610   0.14402   0.15044

 Mulliken charges:
               1
     1  N    1.195458
     2  C   -2.125058
     3  C   -0.118795
     4  N    0.741329
     5  C   -0.678393
     6  C   -0.188391
     7  N    0.702971
     8  H    0.507898
     9  H   -0.049675
    10  H    0.012656
 Sum of Mulliken charges =  -0.00000

 Dipole moment (field-independent basis, Debye):
    X=             -2.3924    Y=              5.9732    Z=              0.5994  Tot=              6.4624

 Test job not archived.
 1\1\GINC-SE029\SP\RHF\Aug-CC-pVDZ\C4H3N3\OHZDE\09-Apr-2025\0\\#t hf au
 g-cc-pvdz iop(5/13=1,5/36=2,99/5=2) pseudo=read geom=check guess=(read
 ,tcheck) scf=(maxcycle=1)\\title\\0,1\N,0,3.2853256,-0.31375722,0.1327
 9574\C,0,2.14152982,-0.36428283,0.07896068\C,0,0.7046432,-0.38564561,0
 .00976673\N,0,-0.03201597,-1.44772521,0.13706481\C,0,-1.38657406,-1.07
 695271,-0.05593424\C,0,-1.3229677,0.35759965,-0.18543569\N,0,0.0097076
 9,0.75792311,-0.18437578\H,0,-1.69845427,-0.0866528,0.89722626\H,0,-2.
 10476524,1.02544907,-0.51930423\H,0,0.38981193,1.68609856,-0.25583927\

 Normal termination of Gaussian 16 at Wed Apr  9 18:17:01 2025.
