 Gaussian 16, Revision C.01,

 ----------------------------------------------------------------------
 #t hf aug-cc-pvdz symm=none int=(grid=ultrafine) guess=(read,tcheck) s
 table=(opt,rrhf)
 ----------------------------------------------------------------------
 -----
 title
 -----
 Symbolic Z-matrix:
 Charge =  0 Multiplicity = 1

 SCF Done:  E(RHF) =  -308.918197982     A.U. after   16 cycles

 1\1\GINC-SE232\Stability\RHF\Aug-CC-pVDZ\C6H12O1\OHZDE\09-Apr-2025\0\\
 #t hf aug-cc-pvdz symm=none int=(grid=ultrafine) guess=(read,tcheck) s
 table=(opt,rrhf)\\title\\0,1\C,0,-1.258555,-1.56123225,-1.04010948\C,0
 ,-0.47914064,-0.4689676,-0.35527292\C,0,-0.93029462,0.21480909,0.90684
 198\C,0,-0.37278768,1.69264424,0.70337857\O,0,0.22688011,1.77463939,-0
 .54311893\C,0,0.89456787,-0.23857267,-0.61001238\C,0,2.0141073,-0.0830
 7682,0.35643423\H,0,-2.31151948,-1.28708129,-1.12582898\H,0,-0.8781922
 3,-1.75143694,-2.04670732\H,0,-1.20920804,-2.50311917,-0.48661214\H,0,

 Normal termination of Gaussian 16 at Wed Apr  9 17:34:03 2025.
 Gaussian 16:  ES64L-G16RevC.01  3-Jul-2019

 ----------------------------------------------------------------------
 #t hf aug-cc-pvdz iop(5/13=1,5/36=2,99/5=2) pseudo=read geom=check gue
 ss=(read,tcheck) scf=(maxcycle=1)
 ----------------------------------------------------------------------
 -----
 title
 -----
 Structure from the checkpoint file:  "Grambow2020_wb97xd3_006724_forward_mol1.chk"
 Charge =  0 Multiplicity = 1

                         Standard orientation:
 ---------------------------------------------------------------------
 Center     Atomic      Atomic             Coordinates (Angstroms)
 Number     Number       Type             X           Y           Z
 ---------------------------------------------------------------------
      1          6           0        2.362075    0.012513   -0.159889
      2          6           0        0.865905   -0.028364    0.011383
      3          6           0        0.150758   -1.027518    0.879875
      4          6           0       -1.210567   -1.248075    0.083409
      5          8           0       -1.166488   -0.507947   -1.087209
      6          6           0        0.030969    1.066560   -0.318879
      7          6           0       -1.032668    1.713346    0.494701
      8          1           0        2.755421   -0.987924   -0.348689
      9          1           0        2.650033    0.650324   -0.999157
     10          1           0        2.862292    0.398177    0.732855
     11          1           0        0.236530   -0.414881   -1.030602
     12          1           0       -0.049854   -0.679686    1.895643
     13          1           0        0.729445   -1.950072    0.961442
     14          1           0       -2.067693   -0.963640    0.709000
     15          1           0       -1.319951   -2.314514   -0.143593
     16          1           0        0.374795    1.671636   -1.158427
     17          1           0       -1.476215    1.048209    1.230807
     18          1           0       -0.547050    2.536099    1.035702
     19          1           0       -1.814681    2.139077   -0.130910
 ---------------------------------------------------------------------

 SCF Done:  E(RHF) =  -309.250504362     A.U. after    2 cycles

 The electronic state is 1-A.
 Alpha  occ. eigenvalues --  -20.46470 -11.34377 -11.25409 -11.24929 -11.24187
 Alpha  occ. eigenvalues --  -11.22777 -11.22260  -1.36166  -1.12848  -1.02832
 Alpha  occ. eigenvalues --   -0.97026  -0.92008  -0.81536  -0.74606  -0.67787
 Alpha  occ. eigenvalues --   -0.65324  -0.62927  -0.60989  -0.57970  -0.57314
 Alpha  occ. eigenvalues --   -0.55874  -0.54010  -0.52557  -0.50812  -0.48656
 Alpha  occ. eigenvalues --   -0.43596  -0.35963  -0.32319
 Alpha virt. eigenvalues --    0.02701   0.03348   0.03601   0.04578   0.05559
 Alpha virt. eigenvalues --    0.05769   0.06348   0.06645   0.07662   0.08656
 Alpha virt. eigenvalues --    0.09104   0.09718   0.10189   0.13015   0.13134

 Mulliken charges:
               1
     1  C   -0.477337
     2  C   -0.193384
     3  C   -0.374120
     4  C    0.664951
     5  O   -1.381601
     6  C   -0.139148
     7  C   -0.618580
     8  H    0.218156
     9  H    0.183209
    10  H    0.200734
    11  H    1.306820
    12  H    0.123851
    13  H    0.087854
    14  H    0.109143
    15  H   -0.066753
    16  H   -0.258836
    17  H    0.146847
    18  H    0.252189
    19  H    0.216004
 Sum of Mulliken charges =   0.00000

 Dipole moment (field-independent basis, Debye):
    X=              2.0956    Y=              2.5130    Z=              1.8274  Tot=              3.7478

 Test job not archived.
 1\1\GINC-SE232\SP\RHF\Aug-CC-pVDZ\C6H12O1\OHZDE\09-Apr-2025\0\\#t hf a
 ug-cc-pvdz iop(5/13=1,5/36=2,99/5=2) pseudo=read geom=check guess=(rea
 d,tcheck) scf=(maxcycle=1)\\title\\0,1\C,0,-1.258555,-1.56123225,-1.04
 010948\C,0,-0.47914064,-0.4689676,-0.35527292\C,0,-0.93029462,0.214809
 09,0.90684198\C,0,-0.37278768,1.69264424,0.70337857\O,0,0.22688011,1.7
 7463939,-0.54311893\C,0,0.89456787,-0.23857267,-0.61001238\C,0,2.01410
 73,-0.08307682,0.35643423\H,0,-2.31151948,-1.28708129,-1.12582898\H,0,
 -0.87819223,-1.75143694,-2.04670732\H,0,-1.20920804,-2.50311917,-0.486

 Normal termination of Gaussian 16 at Wed Apr  9 17:34:10 2025.
