 Gaussian 16, Revision C.01,

 ----------------------------------------------------------------------
 #t hf aug-cc-pvdz symm=none int=(grid=ultrafine) guess=(read,tcheck) s
 table=(opt,rrhf)
 ----------------------------------------------------------------------
 -----
 title
 -----
 Symbolic Z-matrix:
 Charge =  0 Multiplicity = 1

 SCF Done:  E(RHF) =  -380.765953108     A.U. after   14 cycles
 Normal termination of Gaussian 16 at Wed Apr  9 19:02:53 2025.
 Gaussian 16:  ES64L-G16RevC.01  3-Jul-2019

 ----------------------------------------------------------------------
 #t hf aug-cc-pvdz iop(5/13=1,5/36=2,99/5=2) pseudo=read geom=check gue
 ss=(read,tcheck) scf=(maxcycle=1)
 ----------------------------------------------------------------------
 -----
 title
 -----
 Structure from the checkpoint file:  "Grambow2020_wb97xd3_008487_reverse_mol2.chk"
 Charge =  0 Multiplicity = 1

                         Standard orientation:
 ---------------------------------------------------------------------
 Center     Atomic      Atomic             Coordinates (Angstroms)
 Number     Number       Type             X           Y           Z
 ---------------------------------------------------------------------
      1          6           0        1.139605    1.954452   -0.020738
      2          8           0        0.696779    0.596251   -0.045601
      3          6           0       -0.641008    0.415641    0.000415
      4          8           0       -1.415076    1.329645    0.075333
      5          6           0       -0.988892   -1.024540   -0.053734
      6          6           0       -2.256793   -1.402353   -0.001437
      7          8           0        2.447193   -1.778526   -0.051953
      8          1           0        0.809718    2.445090    0.894316
      9          1           0        2.224949    1.913150   -0.064406
     10          1           0        0.743462    2.496665   -0.878586
     11          1           0       -0.173283   -1.733050   -0.141943
     12          1           0        1.987277   -0.932738   -0.095883
     13          1           0       -3.046577   -0.664906    0.083572
     14          1           0       -2.533910   -2.448021   -0.042815
     15          1           0        2.639721   -1.914340    0.876474
 ---------------------------------------------------------------------

 SCF Done:  E(RHF) =  -381.153174049     A.U. after    2 cycles

 The electronic state is 1-A.
 Alpha  occ. eigenvalues --  -20.60581 -20.54484 -20.53983 -11.39785 -11.30581
 Alpha  occ. eigenvalues --  -11.27132 -11.25921  -1.56060  -1.46337  -1.42820
 Alpha  occ. eigenvalues --   -1.09202  -0.99451  -0.86732  -0.78365  -0.73107
 Alpha  occ. eigenvalues --   -0.70757  -0.68880  -0.68739  -0.64587  -0.60418
 Alpha  occ. eigenvalues --   -0.57105  -0.56978  -0.56208  -0.53711  -0.48740
 Alpha  occ. eigenvalues --   -0.47104  -0.45459  -0.40739
 Alpha virt. eigenvalues --    0.03345   0.03669   0.04465   0.05454   0.06066
 Alpha virt. eigenvalues --    0.06253   0.06921   0.07787   0.09689   0.10875
 Alpha virt. eigenvalues --    0.12390   0.13043   0.14292   0.14543   0.15020

 Mulliken charges:
               1
     1  C    0.185146
     2  O   -1.473433
     3  C    1.859395
     4  O   -1.307523
     5  C    0.739365
     6  C   -0.064564
     7  O   -0.914004
     8  H    0.203555
     9  H   -0.025272
    10  H    0.202505
    11  H   -0.326059
    12  H    0.722255
    13  H   -0.042066
    14  H   -0.058126
    15  H    0.298826
 Sum of Mulliken charges =  -0.00000

 Dipole moment (field-independent basis, Debye):
    X=              0.1565    Y=              0.1692    Z=              1.2701  Tot=              1.2909

 Test job not archived.
 1\1\GINC-SE028\SP\RHF\Aug-CC-pVDZ\C4H8O3\OHZDE\09-Apr-2025\0\\#t hf au
 g-cc-pvdz iop(5/13=1,5/36=2,99/5=2) pseudo=read geom=check guess=(read
 ,tcheck) scf=(maxcycle=1)\\title\\0,1\C,0,-2.18179252,-0.43885868,0.30
 103092\O,0,-0.78172352,-0.15837145,0.35159189\C,0,-0.21319221,0.197653
 ,-0.82076947\O,0,-0.831791,0.26002166,-1.84724007\C,0,1.2308065,0.4867
 6453,-0.64942644\C,0,1.96524399,0.83570955,-1.69436164\O,0,0.93592132,
 -0.42536991,2.73527883\H,0,-2.37969224,-1.26396661,-0.38227586\H,0,-2.
 46782719,-0.70366278,1.31574684\H,0,-2.73133332,0.44037902,-0.03329577

 Normal termination of Gaussian 16 at Wed Apr  9 19:02:57 2025.
