 Gaussian 16, Revision C.01,

 ----------------------------------------------------------------------
 #t hf aug-cc-pvdz symm=none int=(grid=ultrafine) guess=(read,tcheck) s
 table=(opt,rrhf)
 ----------------------------------------------------------------------
 -----
 title
 -----
 Symbolic Z-matrix:
 Charge =  0 Multiplicity = 1

 SCF Done:  E(RHF) =  -272.978458779     A.U. after   16 cycles
 Normal termination of Gaussian 16 at Wed Apr  9 03:46:16 2025.
 Gaussian 16:  ES64L-G16RevC.01  3-Jul-2019

 ----------------------------------------------------------------------
 #t hf aug-cc-pvdz iop(5/13=1,5/36=2,99/5=2) pseudo=read geom=check gue
 ss=(read,tcheck) scf=(maxcycle=1)
 ----------------------------------------------------------------------
 -----
 title
 -----
 Structure from the checkpoint file:  "Grambow2020_wb97xd3_007782_forward_mol1.chk"
 Charge =  0 Multiplicity = 1

                         Standard orientation:
 ---------------------------------------------------------------------
 Center     Atomic      Atomic             Coordinates (Angstroms)
 Number     Number       Type             X           Y           Z
 ---------------------------------------------------------------------
      1          6           0       -0.931905    1.759757   -0.092781
      2          6           0       -0.291551    0.441568   -0.366236
      3          6           0       -1.502177   -0.995503   -0.865338
      4          6           0       -1.599141   -0.612420    0.921849
      5          6           0        0.888897    0.123781    0.442594
      6          6           0        2.216135    0.379739   -0.242303
      7          6           0        1.793957   -1.015728    0.062776
      8          1           0       -1.048586    2.034318    0.971704
      9          1           0       -0.265031    2.501635   -0.543866
     10          1           0       -1.902756    1.865831   -0.581924
     11          1           0       -2.279051   -1.737734   -0.610354
     12          1           0       -1.951558   -0.354330   -1.616297
     13          1           0       -0.687286   -1.570735   -1.289179
     14          1           0       -1.132322    0.095574    1.600742
     15          1           0       -2.670900   -0.431223    0.946329
     16          1           0       -1.358995   -1.613519    1.270729
     17          1           0        0.888096    0.372921    1.511472
     18          1           0        2.180900    0.702174   -1.273618
     19          1           0        2.998565    0.826636    0.357047
     20          1           0        2.297984   -1.542777    0.862043
     21          1           0        1.485650   -1.635929   -0.768187
 ---------------------------------------------------------------------

 SCF Done:  E(RHF) =  -273.280228818     A.U. after    2 cycles

 The electronic state is 1-A.
 Alpha  occ. eigenvalues --  -11.26770 -11.25903 -11.23113 -11.22983 -11.22874
 Alpha  occ. eigenvalues --  -11.22765 -11.22035  -1.15091  -1.04883  -0.97197
 Alpha  occ. eigenvalues --   -0.88471  -0.85435  -0.81902  -0.72924  -0.66862
 Alpha  occ. eigenvalues --   -0.63342  -0.61696  -0.59993  -0.56215  -0.55780
 Alpha  occ. eigenvalues --   -0.54247  -0.52258  -0.51481  -0.49495  -0.48080
 Alpha  occ. eigenvalues --   -0.42557  -0.40969  -0.27447
 Alpha virt. eigenvalues --    0.03292   0.03386   0.03606   0.04175   0.05624
 Alpha virt. eigenvalues --    0.05940   0.06016   0.06386   0.06620   0.08653
 Alpha virt. eigenvalues --    0.09301   0.09462   0.10084   0.10568   0.13145

 Mulliken charges:
               1
     1  C   -0.558496
     2  C   -0.979619
     3  C   -0.104224
     4  C   -0.138730
     5  C    1.088717
     6  C    0.245488
     7  C    0.200019
     8  H    0.197928
     9  H    0.162041
    10  H    0.121824
    11  H   -0.131537
    12  H    0.181224
    13  H    0.153411
    14  H    0.090786
    15  H    0.123668
    16  H    0.133404
    17  H   -0.272681
    18  H   -0.111492
    19  H   -0.154758
    20  H   -0.144779
    21  H   -0.102195
 Sum of Mulliken charges =   0.00000

 Dipole moment (field-independent basis, Debye):
    X=             -0.5874    Y=             -0.5305    Z=              0.7352  Tot=              1.0803

 Test job not archived.
 1\1\GINC-SE016\SP\RHF\Aug-CC-pVDZ\C7H14\OHZDE\09-Apr-2025\0\\#t hf aug
 -cc-pvdz iop(5/13=1,5/36=2,99/5=2) pseudo=read geom=check guess=(read,
 tcheck) scf=(maxcycle=1)\\title\\0,1\C,0,-0.43946652,1.82275326,0.5420
 5172\C,0,-0.09911004,0.58311801,-0.2128756\C,0,-1.60967822,-0.40279584
 ,-0.93816702\C,0,-1.46420673,-0.61478486,0.87403953\C,0,1.0651012,-0.1
 6285544,0.27373212\C,0,2.34787424,0.09108573,-0.491884\C,0,1.68920601,
 -1.24278563,-0.56657701\H,0,-0.40120711,1.7489758,1.64442212\H,0,0.315
 93226,2.55682827,0.24357082\H,0,-1.41130524,2.23400224,0.2601505\H,0,-

 Normal termination of Gaussian 16 at Wed Apr  9 03:46:25 2025.
