 Gaussian 16, Revision C.01,

 ----------------------------------------------------------------------
 #t hf aug-cc-pvdz symm=none int=(grid=ultrafine) guess=(read,tcheck) s
 table=(opt,rrhf)
 ----------------------------------------------------------------------
 -----
 title
 -----
 Symbolic Z-matrix:
 Charge =  0 Multiplicity = 1

 SCF Done:  E(RHF) =  -358.510668225     A.U. after   13 cycles
 Normal termination of Gaussian 16 at Wed Apr  9 17:43:29 2025.
 Gaussian 16:  ES64L-G16RevC.01  3-Jul-2019

 ----------------------------------------------------------------------
 #t hf aug-cc-pvdz iop(5/13=1,5/36=2,99/5=2) pseudo=read geom=check gue
 ss=(read,tcheck) scf=(maxcycle=1)
 ----------------------------------------------------------------------
 -----
 title
 -----
 Structure from the checkpoint file:  "Grambow2020_wb97xd3_006789_reverse_mol2.chk"
 Charge =  0 Multiplicity = 1

                         Standard orientation:
 ---------------------------------------------------------------------
 Center     Atomic      Atomic             Coordinates (Angstroms)
 Number     Number       Type             X           Y           Z
 ---------------------------------------------------------------------
      1          8           0       -3.254896   -0.366498    0.140704
      2          6           0       -2.374677    0.290187   -0.086115
      3          6           0        0.811650   -0.675159    0.719622
      4          6           0        0.915399   -1.150222   -0.669819
      5          7           0        2.041657   -0.416262   -0.077507
      6          6           0        1.243110    0.696186    0.443584
      7          8           0        0.561588    1.553086   -0.400901
      8          1           0       -0.374025    1.330592   -0.393344
      9          1           0        0.810216   -1.240847    1.640270
     10          1           0        0.337787   -0.667918   -1.451797
     11          1           0        1.130673   -2.199502   -0.836523
     12          1           0        1.777322    1.232850    1.221888
 ---------------------------------------------------------------------

 SCF Done:  E(RHF) =  -358.868833916     A.U. after    2 cycles

 The electronic state is 1-A.
 Alpha  occ. eigenvalues --  -20.67603 -20.55802 -15.51951 -11.39326 -11.33365
 Alpha  occ. eigenvalues --  -11.28244 -11.27998  -1.63002  -1.47898  -1.33489
 Alpha  occ. eigenvalues --   -0.96832  -0.86815  -0.82979  -0.82066  -0.74414
 Alpha  occ. eigenvalues --   -0.69936  -0.65878  -0.65855  -0.63748  -0.60533
 Alpha  occ. eigenvalues --   -0.58008  -0.56996  -0.49825  -0.48130  -0.45615
 Alpha  occ. eigenvalues --   -0.42209
 Alpha virt. eigenvalues --    0.03594   0.04419   0.04886   0.05353   0.06244
 Alpha virt. eigenvalues --    0.07661   0.08344   0.09767   0.10670   0.11852
 Alpha virt. eigenvalues --    0.13063   0.13473   0.13695   0.14253   0.14729

 Mulliken charges:
               1
     1  O   -0.597467
     2  C    0.568122
     3  C    0.599301
     4  C   -0.119696
     5  N    0.222634
     6  C    0.683450
     7  O   -1.346624
     8  H    0.449518
     9  H   -0.235417
    10  H   -0.128323
    11  H   -0.069161
    12  H   -0.026338
 Sum of Mulliken charges =  -0.00000

 Dipole moment (field-independent basis, Debye):
    X=             -3.1163    Y=             -1.1484    Z=              1.0773  Tot=              3.4915

 Test job not archived.
 1\1\GINC-SE045\SP\RHF\Aug-CC-pVDZ\C4H5N1O2\OHZDE\09-Apr-2025\0\\#t hf
 aug-cc-pvdz iop(5/13=1,5/36=2,99/5=2) pseudo=read geom=check guess=(re
 ad,tcheck) scf=(maxcycle=1)\\title\\0,1\O,0,3.29031391,-0.04822578,-1.
 3513623\C,0,2.25027131,-0.46109654,-1.42426743\C,0,-0.07734439,0.15712
 542,1.01167018\C,0,-0.54422853,1.25631122,0.15096944\N,0,-1.5330043,0.
 38855049,0.80465117\C,0,-0.91504888,-0.87793211,0.40351803\O,0,-0.8236
 8326,-1.24724202,-0.92583092\H,0,0.07659194,-1.10793352,-1.23409978\H,
 0,0.39732173,0.19874151,1.98149368\H,0,-0.42786316,1.1880519,-0.925851

 Normal termination of Gaussian 16 at Wed Apr  9 17:43:37 2025.
