 Gaussian 16, Revision C.01,

 ----------------------------------------------------------------------
 #t hf aug-cc-pvdz symm=none int=(grid=ultrafine) guess=(read,tcheck) s
 table=(opt,rrhf)
 ----------------------------------------------------------------------
 -----
 title
 -----
 Symbolic Z-matrix:
 Charge =  0 Multiplicity = 1

 SCF Done:  E(RHF) =  -299.695723269     A.U. after   15 cycles
 Normal termination of Gaussian 16 at Wed Apr  9 16:17:40 2025.
 Gaussian 16:  ES64L-G16RevC.01  3-Jul-2019

 ----------------------------------------------------------------------
 #t hf aug-cc-pvdz iop(5/13=1,5/36=2,99/5=2) pseudo=read geom=check gue
 ss=(read,tcheck) scf=(maxcycle=1)
 ----------------------------------------------------------------------
 -----
 title
 -----
 Structure from the checkpoint file:  "Grambow2020_b97d3_007179_reverse_mol2.chk"
 Charge =  0 Multiplicity = 1

                         Standard orientation:
 ---------------------------------------------------------------------
 Center     Atomic      Atomic             Coordinates (Angstroms)
 Number     Number       Type             X           Y           Z
 ---------------------------------------------------------------------
      1          6           0        2.660160    0.394307    0.181070
      2          6           0        0.329963   -0.461528   -0.074169
      3          7           0        1.465332   -0.189017   -0.372149
      4          8           0       -2.070602    1.047579   -0.052713
      5          6           0       -1.996671   -0.161235    0.075008
      6          7           0       -0.816497   -0.928852    0.114786
      7          1           0        3.015434    1.190217   -0.485844
      8          1           0        2.484534    0.813434    1.181107
      9          1           0        3.442844   -0.373522    0.244093
     10          1           0       -2.880561   -0.814937    0.192436
 ---------------------------------------------------------------------

 SCF Done:  E(RHF) =  -299.993556289     A.U. after    2 cycles

 The electronic state is 1-A.
 Alpha  occ. eigenvalues --  -20.54451 -15.55238 -15.52401 -11.39764 -11.38373
 Alpha  occ. eigenvalues --  -11.31413  -1.47672  -1.30974  -1.24343  -1.03140
 Alpha  occ. eigenvalues --   -0.93632  -0.75751  -0.73354  -0.68601  -0.67779
 Alpha  occ. eigenvalues --   -0.65454  -0.60306  -0.57895  -0.53193  -0.48072
 Alpha  occ. eigenvalues --   -0.44021  -0.43608
 Alpha virt. eigenvalues --    0.02673   0.04706   0.04972   0.05164   0.07201
 Alpha virt. eigenvalues --    0.07941   0.09975   0.10077   0.11690   0.12184
 Alpha virt. eigenvalues --    0.12916   0.13541   0.13835   0.14309   0.15617

 Mulliken charges:
               1
     1  C   -0.286332
     2  C   -1.348001
     3  N    0.555450
     4  O   -1.003166
     5  C    0.917871
     6  N    0.546590
     7  H    0.155969
     8  H    0.115958
     9  H    0.178257
    10  H    0.167403
 Sum of Mulliken charges =  -0.00000

 Dipole moment (field-independent basis, Debye):
    X=              2.8701    Y=             -0.5978    Z=              0.9986  Tot=              3.0971

 Test job not archived.
 1\1\GINC-SE226\SP\RHF\Aug-CC-pVDZ\C3H4N2O1\OHZDE\09-Apr-2025\0\\#t hf
 aug-cc-pvdz iop(5/13=1,5/36=2,99/5=2) pseudo=read geom=check guess=(re
 ad,tcheck) scf=(maxcycle=1)\\title\\0,1\C,0,-2.10618965,-0.12118078,-0
 .2542185\C,0,0.31070897,0.4868596,-0.12652245\N,0,-0.7846554,0.3315751
 2,-0.60420504\O,0,2.50817988,-1.26276046,0.26145562\C,0,2.5401667,-0.0
 5199501,0.3880762\N,0,1.45447387,0.83404997,0.24728001\H,0,-2.43095165
 ,-0.88027229,-0.97725096\H,0,-2.13647205,-0.54978621,0.75670553\H,0,-2
 .80531306,0.72402668,-0.3087857\H,0,3.4568044,0.50731839,0.6513643\\Ve

 Normal termination of Gaussian 16 at Wed Apr  9 16:17:43 2025.
