 Gaussian 16, Revision C.01,

 ----------------------------------------------------------------------
 #t hf aug-cc-pvdz symm=none int=(grid=ultrafine) guess=(read,tcheck) s
 table=(opt,rrhf)
 ----------------------------------------------------------------------
 -----
 title
 -----
 Symbolic Z-matrix:
 Charge =  0 Multiplicity = 1

 SCF Done:  E(RHF) =  -304.494979577     A.U. after   17 cycles
 Normal termination of Gaussian 16 at Wed Apr  9 03:14:52 2025.
 Gaussian 16:  ES64L-G16RevC.01  3-Jul-2019

 ----------------------------------------------------------------------
 #t hf aug-cc-pvdz iop(5/13=1,5/36=2,99/5=2) pseudo=read geom=check gue
 ss=(read,tcheck) scf=(maxcycle=1)
 ----------------------------------------------------------------------
 -----
 title
 -----
 Structure from the checkpoint file:  "Grambow2020_b97d3_006930_reverse_mol1.chk"
 Charge =  0 Multiplicity = 1

                         Standard orientation:
 ---------------------------------------------------------------------
 Center     Atomic      Atomic             Coordinates (Angstroms)
 Number     Number       Type             X           Y           Z
 ---------------------------------------------------------------------
      1          8           0       -1.710218   -0.716183   -0.288900
      2          6           0       -0.484447   -0.152300    0.075331
      3          6           0       -0.428552    1.287394    0.524642
      4          6           0        0.136531    0.940980   -0.803696
      5          8           0        1.784087   -0.078558   -0.096820
      6          6           0        0.749533   -0.996983    0.331078
      7          1           0       -2.207155   -0.886959    0.534827
      8          1           0       -1.411837    1.762293    0.442385
      9          1           0        0.212719    1.701097    1.306113
     10          1           0        1.318869    0.486880   -1.046774
     11          1           0        0.933499   -1.275647    1.379409
     12          1           0        0.724560   -1.904284   -0.294335
 ---------------------------------------------------------------------

 SCF Done:  E(RHF) =  -304.803968949     A.U. after    2 cycles

 The electronic state is 1-A.
 Alpha  occ. eigenvalues --  -20.58491 -20.55644 -11.32034 -11.31325 -11.30044
 Alpha  occ. eigenvalues --  -11.27183  -1.48434  -1.42415  -1.16299  -0.95998
 Alpha  occ. eigenvalues --   -0.84936  -0.76744  -0.70796  -0.70234  -0.64569
 Alpha  occ. eigenvalues --   -0.62176  -0.58034  -0.56228  -0.55299  -0.47537
 Alpha  occ. eigenvalues --   -0.44618  -0.42969  -0.37110
 Alpha virt. eigenvalues --    0.02716   0.04084   0.04402   0.05065   0.05281
 Alpha virt. eigenvalues --    0.06515   0.07092   0.09565   0.10915   0.11892
 Alpha virt. eigenvalues --    0.13760   0.14017   0.14436   0.15233   0.15336

 Mulliken charges:
               1
     1  O   -1.420362
     2  C    1.029931
     3  C    0.233584
     4  C   -0.312460
     5  O   -1.267893
     6  C    0.628323
     7  H    0.256247
     8  H    0.036934
     9  H   -0.120421
    10  H    0.683597
    11  H    0.125002
    12  H    0.127517
 Sum of Mulliken charges =  -0.00000

 Dipole moment (field-independent basis, Debye):
    X=             -2.2373    Y=             -0.1659    Z=              2.5075  Tot=              3.3646

 Test job not archived.
 1\1\GINC-SE126\SP\RHF\Aug-CC-pVDZ\C4H6O2\OHZDE\09-Apr-2025\0\\#t hf au
 g-cc-pvdz iop(5/13=1,5/36=2,99/5=2) pseudo=read geom=check guess=(read
 ,tcheck) scf=(maxcycle=1)\\title\\0,1\O,0,0.06025132,-1.45699081,-1.18
 654552\C,0,-0.00095904,-0.39326723,-0.28217467\C,0,-1.26903042,-0.1487
 8567,0.49881704\C,0,-0.91229054,0.80375196,-0.58248322\O,0,0.68751863,
 1.66991918,0.3890812\C,0,1.23987367,0.34794832,0.17884088\H,0,0.148023
 67,-2.27764704,-0.66361553\H,0,-2.05852811,-0.8428008,0.19193035\H,0,-
 1.34057056,0.19304702,1.53376142\H,0,-0.11304247,1.81189578,-0.4926808

 Normal termination of Gaussian 16 at Wed Apr  9 03:14:56 2025.
