 Gaussian 16, Revision C.01,

 ----------------------------------------------------------------------
 #t hf aug-cc-pvdz symm=none int=(grid=ultrafine) guess=(read,tcheck) s
 table=(opt,rrhf)
 ----------------------------------------------------------------------
 -----
 title
 -----
 Symbolic Z-matrix:
 Charge =  0 Multiplicity = 1

 SCF Done:  E(RHF) =  -343.524093282     A.U. after   15 cycles
 Normal termination of Gaussian 16 at Wed Apr  9 04:04:51 2025.
 Gaussian 16:  ES64L-G16RevC.01  3-Jul-2019

 ----------------------------------------------------------------------
 #t hf aug-cc-pvdz iop(5/13=1,5/36=2,99/5=2) pseudo=read geom=check gue
 ss=(read,tcheck) scf=(maxcycle=1)
 ----------------------------------------------------------------------
 -----
 title
 -----
 Structure from the checkpoint file:  "Grambow2020_wb97xd3_009107_forward_mol1.chk"
 Charge =  0 Multiplicity = 1

                         Standard orientation:
 ---------------------------------------------------------------------
 Center     Atomic      Atomic             Coordinates (Angstroms)
 Number     Number       Type             X           Y           Z
 ---------------------------------------------------------------------
      1          6           0       -1.754383   -0.640527   -0.103307
      2          6           0       -0.375183   -0.780830    0.358609
      3          8           0        0.696557   -1.238783   -0.255073
      4          6           0        1.767698   -0.308109    0.033461
      5          6           0        1.080332    1.097329    0.149294
      6          8           0       -0.157890    0.931664   -0.469789
      7          6           0       -1.529670    0.846238    0.284568
      8          1           0       -1.884854   -0.904942   -1.155141
      9          1           0       -2.481146   -1.130158    0.545737
     10          1           0       -0.244024   -0.561616    1.416708
     11          1           0        2.447668   -0.385089   -0.811028
     12          1           0        2.279702   -0.596851    0.953961
     13          1           0        0.956472    1.399028    1.194904
     14          1           0        1.662533    1.854184   -0.379781
     15          1           0       -2.178444    1.497788   -0.302211
 ---------------------------------------------------------------------

 SCF Done:  E(RHF) =  -343.875936825     A.U. after    2 cycles

 The electronic state is 1-A.
 Alpha  occ. eigenvalues --  -20.61387 -20.54539 -11.41108 -11.32201 -11.29989
 Alpha  occ. eigenvalues --  -11.24276 -11.21642  -1.56621  -1.44484  -1.10917
 Alpha  occ. eigenvalues --   -1.00526  -0.92290  -0.84048  -0.78273  -0.73569
 Alpha  occ. eigenvalues --   -0.71176  -0.69954  -0.66013  -0.60016  -0.58245
 Alpha  occ. eigenvalues --   -0.55610  -0.54462  -0.51332  -0.49377  -0.46949
 Alpha  occ. eigenvalues --   -0.41226  -0.28383
 Alpha virt. eigenvalues --    0.03080   0.03576   0.04352   0.04850   0.05943
 Alpha virt. eigenvalues --    0.06456   0.06905   0.07196   0.09606   0.10495
 Alpha virt. eigenvalues --    0.11906   0.12594   0.13313   0.13823   0.14412

 Mulliken charges:
               1
     1  C   -0.297762
     2  C    1.444925
     3  O   -1.503646
     4  C    0.445918
     5  C    0.443619
     6  O   -1.268257
     7  C    0.181645
     8  H    0.078633
     9  H    0.199586
    10  H    0.129217
    11  H    0.017449
    12  H    0.139055
    13  H    0.110968
    14  H    0.000412
    15  H   -0.121761
 Sum of Mulliken charges =  -0.00000

 Dipole moment (field-independent basis, Debye):
    X=              3.0643    Y=             -2.0850    Z=              0.2812  Tot=              3.7170

 Test job not archived.
 1\1\GINC-SE135\SP\RHF\Aug-CC-pVDZ\C5H8O2\OHZDE\09-Apr-2025\0\\#t hf au
 g-cc-pvdz iop(5/13=1,5/36=2,99/5=2) pseudo=read geom=check guess=(read
 ,tcheck) scf=(maxcycle=1)\\title\\0,1\C,0,-1.77421358,-0.2192735,0.696
 29688\C,0,-0.8429602,0.39930581,-0.24464481\O,0,-0.11232747,1.49046216
 ,-0.14214632\C,0,1.20780038,1.15166166,-0.63125317\C,0,1.4196508,-0.35
 591008,-0.25245188\O,0,0.46278819,-0.60599326,0.73028742\C,0,-0.842045
 81,-1.44767094,0.51321563\H,0,-1.80803941,0.28688895,1.66374053\H,0,-2
 .76628628,-0.38892378,0.27654555\H,0,-0.83520187,-0.07199348,-1.225790

 Normal termination of Gaussian 16 at Wed Apr  9 04:04:56 2025.
