 Gaussian 16, Revision C.01,

 ----------------------------------------------------------------------
 #t hf aug-cc-pvdz symm=none int=(grid=ultrafine) guess=(read,tcheck) s
 table=(opt,rrhf)
 ----------------------------------------------------------------------
 -----
 title
 -----
 Symbolic Z-matrix:
 Charge =  0 Multiplicity = 1

 SCF Done:  E(RHF) =  -324.987978440     A.U. after   14 cycles
 Normal termination of Gaussian 16 at Wed Apr  9 19:15:15 2025.
 Gaussian 16:  ES64L-G16RevC.01  3-Jul-2019

 ----------------------------------------------------------------------
 #t hf aug-cc-pvdz iop(5/13=1,5/36=2,99/5=2) pseudo=read geom=check gue
 ss=(read,tcheck) scf=(maxcycle=1)
 ----------------------------------------------------------------------
 -----
 title
 -----
 Structure from the checkpoint file:  "Grambow2020_wb97xd3_008962_reverse_mol2.chk"
 Charge =  0 Multiplicity = 1

                         Standard orientation:
 ---------------------------------------------------------------------
 Center     Atomic      Atomic             Coordinates (Angstroms)
 Number     Number       Type             X           Y           Z
 ---------------------------------------------------------------------
      1          6           0        2.390879   -0.959791   -0.586059
      2          6           0        1.771695   -0.253243    0.607082
      3          7           0        0.515881    0.435461    0.250882
      4          6           0        0.633496    1.665861   -0.247795
      5          6           0       -0.602922   -0.259159    0.401751
      6          6           0       -1.893299    0.286980   -0.080763
      7          8           0       -2.905369   -0.698453   -0.122294
      8          1           0        3.301975   -1.474313   -0.276592
      9          1           0        2.648180   -0.251191   -1.373232
     10          1           0        1.701532   -1.698792   -0.995296
     11          1           0        1.536830   -0.961728    1.399942
     12          1           0        2.447320    0.496485    1.016924
     13          1           0       -0.247048    2.237087   -0.483048
     14          1           0        1.622879    2.060933   -0.400722
     15          1           0       -0.561263   -1.180630    0.961172
     16          1           0       -2.280865    1.084757    0.568098
     17          1           0       -1.739981    0.752137   -1.072413
     18          1           0       -2.596863   -1.409229   -0.687953
 ---------------------------------------------------------------------

 SCF Done:  E(RHF) =  -325.334817042     A.U. after    2 cycles

 The electronic state is 1-A.
 Alpha  occ. eigenvalues --  -20.54422 -15.60628 -11.29194 -11.28346 -11.24422
 Alpha  occ. eigenvalues --  -11.23771 -11.23148  -1.44757  -1.31599  -1.06159
 Alpha  occ. eigenvalues --   -1.01250  -0.94487  -0.88517  -0.77207  -0.72094
 Alpha  occ. eigenvalues --   -0.70349  -0.68229  -0.63764  -0.62969  -0.60073
 Alpha  occ. eigenvalues --   -0.57011  -0.56693  -0.54776  -0.52593  -0.52079
 Alpha  occ. eigenvalues --   -0.49070  -0.44198  -0.24560
 Alpha virt. eigenvalues --    0.03169   0.03646   0.04127   0.04494   0.05249
 Alpha virt. eigenvalues --    0.05595   0.06264   0.06555   0.07364   0.09177
 Alpha virt. eigenvalues --    0.09741   0.10100   0.11422   0.12628   0.14148

 Mulliken charges:
               1
     1  C   -0.175376
     2  C   -0.588623
     3  N    1.551256
     4  C   -0.338169
     5  C   -0.604194
     6  C    0.796472
     7  O   -1.214842
     8  H    0.132474
     9  H    0.164312
    10  H    0.155787
    11  H    0.100054
    12  H    0.085805
    13  H   -0.129572
    14  H   -0.137939
    15  H   -0.344765
    16  H    0.136233
    17  H    0.128222
    18  H    0.282866
 Sum of Mulliken charges =   0.00000

 Dipole moment (field-independent basis, Debye):
    X=              2.9965    Y=             -1.2561    Z=             -0.2707  Tot=              3.2603

 Test job not archived.
 1\1\GINC-SE018\SP\RHF\Aug-CC-pVDZ\C5H11N1O1\OHZDE\09-Apr-2025\0\\#t hf
  aug-cc-pvdz iop(5/13=1,5/36=2,99/5=2) pseudo=read geom=check guess=(r
 ead,tcheck) scf=(maxcycle=1)\\title\\0,1\C,0,-2.12055133,-0.98474931,0
 .05646074\C,0,-1.54832491,0.41131844,0.22890535\N,0,-0.08517392,0.3889
 58,0.4211279\C,0,0.34780073,0.20185811,1.66769186\C,0,0.65665937,0.493
 56649,-0.67236214\C,0,2.12637471,0.31839569,-0.59880301\O,0,2.70665385
 ,0.15304968,-1.87670192\H,0,-3.19780379,-0.92315873,-0.10581497\H,0,-1
 .94179826,-1.59556237,0.94128492\H,0,-1.67155677,-1.48044063,-0.804637

 Normal termination of Gaussian 16 at Wed Apr  9 19:15:22 2025.
