 Gaussian 16, Revision C.01,

 ----------------------------------------------------------------------
 #t hf aug-cc-pvdz symm=none int=(grid=ultrafine) guess=(read,tcheck) s
 table=(opt,rrhf)
 ----------------------------------------------------------------------
 -----
 title
 -----
 Symbolic Z-matrix:
 Charge =  0 Multiplicity = 1

 SCF Done:  E(RHF) =  -320.286858400     A.U. after   16 cycles
 Normal termination of Gaussian 16 at Wed Apr  9 18:30:27 2025.
 Gaussian 16:  ES64L-G16RevC.01  3-Jul-2019

 ----------------------------------------------------------------------
 #t hf aug-cc-pvdz iop(5/13=1,5/36=2,99/5=2) pseudo=read geom=check gue
 ss=(read,tcheck) scf=(maxcycle=1)
 ----------------------------------------------------------------------
 -----
 title
 -----
 Structure from the checkpoint file:  "Grambow2020_wb97xd3_007654_forward_mol1.chk"
 Charge =  0 Multiplicity = 1

                         Standard orientation:
 ---------------------------------------------------------------------
 Center     Atomic      Atomic             Coordinates (Angstroms)
 Number     Number       Type             X           Y           Z
 ---------------------------------------------------------------------
      1          7           0        2.922980    0.009651    0.008106
      2          6           0        1.774631   -0.009243   -0.001081
      3          6           0        0.355839   -0.008817   -0.013992
      4          6           0       -0.467818   -1.075202   -0.000495
      5          8           0       -1.753510   -0.701160    0.009185
      6          6           0       -1.890218    0.676073   -0.095749
      7          6           0       -0.542121    1.133554   -0.043762
      8          1           0       -0.259672   -2.134461    0.014168
      9          1           0       -1.293631    1.211734    0.984376
     10          1           0       -0.261354    2.166262   -0.198285
 ---------------------------------------------------------------------

 SCF Done:  E(RHF) =  -320.601183040     A.U. after    2 cycles

 The electronic state is 1-A.
 Alpha  occ. eigenvalues --  -20.64674 -15.53348 -11.37186 -11.32287 -11.32179
 Alpha  occ. eigenvalues --  -11.30926 -11.30474  -1.58798  -1.25766  -1.17193
 Alpha  occ. eigenvalues --   -1.08401  -0.91590  -0.84857  -0.80416  -0.71432
 Alpha  occ. eigenvalues --   -0.68776  -0.64332  -0.62457  -0.59677  -0.56180
 Alpha  occ. eigenvalues --   -0.52761  -0.51107  -0.41516  -0.40981
 Alpha virt. eigenvalues --    0.02781   0.03439   0.04398   0.06036   0.06542
 Alpha virt. eigenvalues --    0.08152   0.09135   0.09595   0.09854   0.10792
 Alpha virt. eigenvalues --    0.12171   0.13245   0.13684   0.14278   0.14833

 Mulliken charges:
               1
     1  N    1.113300
     2  C   -2.825285
     3  C    2.278125
     4  C    0.879490
     5  O   -1.307811
     6  C   -0.094928
     7  C   -0.255367
     8  H   -0.161746
     9  H    0.440783
    10  H   -0.066560
 Sum of Mulliken charges =  -0.00000

 Dipole moment (field-independent basis, Debye):
    X=             -1.6215    Y=             -0.5334    Z=              0.6327  Tot=              1.8205

 Test job not archived.
 1\1\GINC-SE014\SP\RHF\Aug-CC-pVDZ\C5H3N1O1\OHZDE\09-Apr-2025\0\\#t hf
 aug-cc-pvdz iop(5/13=1,5/36=2,99/5=2) pseudo=read geom=check guess=(re
 ad,tcheck) scf=(maxcycle=1)\\title\\0,1\N,0,2.89128631,-0.52686879,-0.
 90265473\C,0,1.83460714,-0.2708252,-0.53249517\C,0,0.52404836,0.022240
 15,-0.07457947\C,0,0.00333055,1.23164189,0.21172493\O,0,-1.27694295,1.
 13623709,0.5922541\C,0,-1.69045029,-0.1856247,0.68259825\C,0,-0.562765
 72,-0.90498196,0.19248457\H,0,0.43643302,2.21979963,0.1725354\H,0,-1.5
 8289344,-0.71415008,-0.54972153\H,0,-0.49521697,-1.98399003,0.21177265

 Normal termination of Gaussian 16 at Wed Apr  9 18:30:31 2025.
