 Gaussian 16, Revision C.01,

 ----------------------------------------------------------------------
 #t hf aug-cc-pvdz symm=none int=(grid=ultrafine) guess=(read,tcheck) s
 table=(opt,rrhf)
 ----------------------------------------------------------------------
 -----
 title
 -----
 Symbolic Z-matrix:
 Charge =  0 Multiplicity = 1

 SCF Done:  E(RHF) =  -317.598366196     A.U. after   17 cycles
 Normal termination of Gaussian 16 at Wed Apr  9 19:14:45 2025.
 Gaussian 16:  ES64L-G16RevC.01  3-Jul-2019

 ----------------------------------------------------------------------
 #t hf aug-cc-pvdz iop(5/13=1,5/36=2,99/5=2) pseudo=read geom=check gue
 ss=(read,tcheck) scf=(maxcycle=1)
 ----------------------------------------------------------------------
 -----
 title
 -----
 Structure from the checkpoint file:  "Grambow2020_wb97xd3_008974_forward_mol1.chk"
 Charge =  0 Multiplicity = 1

                         Standard orientation:
 ---------------------------------------------------------------------
 Center     Atomic      Atomic             Coordinates (Angstroms)
 Number     Number       Type             X           Y           Z
 ---------------------------------------------------------------------
      1          7           0        2.124345   -0.039217   -0.363387
      2          6           0        0.924228    0.171151    0.113428
      3          6           0        0.303833   -1.115045    0.291772
      4          7           0       -1.027281   -1.250055   -0.026369
      5          6           0       -1.656784   -0.143537   -0.252672
      6          7           0       -1.188080    1.134802   -0.019088
      7          6           0        0.066768    1.313239    0.238878
      8          1           0        2.853484    0.662514   -0.241941
      9          1           0        1.582089   -1.340839   -0.311482
     10          1           0        0.644880   -1.710458    1.140253
     11          1           0       -2.693156   -0.194117   -0.566919
     12          1           0        0.421550    2.309335    0.493561
 ---------------------------------------------------------------------

 SCF Done:  E(RHF) =  -317.917362640     A.U. after    2 cycles

 The electronic state is 1-A.
 Alpha  occ. eigenvalues --  -15.53757 -15.53295 -15.51689 -11.32621 -11.32119
 Alpha  occ. eigenvalues --  -11.30772 -11.26171  -1.32360  -1.25227  -1.21066
 Alpha  occ. eigenvalues --   -1.03317  -0.94167  -0.89384  -0.80179  -0.75402
 Alpha  occ. eigenvalues --   -0.72558  -0.64559  -0.63711  -0.59376  -0.56916
 Alpha  occ. eigenvalues --   -0.52990  -0.51183  -0.45597  -0.44060  -0.35059
 Alpha virt. eigenvalues --    0.01395   0.02713   0.04429   0.04608   0.05372
 Alpha virt. eigenvalues --    0.06668   0.09193   0.09637   0.09695   0.10037
 Alpha virt. eigenvalues --    0.10527   0.12547   0.13112   0.14079   0.14466

 Mulliken charges:
               1
     1  N    0.728248
     2  C   -1.156870
     3  C   -0.863774
     4  N    0.800939
     5  C   -0.635618
     6  N    0.831342
     7  C   -0.339352
     8  H    0.063043
     9  H    0.635043
    10  H    0.024600
    11  H   -0.022457
    12  H   -0.065144
 Sum of Mulliken charges =  -0.00000

 Dipole moment (field-independent basis, Debye):
    X=              2.2964    Y=              2.0489    Z=              1.1813  Tot=              3.2965

 Test job not archived.
 1\1\GINC-SE083\SP\RHF\Aug-CC-pVDZ\C4H5N3\OHZDE\09-Apr-2025\0\\#t hf au
 g-cc-pvdz iop(5/13=1,5/36=2,99/5=2) pseudo=read geom=check guess=(read
 ,tcheck) scf=(maxcycle=1)\\title\\0,1\N,0,-1.89008169,0.12238076,-0.51
 738539\C,0,-0.73986859,-0.08664067,0.07015909\C,0,0.01068123,1.1384882
 9,-0.01188704\N,0,1.35996056,1.06426682,-0.26731549\C,0,1.87239712,-0.
 12057533,-0.19365247\N,0,1.25729951,-1.25633736,0.2963432\C,0,-0.01865
 915,-1.24568867,0.50811344\H,0,-2.69609897,-0.45652379,-0.28495115\H,0
 ,-1.21051041,1.34041904,-0.73074089\H,0,-0.29570274,1.94669926,0.65420

 Normal termination of Gaussian 16 at Wed Apr  9 19:14:50 2025.
