 Gaussian 16, Revision C.01,

 ----------------------------------------------------------------------
 #t hf aug-cc-pvdz symm=none int=(grid=ultrafine) guess=(read,tcheck) s
 table=(opt,rrhf)
 ----------------------------------------------------------------------
 -----
 title
 -----
 Symbolic Z-matrix:
 Charge =  0 Multiplicity = 1

 SCF Done:  E(RHF) =  -305.735593604     A.U. after   15 cycles
 Normal termination of Gaussian 16 at Wed Apr  9 16:29:57 2025.
 Gaussian 16:  ES64L-G16RevC.01  3-Jul-2019

 ----------------------------------------------------------------------
 #t hf aug-cc-pvdz iop(5/13=1,5/36=2,99/5=2) pseudo=read geom=check gue
 ss=(read,tcheck) scf=(maxcycle=1)
 ----------------------------------------------------------------------
 -----
 title
 -----
 Structure from the checkpoint file:  "Grambow2020_wb97xd3_006134_reverse_mol2.chk"
 Charge =  0 Multiplicity = 1

                         Standard orientation:
 ---------------------------------------------------------------------
 Center     Atomic      Atomic             Coordinates (Angstroms)
 Number     Number       Type             X           Y           Z
 ---------------------------------------------------------------------
      1          8           0       -2.209032   -0.440442    0.071794
      2          6           0       -1.239547    0.494658   -0.371505
      3          6           0       -0.019339    0.375186    0.515656
      4          6           0        0.732385   -0.924976    0.345515
      5          8           0        1.872234   -0.438732   -0.434225
      6          6           0        1.143960    1.240655    0.007671
      7          1           0       -2.996902   -0.354211   -0.465725
      8          1           0       -1.617532    1.522540   -0.323226
      9          1           0       -0.951537    0.302909   -1.415326
     10          1           0       -0.311105    0.558491    1.553840
     11          1           0        1.158089   -1.311052    1.268986
     12          1           0        0.204601   -1.725741   -0.176778
     13          1           0        1.844666    1.376317    0.844534
     14          1           0        1.659354   -0.448999   -1.370874
 ---------------------------------------------------------------------

 SCF Done:  E(RHF) =  -306.051412196     A.U. after    2 cycles

 The electronic state is 1-A.
 Alpha  occ. eigenvalues --  -20.59461 -20.55283 -11.30794 -11.28346 -11.25472
 Alpha  occ. eigenvalues --  -11.23628  -1.49432  -1.45499  -1.08347  -0.93717
 Alpha  occ. eigenvalues --   -0.89133  -0.76923  -0.71852  -0.69408  -0.67621
 Alpha  occ. eigenvalues --   -0.62813  -0.60789  -0.57338  -0.55020  -0.51241
 Alpha  occ. eigenvalues --   -0.48350  -0.47412  -0.44248  -0.33157
 Alpha virt. eigenvalues --    0.03154   0.03815   0.03946   0.04745   0.06285
 Alpha virt. eigenvalues --    0.06796   0.07009   0.07381   0.11097   0.12240
 Alpha virt. eigenvalues --    0.13161   0.13423   0.14183   0.15113   0.15470

 Mulliken charges:
               1
     1  O   -1.159128
     2  C    0.926227
     3  C   -0.806012
     4  C    0.887030
     5  O   -1.098994
     6  C    0.040723
     7  H    0.298108
     8  H    0.142316
     9  H    0.185099
    10  H    0.058431
    11  H    0.014601
    12  H    0.087376
    13  H    0.062849
    14  H    0.361374
 Sum of Mulliken charges =  -0.00000

 Dipole moment (field-independent basis, Debye):
    X=             -1.3997    Y=             -1.8552    Z=             -0.5057  Tot=              2.3783

 Test job not archived.
 1\1\GINC-SE114\SP\RHF\Aug-CC-pVDZ\C4H8O2\OHZDE\09-Apr-2025\0\\#t hf au
 g-cc-pvdz iop(5/13=1,5/36=2,99/5=2) pseudo=read geom=check guess=(read
 ,tcheck) scf=(maxcycle=1)\\title\\0,1\O,0,1.92961078,1.05743327,-0.140
 98418\C,0,1.29222344,-0.14621518,0.25372522\C,0,-0.15232175,0.16314603
 ,0.5820832\C,0,-0.98118497,0.54936231,-0.62136231\O,0,-1.73205877,-0.6
 9475309,-0.80038781\C,0,-0.96015059,-1.11253551,0.86562848\H,0,2.85225
 332,0.87826154,-0.32464221\H,0,1.77248691,-0.58799434,1.13459077\H,0,1
 .33092403,-0.89725844,-0.54859358\H,0,-0.18685673,0.91628981,1.3746342

 Normal termination of Gaussian 16 at Wed Apr  9 16:30:01 2025.
