 Gaussian 16, Revision C.01,

 ----------------------------------------------------------------------
 #t hf aug-cc-pvdz symm=none int=(grid=ultrafine) guess=(read,tcheck) s
 table=(opt,rrhf)
 ----------------------------------------------------------------------
 -----
 title
 -----
 Symbolic Z-matrix:
 Charge =  0 Multiplicity = 1

 SCF Done:  E(RHF) =  -339.132887518     A.U. after   17 cycles
 Normal termination of Gaussian 16 at Wed Apr  9 15:50:35 2025.
 Gaussian 16:  ES64L-G16RevC.01  3-Jul-2019

 ----------------------------------------------------------------------
 #t hf aug-cc-pvdz iop(5/13=1,5/36=2,99/5=2) pseudo=read geom=check gue
 ss=(read,tcheck) scf=(maxcycle=1)
 ----------------------------------------------------------------------
 -----
 title
 -----
 Structure from the checkpoint file:  "Grambow2020_b97d3_006820_reverse_mol2.chk"
 Charge =  0 Multiplicity = 1

                         Standard orientation:
 ---------------------------------------------------------------------
 Center     Atomic      Atomic             Coordinates (Angstroms)
 Number     Number       Type             X           Y           Z
 ---------------------------------------------------------------------
      1          8           0        1.918971   -0.501177   -0.614794
      2          6           0        1.489006    0.438758   -0.007672
      3          6           0       -2.083537    0.772814   -0.651832
      4          8           0        0.288501    0.563211    0.655019
      5          6           0       -1.631251   -0.372983   -0.119342
      6          8           0       -0.496241   -0.714904    0.554044
      7          1           0        1.972362    1.422549    0.161361
      8          1           0       -2.307519   -1.231122   -0.242443
 ---------------------------------------------------------------------

 SCF Done:  E(RHF) =  -339.452154412     A.U. after    2 cycles

 The electronic state is 1-A.
 Alpha  occ. eigenvalues --  -20.70029 -20.69945 -20.58643 -11.43718 -11.34164
 Alpha  occ. eigenvalues --  -11.33038  -1.65520  -1.52141  -1.40784  -1.05370
 Alpha  occ. eigenvalues --   -0.90423  -0.78746  -0.76915  -0.73680  -0.69711
 Alpha  occ. eigenvalues --   -0.64601  -0.61664  -0.58659  -0.51780  -0.49041
 Alpha  occ. eigenvalues --   -0.47956  -0.40431
 Alpha virt. eigenvalues --    0.02197   0.03683   0.03872   0.07084   0.08391
 Alpha virt. eigenvalues --    0.09539   0.10425   0.11293   0.11592   0.12537
 Alpha virt. eigenvalues --    0.14101   0.14315   0.15475   0.15732   0.16486

 Mulliken charges:
               1
     1  O   -0.885336
     2  C    1.371057
     3  C   -0.244391
     4  O   -0.616151
     5  C    0.892411
     6  O   -0.803646
     7  H    0.170641
     8  H    0.115416
 Sum of Mulliken charges =  -0.00000

 Dipole moment (field-independent basis, Debye):
    X=              0.0605    Y=              0.0991    Z=              1.1648  Tot=              1.1706

 Test job not archived.
 1\1\GINC-SE131\SP\RHF\Aug-CC-pVDZ\C3H2O3\OHZDE\09-Apr-2025\0\\#t hf au
 g-cc-pvdz iop(5/13=1,5/36=2,99/5=2) pseudo=read geom=check guess=(read
 ,tcheck) scf=(maxcycle=1)\\title\\0,1\O,0,-2.13292146,0.26019774,0.109
 87042\C,0,-1.20554486,0.91565689,0.49365522\C,0,1.72917038,-1.21784241
 ,0.84752855\O,0,0.11731039,0.84343358,0.11855573\C,0,1.1414117,-1.1283
 5335,-0.3555885\O,0,0.30363871,-0.21842733,-0.92897892\H,0,-1.211037,1
 .73792189,1.23790019\H,0,1.37360613,-1.95756801,-1.03924369\\Version=E
 S64L-G16RevC.01\State=1-A\HF=-339.4521544\RMSD=7.930e-03\Dipole=0.1665

 Normal termination of Gaussian 16 at Wed Apr  9 15:50:37 2025.
