 Gaussian 16, Revision C.01,

 ----------------------------------------------------------------------
 #t hf aug-cc-pvdz symm=none int=(grid=ultrafine) guess=(read,tcheck) s
 table=(opt,rrhf)
 ----------------------------------------------------------------------
 -----
 title
 -----
 Symbolic Z-matrix:
 Charge =  0 Multiplicity = 1

 SCF Done:  E(RHF) =  -353.455409893     A.U. after   17 cycles
 Normal termination of Gaussian 16 at Wed Apr  9 18:36:11 2025.
 Gaussian 16:  ES64L-G16RevC.01  3-Jul-2019

 ----------------------------------------------------------------------
 #t hf aug-cc-pvdz iop(5/13=1,5/36=2,99/5=2) pseudo=read geom=check gue
 ss=(read,tcheck) scf=(maxcycle=1)
 ----------------------------------------------------------------------
 -----
 title
 -----
 Structure from the checkpoint file:  "Grambow2020_wb97xd3_007764_reverse_mol1.chk"
 Charge =  0 Multiplicity = 1

                         Standard orientation:
 ---------------------------------------------------------------------
 Center     Atomic      Atomic             Coordinates (Angstroms)
 Number     Number       Type             X           Y           Z
 ---------------------------------------------------------------------
      1          8           0       -2.637658    0.187492   -0.168391
      2          6           0       -1.772860   -0.603753    0.093394
      3          7           0       -0.398015   -0.344993    0.074190
      4          6           0        0.022465    0.869143    0.078190
      5          7           0        1.364983    1.163029    0.017485
      6          6           0        1.924437    0.001232   -0.046196
      7          7           0        1.838040   -1.216781   -0.061097
      8          1           0       -1.991655   -1.647205    0.364502
      9          1           0       -0.640291    1.728308    0.144798
     10          1           0        3.053906   -0.389553   -0.128543
 ---------------------------------------------------------------------

 SCF Done:  E(RHF) =  -353.802778708     A.U. after    2 cycles

 The electronic state is 1-A.
 Alpha  occ. eigenvalues --  -20.53956 -15.65112 -15.53181 -15.50856 -11.40465
 Alpha  occ. eigenvalues --  -11.36605 -11.36121  -1.48533  -1.37950  -1.29354
 Alpha  occ. eigenvalues --   -1.21447  -0.96108  -0.86717  -0.79882  -0.73964
 Alpha  occ. eigenvalues --   -0.70851  -0.68143  -0.67887  -0.65146  -0.58858
 Alpha  occ. eigenvalues --   -0.55600  -0.52133  -0.50104  -0.43990  -0.43252
 Alpha virt. eigenvalues --   -0.00372   0.03159   0.04809   0.05092   0.05419
 Alpha virt. eigenvalues --    0.08560   0.09048   0.09103   0.09224   0.10122
 Alpha virt. eigenvalues --    0.12964   0.13205   0.13602   0.15777   0.16034

 Mulliken charges:
               1
     1  O   -1.044914
     2  C    0.551498
     3  N    0.740605
     4  C   -0.805945
     5  N    0.672785
     6  C   -1.310165
     7  N    0.832541
     8  H    0.083478
     9  H   -0.064999
    10  H    0.345116
 Sum of Mulliken charges =  -0.00000

 Dipole moment (field-independent basis, Debye):
    X=              3.7312    Y=             -0.6438    Z=              0.4622  Tot=              3.8144

 Test job not archived.
 1\1\GINC-SE029\SP\RHF\Aug-CC-pVDZ\C3H3N3O1\OHZDE\09-Apr-2025\0\\#t hf
 aug-cc-pvdz iop(5/13=1,5/36=2,99/5=2) pseudo=read geom=check guess=(re
 ad,tcheck) scf=(maxcycle=1)\\title\\0,1\O,0,2.64097614,0.80138487,0.18
 466704\C,0,1.95296576,-0.18240604,0.22036535\N,0,0.55896589,-0.2070893
 1,0.10340066\C,0,-0.05917685,0.8137511,-0.37276118\N,0,-1.43150479,0.8
 4256198,-0.46384361\C,0,-1.78901332,-0.29905132,0.02166856\N,0,-1.4988
 8013,-1.38429312,0.50053774\H,0,2.37127345,-1.18848691,0.3719618\H,0,0
 .45131695,1.69917577,-0.74325557\H,0,-2.83825711,-0.84344702,0.2163901

 Normal termination of Gaussian 16 at Wed Apr  9 18:36:14 2025.
