 Gaussian 16, Revision C.01,

 ----------------------------------------------------------------------
 #t hf aug-cc-pvdz symm=none int=(grid=ultrafine) guess=(read,tcheck) s
 table=(opt,rrhf)
 ----------------------------------------------------------------------
 -----
 title
 -----
 Symbolic Z-matrix:
 Charge =  0 Multiplicity = 1

 SCF Done:  E(RHF) =  -309.044328977     A.U. after   14 cycles

 1\1\GINC-SE166\Stability\RHF\Aug-CC-pVDZ\C6H12O1\OHZDE\09-Apr-2025\0\\
 #t hf aug-cc-pvdz symm=none int=(grid=ultrafine) guess=(read,tcheck) s
 table=(opt,rrhf)\\title\\0,1\C,0,0.50324189,-0.21543335,-2.17855045\C,
 0,0.73134427,-0.2892777,1.17866886\O,0,1.46106932,-0.47131086,2.302645
 87\C,0,0.91011379,0.57431249,0.18284421\C,0,-0.11077867,0.37394951,-0.
 90893829\C,0,-1.14547884,-0.56683396,-0.23923932\C,0,-0.44103219,-1.19
 762107,0.97376003\H,0,1.28300889,0.4364431,-2.57907582\H,0,-0.25280837
 ,-0.35140638,-2.95587846\H,0,0.95737509,-1.18823168,-1.97152339\H,0,2.

 Normal termination of Gaussian 16 at Wed Apr  9 03:59:02 2025.
 Gaussian 16:  ES64L-G16RevC.01  3-Jul-2019

 ----------------------------------------------------------------------
 #t hf aug-cc-pvdz iop(5/13=1,5/36=2,99/5=2) pseudo=read geom=check gue
 ss=(read,tcheck) scf=(maxcycle=1)
 ----------------------------------------------------------------------
 -----
 title
 -----
 Structure from the checkpoint file:  "Grambow2020_wb97xd3_008663_reverse_mol2.chk"
 Charge =  0 Multiplicity = 1

                         Standard orientation:
 ---------------------------------------------------------------------
 Center     Atomic      Atomic             Coordinates (Angstroms)
 Number     Number       Type             X           Y           Z
 ---------------------------------------------------------------------
      1          6           0        2.210269   -0.755575   -0.517323
      2          6           0       -1.086563   -0.209314   -0.116196
      3          8           0       -2.371974   -0.561038   -0.346344
      4          6           0       -0.109567   -0.901038    0.463813
      5          6           0        1.191854   -0.139355    0.441536
      6          6           0        0.745539    1.285345    0.022956
      7          6           0       -0.652669    1.139158   -0.600862
      8          1           0        2.442049   -1.785930   -0.237955
      9          1           0        3.144947   -0.189256   -0.517222
     10          1           0        1.819923   -0.768025   -1.538553
     11          1           0       -2.521120   -1.453392   -0.024855
     12          1           0       -0.665219    0.551723    2.851971
     13          1           0       -0.199993   -1.910916    0.848120
     14          1           0       -0.640305    0.890282    3.517127
     15          1           0        1.643483   -0.107936    1.438849
     16          1           0        1.459951    1.749714   -0.658802
     17          1           0        0.684059    1.922703    0.906445
     18          1           0       -0.638808    1.153672   -1.695108
     19          1           0       -1.346349    1.920348   -0.282810
 ---------------------------------------------------------------------

 SCF Done:  E(RHF) =  -309.379320921     A.U. after    2 cycles

 The electronic state is 1-A.
 Alpha  occ. eigenvalues --  -20.57746 -11.29311 -11.23306 -11.23143 -11.22554
 Alpha  occ. eigenvalues --  -11.21857 -11.21135  -1.49365  -1.13931  -1.00651
 Alpha  occ. eigenvalues --   -0.96782  -0.89563  -0.78205  -0.77599  -0.69984
 Alpha  occ. eigenvalues --   -0.65100  -0.64063  -0.58653  -0.58297  -0.57789
 Alpha  occ. eigenvalues --   -0.55510  -0.53674  -0.52643  -0.51271  -0.48120
 Alpha  occ. eigenvalues --   -0.47263  -0.46599  -0.33005
 Alpha virt. eigenvalues --    0.03188   0.03793   0.04101   0.04327   0.05645
 Alpha virt. eigenvalues --    0.06115   0.06299   0.06646   0.07589   0.09252
 Alpha virt. eigenvalues --    0.09371   0.11296   0.11924   0.13215   0.14220

 Mulliken charges:
               1
     1  C   -0.357042
     2  C    1.224815
     3  O   -1.671841
     4  C    0.528880
     5  C   -0.865121
     6  C    0.078493
     7  C   -0.385028
     8  H    0.134503
     9  H    0.150775
    10  H    0.234399
    11  H    0.345077
    12  H    0.023823
    13  H   -0.210851
    14  H    0.000175
    15  H    0.123709
    16  H    0.134751
    17  H    0.113411
    18  H    0.210674
    19  H    0.186398
 Sum of Mulliken charges =  -0.00000

 Dipole moment (field-independent basis, Debye):
    X=              0.3962    Y=             -0.7102    Z=              0.2880  Tot=              0.8628

 Test job not archived.
 1\1\GINC-SE166\SP\RHF\Aug-CC-pVDZ\C6H12O1\OHZDE\09-Apr-2025\0\\#t hf a
 ug-cc-pvdz iop(5/13=1,5/36=2,99/5=2) pseudo=read geom=check guess=(rea
 d,tcheck) scf=(maxcycle=1)\\title\\0,1\C,0,0.50324189,-0.21543335,-2.1
 7855045\C,0,0.73134427,-0.2892777,1.17866886\O,0,1.46106932,-0.4713108
 6,2.30264587\C,0,0.91011379,0.57431249,0.18284421\C,0,-0.11077867,0.37
 394951,-0.90893829\C,0,-1.14547884,-0.56683396,-0.23923932\C,0,-0.4410
 3219,-1.19762107,0.97376003\H,0,1.28300889,0.4364431,-2.57907582\H,0,-
 0.25280837,-0.35140638,-2.95587846\H,0,0.95737509,-1.18823168,-1.97152

 Normal termination of Gaussian 16 at Wed Apr  9 03:59:10 2025.
