 Gaussian 16, Revision C.01,

 ----------------------------------------------------------------------
 #t hf aug-cc-pvdz symm=none int=(grid=ultrafine) guess=(read,tcheck) s
 table=(opt,rrhf)
 ----------------------------------------------------------------------
 -----
 title
 -----
 Symbolic Z-matrix:
 Charge =  0 Multiplicity = 1

 SCF Done:  E(RHF) =  -343.481993792     A.U. after   16 cycles
 Normal termination of Gaussian 16 at Wed Apr  9 03:58:47 2025.
 Gaussian 16:  ES64L-G16RevC.01  3-Jul-2019

 ----------------------------------------------------------------------
 #t hf aug-cc-pvdz iop(5/13=1,5/36=2,99/5=2) pseudo=read geom=check gue
 ss=(read,tcheck) scf=(maxcycle=1)
 ----------------------------------------------------------------------
 -----
 title
 -----
 Structure from the checkpoint file:  "Grambow2020_wb97xd3_008657_forward_mol1.chk"
 Charge =  0 Multiplicity = 1

                         Standard orientation:
 ---------------------------------------------------------------------
 Center     Atomic      Atomic             Coordinates (Angstroms)
 Number     Number       Type             X           Y           Z
 ---------------------------------------------------------------------
      1          6           0       -2.417756    0.424955   -0.122158
      2          6           0       -1.019639   -0.599976    0.941270
      3          8           0       -0.934358   -0.287861   -0.754631
      4          6           0        0.123021   -0.164342    0.163357
      5          6           0        1.412571   -0.897668   -0.185988
      6          8           0        2.148451    0.332227   -0.106942
      7          6           0        0.977921    1.090164    0.241285
      8          1           0       -3.158866   -0.096639    0.472401
      9          1           0       -2.178857    1.393030    0.297636
     10          1           0       -2.749378    0.494671   -1.158636
     11          1           0       -1.071218   -1.695789    0.954996
     12          1           0        1.753682   -1.627155    0.553485
     13          1           0        1.433590   -1.336054   -1.186923
     14          1           0        0.743982    1.857097   -0.502725
     15          1           0        1.057614    1.537112    1.235754
 ---------------------------------------------------------------------

 SCF Done:  E(RHF) =  -343.834175285     A.U. after    2 cycles

 The electronic state is 1-A.
 Alpha  occ. eigenvalues --  -20.59062 -20.54059 -11.33756 -11.29447 -11.28827
 Alpha  occ. eigenvalues --  -11.28577 -11.25697  -1.48837  -1.46068  -1.02256
 Alpha  occ. eigenvalues --   -0.96662  -0.94848  -0.90221  -0.74802  -0.69820
 Alpha  occ. eigenvalues --   -0.68553  -0.64895  -0.61967  -0.60806  -0.57933
 Alpha  occ. eigenvalues --   -0.57518  -0.53821  -0.51209  -0.45712  -0.44006
 Alpha  occ. eigenvalues --   -0.41493  -0.33602
 Alpha virt. eigenvalues --    0.03186   0.03921   0.04168   0.04340   0.06174
 Alpha virt. eigenvalues --    0.06553   0.06649   0.07275   0.09294   0.11016
 Alpha virt. eigenvalues --    0.12088   0.12932   0.13883   0.14048   0.14306

 Mulliken charges:
               1
     1  C    0.075791
     2  C   -0.387014
     3  O   -1.382140
     4  C    0.842948
     5  C    0.448476
     6  O   -1.275338
     7  C    0.623733
     8  H    0.193285
     9  H    0.210294
    10  H    0.054553
    11  H    0.067127
    12  H    0.121761
    13  H    0.147215
    14  H    0.133847
    15  H    0.125461
 Sum of Mulliken charges =   0.00000

 Dipole moment (field-independent basis, Debye):
    X=             -2.3522    Y=              0.1234    Z=             -0.0739  Tot=              2.3566

 Test job not archived.
 1\1\GINC-SE021\SP\RHF\Aug-CC-pVDZ\C5H8O2\OHZDE\09-Apr-2025\0\\#t hf au
 g-cc-pvdz iop(5/13=1,5/36=2,99/5=2) pseudo=read geom=check guess=(read
 ,tcheck) scf=(maxcycle=1)\\title\\0,1\C,0,2.18756181,-0.22859089,0.067
 40438\C,0,0.54324642,0.20261205,1.18382103\O,0,0.75913982,0.6553376,-0
 .46820715\C,0,-0.41245348,0.12265982,0.0971551\C,0,-1.69732205,0.90648
 149,-0.14260134\O,0,-2.30954139,-0.25174074,-0.7292157\C,0,-1.13894528
 ,-1.05985465,-0.52299152\H,0,2.76922864,-0.00046868,0.95308416\H,0,1.9
 8338195,-1.28791737,-0.01386613\H,0,2.68434141,0.1655336,-0.81972359\H

 Normal termination of Gaussian 16 at Wed Apr  9 03:58:52 2025.
