 Gaussian 16, Revision C.01,

 ----------------------------------------------------------------------
 #t hf aug-cc-pvdz symm=none int=(grid=ultrafine) guess=(read,tcheck) s
 table=(opt,rrhf)
 ----------------------------------------------------------------------
 -----
 title
 -----
 Symbolic Z-matrix:
 Charge =  0 Multiplicity = 1

 SCF Done:  E(RHF) =  -359.608445379     A.U. after   16 cycles
 Normal termination of Gaussian 16 at Wed Apr  9 18:56:44 2025.
 Gaussian 16:  ES64L-G16RevC.01  3-Jul-2019

 ----------------------------------------------------------------------
 #t hf aug-cc-pvdz iop(5/13=1,5/36=2,99/5=2) pseudo=read geom=check gue
 ss=(read,tcheck) scf=(maxcycle=1)
 ----------------------------------------------------------------------
 -----
 title
 -----
 Structure from the checkpoint file:  "Grambow2020_wb97xd3_008365_reverse_mol2.chk"
 Charge =  0 Multiplicity = 1

                         Standard orientation:
 ---------------------------------------------------------------------
 Center     Atomic      Atomic             Coordinates (Angstroms)
 Number     Number       Type             X           Y           Z
 ---------------------------------------------------------------------
      1          8           0       -2.794911    0.221047   -0.463646
      2          6           0       -2.258166   -0.133972    0.665419
      3          6           0        0.671200   -1.238255   -0.537907
      4          7           0        1.990777   -1.028665    0.009789
      5          6           0        0.867761   -0.364537    0.655061
      6          6           0        0.719129    1.101083    0.430027
      7          8           0        1.276054    1.672980   -0.473228
      8          1           0       -3.195805   -0.496963   -0.978368
      9          1           0       -2.395110   -1.239964    0.771917
     10          1           0        0.412564   -0.739797   -1.466604
     11          1           0        0.261477   -2.232387   -0.399991
     12          1           0        2.479664   -0.333342   -0.548728
     13          1           0        0.588717   -0.731144    1.635641
     14          1           0        0.064373    1.636112    1.136999
 ---------------------------------------------------------------------

 SCF Done:  E(RHF) =  -359.973130209     A.U. after    2 cycles

 The electronic state is 1-A.
 Alpha  occ. eigenvalues --  -20.64388 -20.54493 -15.51156 -11.34008 -11.33354
 Alpha  occ. eigenvalues --  -11.28177 -11.27660  -1.56090  -1.48018  -1.28648
 Alpha  occ. eigenvalues --   -0.96245  -0.90760  -0.89921  -0.79745  -0.76683
 Alpha  occ. eigenvalues --   -0.74084  -0.69101  -0.64220  -0.60539  -0.60212
 Alpha  occ. eigenvalues --   -0.58536  -0.55060  -0.53197  -0.51162  -0.42849
 Alpha  occ. eigenvalues --   -0.42447  -0.38852
 Alpha virt. eigenvalues --    0.01890   0.03786   0.04474   0.05062   0.06215
 Alpha virt. eigenvalues --    0.06526   0.07284   0.08601   0.10159   0.10849
 Alpha virt. eigenvalues --    0.11788   0.12626   0.13163   0.13610   0.14462

 Mulliken charges:
               1
     1  O   -0.769886
     2  C    0.351647
     3  C    0.168154
     4  N    0.369486
     5  C   -0.264190
     6  C    0.963088
     7  O   -1.205946
     8  H    0.332755
     9  H    0.099910
    10  H   -0.094973
    11  H   -0.095661
    12  H    0.205626
    13  H   -0.208873
    14  H    0.148863
 Sum of Mulliken charges =   0.00000

 Dipole moment (field-independent basis, Debye):
    X=             -3.9903    Y=             -2.8621    Z=             -0.6403  Tot=              4.9522

 Test job not archived.
 1\1\GINC-SE131\SP\RHF\Aug-CC-pVDZ\C4H7N1O2\OHZDE\09-Apr-2025\0\\#t hf
 aug-cc-pvdz iop(5/13=1,5/36=2,99/5=2) pseudo=read geom=check guess=(re
 ad,tcheck) scf=(maxcycle=1)\\title\\0,1\O,0,-1.21544855,-2.13665869,1.
 32046699\C,0,-0.75164747,-2.12749807,0.10649612\C,0,-0.55267146,1.1967
 6645,-0.29136573\N,0,0.50905049,1.95393097,-0.9115527\C,0,0.68856589,0
 .51713792,-0.76320114\C,0,1.62788284,0.0512784,0.29577548\O,0,1.984913
 73,0.76572012,1.19866068\H,0,-2.17218353,-1.99807164,1.40198522\H,0,-1
 .61491564,-1.95028706,-0.58392313\H,0,-0.68359396,1.27587542,0.7830783

 Normal termination of Gaussian 16 at Wed Apr  9 18:56:49 2025.
