 Gaussian 16, Revision C.01,

 ----------------------------------------------------------------------
 #t hf aug-cc-pvdz symm=none int=(grid=ultrafine) guess=(read,tcheck) s
 table=(opt,rrhf)
 ----------------------------------------------------------------------
 -----
 title
 -----
 Symbolic Z-matrix:
 Charge =  0 Multiplicity = 1

 SCF Done:  E(RHF) =  -335.419031407     A.U. after   15 cycles
 Normal termination of Gaussian 16 at Wed Apr  9 15:44:36 2025.
 Gaussian 16:  ES64L-G16RevC.01  3-Jul-2019

 ----------------------------------------------------------------------
 #t hf aug-cc-pvdz iop(5/13=1,5/36=2,99/5=2) pseudo=read geom=check gue
 ss=(read,tcheck) scf=(maxcycle=1)
 ----------------------------------------------------------------------
 -----
 title
 -----
 Structure from the checkpoint file:  "Grambow2020_b97d3_006736_forward_mol1.chk"
 Charge =  0 Multiplicity = 1

                         Standard orientation:
 ---------------------------------------------------------------------
 Center     Atomic      Atomic             Coordinates (Angstroms)
 Number     Number       Type             X           Y           Z
 ---------------------------------------------------------------------
      1          8           0       -1.955654   -0.038625    0.003561
      2          6           0       -0.684355   -0.154175   -0.005217
      3          7           0       -0.076081    1.040845   -0.004241
      4          6           0        1.256141    0.739716    0.002002
      5          7           0        1.520181   -0.549623    0.002684
      6          8           0        0.179273   -1.170527   -0.001339
      7          1           0       -1.395043    1.258050    0.010218
      8          1           0        2.066679    1.463369    0.002200
 ---------------------------------------------------------------------

 SCF Done:  E(RHF) =  -335.743458526     A.U. after    2 cycles

 The electronic state is 1-A.
 Alpha  occ. eigenvalues --  -20.66345 -20.58839 -15.59931 -15.55795 -11.45043
 Alpha  occ. eigenvalues --  -11.37509  -1.60142  -1.51115  -1.30850  -1.18778
 Alpha  occ. eigenvalues --   -0.94229  -0.87388  -0.79334  -0.72781  -0.68915
 Alpha  occ. eigenvalues --   -0.64486  -0.61478  -0.58003  -0.57292  -0.54039
 Alpha  occ. eigenvalues --   -0.50804  -0.43506
 Alpha virt. eigenvalues --    0.02762   0.04687   0.07370   0.08178   0.08872
 Alpha virt. eigenvalues --    0.09560   0.09896   0.12150   0.12315   0.13063
 Alpha virt. eigenvalues --    0.14625   0.16469   0.17734   0.18392   0.18791

 Mulliken charges:
               1
     1  O   -1.154168
     2  C    1.398122
     3  N    0.430247
     4  C   -0.825318
     5  N    0.906263
     6  O   -1.254621
     7  H    0.484318
     8  H    0.015157
 Sum of Mulliken charges =  -0.00000

 Dipole moment (field-independent basis, Debye):
    X=              0.7202    Y=              3.2340    Z=              0.0069  Tot=              3.3132

 Test job not archived.
 1\1\GINC-SE120\SP\RHF\Aug-CC-pVDZ\C2H2N2O2\OHZDE\09-Apr-2025\0\\#t hf
 aug-cc-pvdz iop(5/13=1,5/36=2,99/5=2) pseudo=read geom=check guess=(re
 ad,tcheck) scf=(maxcycle=1)\\title\\0,1\O,0,2.02281781,0.55836718,0.09
 175632\C,0,0.92838511,-0.08088148,0.24409813\N,0,-0.13916958,0.7111769
 ,0.0679111\C,0,-1.20774467,-0.12031897,0.24761866\N,0,-0.88461357,-1.3
 6588706,0.52377327\O,0,0.59287717,-1.34166941,0.5210251\H,0,0.95395367
 ,1.45877712,-0.11436083\H,0,-2.25237094,0.17171971,0.18347526\\Version
 =ES64L-G16RevC.01\State=1-A\HF=-335.7434585\RMSD=1.625e-02\Dipole=-0.8

 Normal termination of Gaussian 16 at Wed Apr  9 15:44:39 2025.
