 Gaussian 16, Revision C.01,

 ----------------------------------------------------------------------
 #t hf aug-cc-pvdz symm=none int=(grid=ultrafine) guess=(read,tcheck) s
 table=(opt,rrhf)
 ----------------------------------------------------------------------
 -----
 title
 -----
 Symbolic Z-matrix:
 Charge =  0 Multiplicity = 1

 SCF Done:  E(RHF) =  -359.528980600     A.U. after   17 cycles
 Normal termination of Gaussian 16 at Wed Apr  9 18:18:18 2025.
 Gaussian 16:  ES64L-G16RevC.01  3-Jul-2019

 ----------------------------------------------------------------------
 #t hf aug-cc-pvdz iop(5/13=1,5/36=2,99/5=2) pseudo=read geom=check gue
 ss=(read,tcheck) scf=(maxcycle=1)
 ----------------------------------------------------------------------
 -----
 title
 -----
 Structure from the checkpoint file:  "Grambow2020_wb97xd3_007295_forward_mol1.chk"
 Charge =  0 Multiplicity = 1

                         Standard orientation:
 ---------------------------------------------------------------------
 Center     Atomic      Atomic             Coordinates (Angstroms)
 Number     Number       Type             X           Y           Z
 ---------------------------------------------------------------------
      1          8           0        1.964390   -1.150702   -0.064598
      2          6           0        0.691769   -0.801230   -0.170100
      3          6           0       -1.769493   -0.929773    0.465329
      4          7           0       -1.641258   -0.024193   -0.608454
      5          6           0       -0.961840    1.124244   -0.064918
      6          6           0        0.449073    0.595652    0.054633
      7          8           0        1.421798    1.343724    0.195247
      8          1           0        2.432015   -0.310160    0.128942
      9          1           0        0.047158   -1.561999   -0.559334
     10          1           0       -2.010629   -1.959238    0.226076
     11          1           0       -1.472307   -0.660077    1.475522
     12          1           0       -2.731348   -0.240478    0.090800
     13          1           0       -1.352266    1.463464    0.905097
     14          1           0       -0.970378    1.960301   -0.762789
 ---------------------------------------------------------------------

 SCF Done:  E(RHF) =  -359.894269077     A.U. after    2 cycles

 The electronic state is 1-A.
 Alpha  occ. eigenvalues --  -20.57726 -20.50513 -15.59865 -11.34709 -11.32459
 Alpha  occ. eigenvalues --  -11.31834 -11.29575  -1.51081  -1.43367  -1.31112
 Alpha  occ. eigenvalues --   -1.04720  -0.96934  -0.87987  -0.80518  -0.73621
 Alpha  occ. eigenvalues --   -0.73042  -0.71287  -0.66613  -0.61752  -0.59742
 Alpha  occ. eigenvalues --   -0.58072  -0.57516  -0.54395  -0.53343  -0.48508
 Alpha  occ. eigenvalues --   -0.41604  -0.26546
 Alpha virt. eigenvalues --   -0.00337   0.02815   0.03834   0.04164   0.05121
 Alpha virt. eigenvalues --    0.06075   0.06315   0.07413   0.09103   0.11271
 Alpha virt. eigenvalues --    0.12583   0.13440   0.13617   0.14550   0.14784

 Mulliken charges:
               1
     1  O   -1.295407
     2  C    0.905278
     3  C   -0.530145
     4  N    0.301111
     5  C   -0.775072
     6  C    1.371952
     7  O   -1.512989
     8  H    0.321393
     9  H    0.039292
    10  H   -0.001647
    11  H    0.190589
    12  H    0.637383
    13  H    0.204978
    14  H    0.143285
 Sum of Mulliken charges =  -0.00000

 Dipole moment (field-independent basis, Debye):
    X=             -4.1375    Y=             -1.5809    Z=              1.4960  Tot=              4.6750

 Test job not archived.
 1\1\GINC-SE173\SP\RHF\Aug-CC-pVDZ\C4H7N1O2\OHZDE\09-Apr-2025\0\\#t hf
 aug-cc-pvdz iop(5/13=1,5/36=2,99/5=2) pseudo=read geom=check guess=(re
 ad,tcheck) scf=(maxcycle=1)\\title\\0,1\O,0,2.34444279,-0.69057785,0.6
 9384681\C,0,1.14849413,-0.17875826,0.44773331\C,0,-0.4318785,1.5538237
 3,-0.54155273\N,0,-1.20342284,0.61815003,0.17869827\C,0,-1.13481916,-0
 .6041292,-0.58108829\C,0,0.26992276,-1.06307389,-0.26415389\O,0,0.6440
 1772,-2.22278765,-0.46588364\H,0,2.3019665,-1.59744359,0.3217829\H,0,0
 .94525058,0.74811438,0.94310706\H,0,-0.12872789,2.45693843,-0.02418254

 Normal termination of Gaussian 16 at Wed Apr  9 18:18:23 2025.
