 Gaussian 16, Revision C.01,

 ----------------------------------------------------------------------
 #t hf aug-cc-pvdz symm=none int=(grid=ultrafine) guess=(read,tcheck) s
 table=(opt,rrhf)
 ----------------------------------------------------------------------
 -----
 title
 -----
 Symbolic Z-matrix:
 Charge =  0 Multiplicity = 1

 SCF Done:  E(RHF) =  -317.630388516     A.U. after   18 cycles
 Normal termination of Gaussian 16 at Wed Apr  9 18:41:20 2025.
 Gaussian 16:  ES64L-G16RevC.01  3-Jul-2019

 ----------------------------------------------------------------------
 #t hf aug-cc-pvdz iop(5/13=1,5/36=2,99/5=2) pseudo=read geom=check gue
 ss=(read,tcheck) scf=(maxcycle=1)
 ----------------------------------------------------------------------
 -----
 title
 -----
 Structure from the checkpoint file:  "Grambow2020_wb97xd3_007977_forward_mol1.chk"
 Charge =  0 Multiplicity = 1

                         Standard orientation:
 ---------------------------------------------------------------------
 Center     Atomic      Atomic             Coordinates (Angstroms)
 Number     Number       Type             X           Y           Z
 ---------------------------------------------------------------------
      1          7           0       -2.202358   -0.028835    0.104354
      2          6           0       -0.845276   -0.077903    0.001848
      3          7           0       -0.261309    1.196544    0.046652
      4          6           0        1.021469    1.265728   -0.092968
      5          6           0        1.910016    0.141345    0.103546
      6          6           0        1.184011   -1.119469    0.022643
      7          7           0       -0.227611   -1.187452   -0.179981
      8          1           0       -2.703637   -0.868662   -0.122543
      9          1           0       -2.642829    0.852739   -0.085303
     10          1           0        1.439652    2.253416   -0.278626
     11          1           0        1.398813   -1.491402    1.049474
     12          1           0        1.725634   -1.866101   -0.570598
 ---------------------------------------------------------------------

 SCF Done:  E(RHF) =  -317.949792966     A.U. after    2 cycles

 The electronic state is 1-A.
 Alpha  occ. eigenvalues --  -15.54876 -15.52174 -15.48359 -11.35444 -11.31541
 Alpha  occ. eigenvalues --  -11.27905 -11.27641  -1.33191  -1.22537  -1.19394
 Alpha  occ. eigenvalues --   -1.05292  -0.93923  -0.88592  -0.77905  -0.76392
 Alpha  occ. eigenvalues --   -0.69140  -0.66077  -0.64877  -0.59331  -0.58015
 Alpha  occ. eigenvalues --   -0.56407  -0.49254  -0.45029  -0.40088  -0.37787
 Alpha virt. eigenvalues --   -0.01131   0.03109   0.04498   0.04851   0.05619
 Alpha virt. eigenvalues --    0.05851   0.08370   0.09486   0.10674   0.11531
 Alpha virt. eigenvalues --    0.12464   0.12774   0.13642   0.14690   0.15406

 Mulliken charges:
               1
     1  N    0.505979
     2  C   -1.511082
     3  N    0.706132
     4  C   -0.371716
     5  C   -0.346108
     6  C   -0.443018
     7  N    0.675748
     8  H    0.122991
     9  H    0.157027
    10  H   -0.018202
    11  H    0.398970
    12  H    0.123278
 Sum of Mulliken charges =  -0.00000

 Dipole moment (field-independent basis, Debye):
    X=             -1.0442    Y=              0.7319    Z=             -0.7591  Tot=              1.4840

 Test job not archived.
 1\1\GINC-SE103\SP\RHF\Aug-CC-pVDZ\C4H5N3\OHZDE\09-Apr-2025\0\\#t hf au
 g-cc-pvdz iop(5/13=1,5/36=2,99/5=2) pseudo=read geom=check guess=(read
 ,tcheck) scf=(maxcycle=1)\\title\\0,1\N,0,2.2157519,-0.16619035,0.0123
 9959\C,0,0.86141408,-0.03236011,-0.03704089\N,0,0.19702262,-1.24010736
 ,0.22213059\C,0,-1.09317575,-1.23383012,0.15036784\C,0,-1.89285201,-0.
 030264,0.21606253\C,0,-1.08980419,1.14829252,-0.08293292\N,0,0.3102111
 ,1.08161006,-0.35471734\H,0,2.75894592,0.59241492,-0.35845155\H,0,2.58
 556836,-1.09607871,-0.06309832\H,0,-1.58570809,-2.20437008,0.13200538\

 Normal termination of Gaussian 16 at Wed Apr  9 18:41:25 2025.
