 Gaussian 16, Revision C.01,

 ----------------------------------------------------------------------
 #t hf aug-cc-pvdz symm=none int=(grid=ultrafine) guess=(read,tcheck) s
 table=(opt,rrhf)
 ----------------------------------------------------------------------
 -----
 title
 -----
 Symbolic Z-matrix:
 Charge =  0 Multiplicity = 1

 SCF Done:  E(RHF) =  -320.610064444     A.U. after   16 cycles
 Normal termination of Gaussian 16 at Wed Apr  9 16:06:41 2025.
 Gaussian 16:  ES64L-G16RevC.01  3-Jul-2019

 ----------------------------------------------------------------------
 #t hf aug-cc-pvdz iop(5/13=1,5/36=2,99/5=2) pseudo=read geom=check gue
 ss=(read,tcheck) scf=(maxcycle=1)
 ----------------------------------------------------------------------
 -----
 title
 -----
 Structure from the checkpoint file:  "Grambow2020_b97d3_007122_forward_mol1.chk"
 Charge =  0 Multiplicity = 1

                         Standard orientation:
 ---------------------------------------------------------------------
 Center     Atomic      Atomic             Coordinates (Angstroms)
 Number     Number       Type             X           Y           Z
 ---------------------------------------------------------------------
      1          6           0       -2.038883   -0.620134   -0.061338
      2          7           0       -0.641471   -0.774636    0.034048
      3          6           0        0.063613    0.368626    0.053511
      4          8           0       -0.667181    1.453117    0.023526
      5          6           0        1.521540    0.336289   -0.074775
      6          8           0        2.170610   -0.701744    0.062319
      7          1           0       -1.632724    0.957177   -0.329015
      8          1           0       -2.538816   -1.472036   -0.519232
      9          1           0       -2.501930   -0.269310    0.868306
     10          1           0       -0.122551   -1.634304   -0.150120
     11          1           0        1.981264    1.321254   -0.299422
 ---------------------------------------------------------------------

 SCF Done:  E(RHF) =  -320.929856344     A.U. after    2 cycles

 The electronic state is 1-A.
 Alpha  occ. eigenvalues --  -20.59691 -20.59474 -15.59919 -11.39134 -11.38976
 Alpha  occ. eigenvalues --  -11.23610  -1.52546  -1.50336  -1.28748  -1.03291
 Alpha  occ. eigenvalues --   -0.91794  -0.86252  -0.76648  -0.74183  -0.67930
 Alpha  occ. eigenvalues --   -0.66788  -0.64850  -0.59798  -0.56950  -0.54198
 Alpha  occ. eigenvalues --   -0.48512  -0.47571  -0.30683
 Alpha virt. eigenvalues --    0.01128   0.03480   0.04200   0.05442   0.06035
 Alpha virt. eigenvalues --    0.06911   0.08706   0.09826   0.11003   0.12957
 Alpha virt. eigenvalues --    0.13218   0.14683   0.14892   0.15546   0.16053

 Mulliken charges:
               1
     1  C   -0.712661
     2  N    0.665715
     3  C    0.589865
     4  O   -1.433659
     5  C    1.195169
     6  O   -1.160527
     7  H    0.599260
     8  H   -0.083498
     9  H    0.030034
    10  H    0.130345
    11  H    0.179956
 Sum of Mulliken charges =  -0.00000

 Dipole moment (field-independent basis, Debye):
    X=              0.8200    Y=              0.0481    Z=             -0.2294  Tot=              0.8529

 Test job not archived.
 1\1\GINC-SE129\SP\RHF\Aug-CC-pVDZ\C3H5N1O2\OHZDE\09-Apr-2025\0\\#t hf
 aug-cc-pvdz iop(5/13=1,5/36=2,99/5=2) pseudo=read geom=check guess=(re
 ad,tcheck) scf=(maxcycle=1)\\title\\0,1\C,0,-0.98922775,1.40504672,0.0
 4296187\N,0,0.21927524,0.68690776,-0.05463721\C,0,0.09204959,-0.649618
 07,-0.10026817\O,0,-1.14526644,-1.07390183,-0.08970606\C,0,1.27303489,
 -1.50584705,0.02301735\O,0,2.41814685,-1.06729426,-0.09526718\H,0,-1.6
 1935806,-0.10254897,0.27666223\H,0,-0.87824092,2.37731354,0.52016054\H
 ,0,-1.5615033,1.42208833,-0.89188435\H,0,1.15000692,1.05577505,0.14511

 Normal termination of Gaussian 16 at Wed Apr  9 16:06:46 2025.
