 Gaussian 16, Revision C.01,

 ----------------------------------------------------------------------
 #t hf aug-cc-pvdz symm=none int=(grid=ultrafine) guess=(read,tcheck) s
 table=(opt,rrhf)
 ----------------------------------------------------------------------
 -----
 title
 -----
 Symbolic Z-matrix:
 Charge =  0 Multiplicity = 1

 SCF Done:  E(RHF) =  -284.774266006     A.U. after   15 cycles
 Normal termination of Gaussian 16 at Wed Apr  9 03:06:52 2025.
 Gaussian 16:  ES64L-G16RevC.01  3-Jul-2019

 ----------------------------------------------------------------------
 #t hf aug-cc-pvdz iop(5/13=1,5/36=2,99/5=2) pseudo=read geom=check gue
 ss=(read,tcheck) scf=(maxcycle=1)
 ----------------------------------------------------------------------
 -----
 title
 -----
 Structure from the checkpoint file:  "Grambow2020_b97d3_006535_forward_mol1.chk"
 Charge =  0 Multiplicity = 1

                         Standard orientation:
 ---------------------------------------------------------------------
 Center     Atomic      Atomic             Coordinates (Angstroms)
 Number     Number       Type             X           Y           Z
 ---------------------------------------------------------------------
      1          6           0        1.646458    0.381759   -0.238361
      2          6           0        1.404313   -0.974096   -0.098661
      3          8           0       -0.775825   -1.247177    0.385822
      4          6           0       -1.444566   -0.368773   -0.215702
      5          7           0       -1.102763    0.938287   -0.333742
      6          6           0       -0.079346    1.332110    0.424520
      7          1           0        2.288625    0.870941    0.495599
      8          1           0        1.668744    0.805306   -1.242437
      9          1           0        1.140557   -1.598801   -0.948355
     10          1           0        1.642626   -1.500280    0.823040
     11          1           0       -2.342386   -0.662196   -0.789020
     12          1           0        0.057410    0.931361    1.437561
     13          1           0        0.309212    2.337078    0.242458
 ---------------------------------------------------------------------

 SCF Done:  E(RHF) =  -285.065517664     A.U. after    2 cycles

 The electronic state is 1-A.
 Alpha  occ. eigenvalues --  -20.52496 -15.48059 -11.33865 -11.32979 -11.30260
 Alpha  occ. eigenvalues --  -11.24703  -1.44219  -1.21822  -1.05740  -0.94454
 Alpha  occ. eigenvalues --   -0.83746  -0.76761  -0.71171  -0.67004  -0.66156
 Alpha  occ. eigenvalues --   -0.61625  -0.60007  -0.56552  -0.53956  -0.48117
 Alpha  occ. eigenvalues --   -0.43377  -0.42610  -0.35779
 Alpha virt. eigenvalues --    0.02945   0.03826   0.04201   0.04620   0.05742
 Alpha virt. eigenvalues --    0.06103   0.06571   0.06944   0.10254   0.11078
 Alpha virt. eigenvalues --    0.12627   0.12993   0.14276   0.14642   0.14943

 Mulliken charges:
               1
     1  C   -0.295228
     2  C    0.315468
     3  O   -0.994295
     4  C    0.442886
     5  N    0.586723
     6  C   -0.469854
     7  H    0.073507
     8  H    0.034664
     9  H    0.007442
    10  H   -0.010829
    11  H    0.076361
    12  H    0.121741
    13  H    0.111414
 Sum of Mulliken charges =   0.00000

 Dipole moment (field-independent basis, Debye):
    X=              2.8224    Y=              0.3673    Z=              0.5445  Tot=              2.8978

 Test job not archived.
 1\1\GINC-SE060\SP\RHF\Aug-CC-pVDZ\C4H7N1O1\OHZDE\09-Apr-2025\0\\#t hf
 aug-cc-pvdz iop(5/13=1,5/36=2,99/5=2) pseudo=read geom=check guess=(re
 ad,tcheck) scf=(maxcycle=1)\\title\\0,1\C,0,0.65658677,-1.18691092,0.0
 6123586\C,0,-0.70155501,-1.3052545,0.30193978\O,0,-1.59890086,0.757692
 91,0.26564703\C,0,-0.99089004,1.45639445,-0.58451741\N,0,0.35184384,1.
 4751645,-0.77394223\C,0,1.06936582,0.84806805,0.15844882\H,0,1.3486759
 5,-1.44275669,0.8649335\H,0,1.02250808,-1.36096883,-0.95062548\H,0,-1.
 41347066,-1.46721243,-0.50350921\H,0,-1.09011098,-1.42225118,1.3111640

 Normal termination of Gaussian 16 at Wed Apr  9 03:06:56 2025.
