 Gaussian 16, Revision C.01,

 ----------------------------------------------------------------------
 #t hf aug-cc-pvdz symm=none int=(grid=ultrafine) guess=(read,tcheck) s
 table=(opt,rrhf)
 ----------------------------------------------------------------------
 -----
 title
 -----
 Symbolic Z-matrix:
 Charge =  0 Multiplicity = 1

 SCF Done:  E(RHF) =  -305.841208467     A.U. after   13 cycles
 Normal termination of Gaussian 16 at Wed Apr  9 17:12:16 2025.
 Gaussian 16:  ES64L-G16RevC.01  3-Jul-2019

 ----------------------------------------------------------------------
 #t hf aug-cc-pvdz iop(5/13=1,5/36=2,99/5=2) pseudo=read geom=check gue
 ss=(read,tcheck) scf=(maxcycle=1)
 ----------------------------------------------------------------------
 -----
 title
 -----
 Structure from the checkpoint file:  "Grambow2020_wb97xd3_006279_reverse_mol2.chk"
 Charge =  0 Multiplicity = 1

                         Standard orientation:
 ---------------------------------------------------------------------
 Center     Atomic      Atomic             Coordinates (Angstroms)
 Number     Number       Type             X           Y           Z
 ---------------------------------------------------------------------
      1          6           0        2.817760    0.293711   -0.419982
      2          6           0        2.010622   -0.634463    0.067145
      3          6           0        0.593325   -0.413015    0.501353
      4          8           0        0.092826    0.879857    0.232296
      5          6           0       -2.644358    0.279961    0.205340
      6          8           0       -2.677323   -0.575682   -0.632909
      7          1           0        3.830136    0.054491   -0.719433
      8          1           0        0.117299    1.013786   -0.718786
      9          1           0        2.502372    1.325779   -0.521814
     10          1           0        2.363298   -1.657353    0.173950
     11          1           0       -0.049414   -1.178947    0.047129
     12          1           0        0.521263   -0.545419    1.584907
     13          1           0       -2.481040    0.049249    1.273991
     14          1           0       -2.792035    1.347852   -0.038181
 ---------------------------------------------------------------------

 SCF Done:  E(RHF) =  -306.156105995     A.U. after    2 cycles

 The electronic state is 1-A.
 Alpha  occ. eigenvalues --  -20.56006 -20.55393 -11.34599 -11.29438 -11.24740
 Alpha  occ. eigenvalues --  -11.23583  -1.48535  -1.46409  -1.06857  -0.93864
 Alpha  occ. eigenvalues --   -0.86701  -0.77676  -0.69640  -0.69151  -0.67762
 Alpha  occ. eigenvalues --   -0.64790  -0.62982  -0.58427  -0.55411  -0.52767
 Alpha  occ. eigenvalues --   -0.50504  -0.45995  -0.42496  -0.37894
 Alpha virt. eigenvalues --    0.03665   0.03788   0.03939   0.05172   0.05800
 Alpha virt. eigenvalues --    0.06491   0.07975   0.08596   0.09963   0.10854
 Alpha virt. eigenvalues --    0.11486   0.12988   0.14464   0.14752   0.15654

 Mulliken charges:
               1
     1  C   -0.029397
     2  C    0.439276
     3  C    0.490386
     4  O   -1.083870
     5  C    0.578399
     6  O   -0.831530
     7  H   -0.104212
     8  H    0.304314
     9  H   -0.083030
    10  H   -0.149489
    11  H    0.142822
    12  H    0.093214
    13  H    0.127152
    14  H    0.105965
 Sum of Mulliken charges =  -0.00000

 Dipole moment (field-independent basis, Debye):
    X=              0.7073    Y=              0.7262    Z=              0.8879  Tot=              1.3476

 Test job not archived.
 1\1\GINC-SE173\SP\RHF\Aug-CC-pVDZ\C4H8O2\OHZDE\09-Apr-2025\0\\#t hf au
 g-cc-pvdz iop(5/13=1,5/36=2,99/5=2) pseudo=read geom=check guess=(read
 ,tcheck) scf=(maxcycle=1)\\title\\0,1\C,0,-2.43623468,-0.66116893,0.14
 117661\C,0,-1.25762098,-1.1180933,0.53151114\C,0,0.06998641,-0.6488131
 3,0.01814681\O,0,0.00217729,0.45516385,-0.8599461\C,0,2.60316908,1.437
 78471,-0.51055284\O,0,2.62302216,1.60035287,0.6764815\H,0,-3.35470075,
 -1.04653919,0.56509981\H,0,-0.38700125,1.19073243,-0.37976858\H,0,-2.5
 2613574,0.10044457,-0.62489572\H,0,-1.2019079,-1.89584144,1.28920194\H

 Normal termination of Gaussian 16 at Wed Apr  9 17:12:20 2025.
