 Gaussian 16, Revision C.01,

 ----------------------------------------------------------------------
 #t hf aug-cc-pvdz symm=none int=(grid=ultrafine) guess=(read,tcheck) s
 table=(opt,rrhf)
 ----------------------------------------------------------------------
 -----
 title
 -----
 Symbolic Z-matrix:
 Charge =  0 Multiplicity = 1

 SCF Done:  E(RHF) =  -321.314109207     A.U. after   18 cycles
 Normal termination of Gaussian 16 at Wed Apr  9 18:22:29 2025.
 Gaussian 16:  ES64L-G16RevC.01  3-Jul-2019

 ----------------------------------------------------------------------
 #t hf aug-cc-pvdz iop(5/13=1,5/36=2,99/5=2) pseudo=read geom=check gue
 ss=(read,tcheck) scf=(maxcycle=1)
 ----------------------------------------------------------------------
 -----
 title
 -----
 Structure from the checkpoint file:  "Grambow2020_wb97xd3_007502_forward_mol1.chk"
 Charge =  0 Multiplicity = 1

                         Standard orientation:
 ---------------------------------------------------------------------
 Center     Atomic      Atomic             Coordinates (Angstroms)
 Number     Number       Type             X           Y           Z
 ---------------------------------------------------------------------
      1          8           0        0.957350    1.852622    0.049031
      2          6           0        0.359606    0.823950    0.030066
      3          6           0        0.836235   -0.599846    0.147176
      4          6           0        2.029326   -1.206015    0.003409
      5          6           0       -1.065531    0.530889   -0.408737
      6          6           0       -0.937742   -0.934592   -0.397091
      7          7           0       -1.819963   -0.300806    0.515919
      8          1           0        1.953193   -2.272729   -0.238725
      9          1           0       -1.611796    1.136619   -1.119175
     10          1           0        0.132377   -1.288056    0.711168
     11          1           0       -1.210510   -1.717977   -1.089123
     12          1           0       -1.513691   -0.259506    1.483236
 ---------------------------------------------------------------------

 SCF Done:  E(RHF) =  -321.640326020     A.U. after    2 cycles

 The electronic state is 1-A.
 Alpha  occ. eigenvalues --  -20.55806 -15.56832 -11.36580 -11.35839 -11.31634
 Alpha  occ. eigenvalues --  -11.28681 -11.26214  -1.49903  -1.35719  -1.10534
 Alpha  occ. eigenvalues --   -0.99747  -0.91535  -0.88090  -0.76199  -0.73915
 Alpha  occ. eigenvalues --   -0.71022  -0.66674  -0.61321  -0.60283  -0.58069
 Alpha  occ. eigenvalues --   -0.55308  -0.49469  -0.43147  -0.42484  -0.34463
 Alpha virt. eigenvalues --    0.02229   0.03459   0.03546   0.04412   0.05216
 Alpha virt. eigenvalues --    0.06718   0.08525   0.09331   0.09774   0.10383
 Alpha virt. eigenvalues --    0.11656   0.12161   0.13055   0.13138   0.14234

 Mulliken charges:
               1
     1  O   -1.212816
     2  C    0.924735
     3  C    0.629707
     4  C   -0.573118
     5  C    0.138504
     6  C   -0.782815
     7  N    0.477188
     8  H   -0.015926
     9  H   -0.133291
    10  H    0.497633
    11  H   -0.197149
    12  H    0.247348
 Sum of Mulliken charges =   0.00000

 Dipole moment (field-independent basis, Debye):
    X=             -3.9048    Y=             -3.1639    Z=             -0.5186  Tot=              5.0523

 Test job not archived.
 1\1\GINC-SE220\SP\RHF\Aug-CC-pVDZ\C5H5N1O1\OHZDE\09-Apr-2025\0\\#t hf
 aug-cc-pvdz iop(5/13=1,5/36=2,99/5=2) pseudo=read geom=check guess=(re
 ad,tcheck) scf=(maxcycle=1)\\title\\0,1\O,0,1.10106135,2.12825328,-0.5
 3276175\C,0,0.51342973,1.13577083,-0.24037325\C,0,1.01159902,-0.219826
 69,0.18655425\C,0,2.19251107,-0.85887014,0.09357723\C,0,-0.9425324,0.7
 6169697,-0.46328963\C,0,-0.8008483,-0.65588812,-0.09657547\N,0,-1.6035
 4461,0.19806825,0.70343921\H,0,2.10474558,-1.95110314,0.13394535\H,0,-
 1.55570332,1.17785258,-1.25124515\H,0,0.36736109,-0.73544509,0.9651626

 Normal termination of Gaussian 16 at Wed Apr  9 18:22:34 2025.
