 Gaussian 16, Revision C.01,

 ----------------------------------------------------------------------
 #t hf aug-cc-pvdz symm=none int=(grid=ultrafine) guess=(read,tcheck) s
 table=(opt,rrhf)
 ----------------------------------------------------------------------
 -----
 title
 -----
 Symbolic Z-matrix:
 Charge =  0 Multiplicity = 1

 SCF Done:  E(RHF) =  -307.713488212     A.U. after   15 cycles

 1\1\GINC-SE362\Stability\RHF\Aug-CC-pVDZ\C6H10O1\OHZDE\09-Apr-2025\0\\
 #t hf aug-cc-pvdz symm=none int=(grid=ultrafine) guess=(read,tcheck) s
 table=(opt,rrhf)\\title\\0,1\C,0,1.70725212,-0.43574371,-0.26327593\C,
 0,0.62685506,0.18813262,0.5818666\C,0,0.05645858,1.60610539,-0.6315473
 \C,0,-1.02330491,0.83063026,-0.16510931\O,0,-1.51319327,-0.17053774,-0
 .94857254\C,0,-1.2994702,-1.30779637,-0.03106805\C,0,-0.46908844,-0.67
 147098,1.02634858\H,0,2.15572068,-1.23465065,0.33501847\H,0,2.47177223
 ,0.2820021,-0.56060568\H,0,1.28870518,-0.89415301,-1.16050076\H,0,0.98

 Normal termination of Gaussian 16 at Wed Apr  9 19:04:00 2025.
 Gaussian 16:  ES64L-G16RevC.01  3-Jul-2019

 ----------------------------------------------------------------------
 #t hf aug-cc-pvdz iop(5/13=1,5/36=2,99/5=2) pseudo=read geom=check gue
 ss=(read,tcheck) scf=(maxcycle=1)
 ----------------------------------------------------------------------
 -----
 title
 -----
 Structure from the checkpoint file:  "Grambow2020_wb97xd3_008510_forward_mol1.chk"
 Charge =  0 Multiplicity = 1

                         Standard orientation:
 ---------------------------------------------------------------------
 Center     Atomic      Atomic             Coordinates (Angstroms)
 Number     Number       Type             X           Y           Z
 ---------------------------------------------------------------------
      1          6           0        1.688604   -0.915634   -0.547662
      2          6           0        0.880427   -0.319009    0.575563
      3          6           0        0.798830    1.530328   -0.042229
      4          6           0       -0.472254    1.013190    0.276725
      5          8           0       -1.270518    0.541948   -0.721697
      6          6           0       -1.435684   -0.847480   -0.249404
      7          6           0       -0.433794   -0.898409    0.848865
      8          1           0        1.853915   -1.967378   -0.294998
      9          1           0        2.644356   -0.410902   -0.688512
     10          1           0        1.135415   -0.887738   -1.487629
     11          1           0        1.437261   -0.137905    1.487792
     12          1           0        1.248308    2.264506    0.611687
     13          1           0        1.131648    1.482545   -1.066899
     14          1           0       -0.941910    1.361462    1.195180
     15          1           0       -1.265164   -1.474327   -1.131146
     16          1           0       -2.454777   -1.016795    0.106125
     17          1           0       -0.781685   -0.926958    1.870835
 ---------------------------------------------------------------------

 SCF Done:  E(RHF) =  -308.039124355     A.U. after    2 cycles

 The electronic state is 1-A.
 Alpha  occ. eigenvalues --  -20.55816 -11.36784 -11.30801 -11.28552 -11.23574
 Alpha  occ. eigenvalues --  -11.23111 -11.18302  -1.49412  -1.12318  -1.02800
 Alpha  occ. eigenvalues --   -0.97574  -0.88303  -0.82030  -0.74678  -0.71000
 Alpha  occ. eigenvalues --   -0.65802  -0.65260  -0.61951  -0.59555  -0.57918
 Alpha  occ. eigenvalues --   -0.55759  -0.55110  -0.51749  -0.48829  -0.44959
 Alpha  occ. eigenvalues --   -0.43298  -0.24232
 Alpha virt. eigenvalues --    0.03146   0.03542   0.04229   0.04405   0.05786
 Alpha virt. eigenvalues --    0.05976   0.06263   0.06827   0.07670   0.09541
 Alpha virt. eigenvalues --    0.11614   0.12272   0.13152   0.13515   0.13860

 Mulliken charges:
               1
     1  C   -0.303448
     2  C   -0.407177
     3  C    0.098912
     4  C    1.381635
     5  O   -1.518765
     6  C    0.515869
     7  C    0.059678
     8  H    0.160979
     9  H    0.161928
    10  H    0.234255
    11  H   -0.114393
    12  H   -0.094732
    13  H   -0.056336
    14  H    0.028894
    15  H    0.032636
    16  H    0.026296
    17  H   -0.206230
 Sum of Mulliken charges =  -0.00000

 Dipole moment (field-independent basis, Debye):
    X=              1.1696    Y=              0.7831    Z=              1.0329  Tot=              1.7458

 Test job not archived.
 1\1\GINC-SE362\SP\RHF\Aug-CC-pVDZ\C6H10O1\OHZDE\09-Apr-2025\0\\#t hf a
 ug-cc-pvdz iop(5/13=1,5/36=2,99/5=2) pseudo=read geom=check guess=(rea
 d,tcheck) scf=(maxcycle=1)\\title\\0,1\C,0,1.70725212,-0.43574371,-0.2
 6327593\C,0,0.62685506,0.18813262,0.5818666\C,0,0.05645858,1.60610539,
 -0.6315473\C,0,-1.02330491,0.83063026,-0.16510931\O,0,-1.51319327,-0.1
 7053774,-0.94857254\C,0,-1.2994702,-1.30779637,-0.03106805\C,0,-0.4690
 8844,-0.67147098,1.02634858\H,0,2.15572068,-1.23465065,0.33501847\H,0,
 2.47177223,0.2820021,-0.56060568\H,0,1.28870518,-0.89415301,-1.1605007

 Normal termination of Gaussian 16 at Wed Apr  9 19:04:06 2025.
