 Gaussian 16, Revision C.01,

 ----------------------------------------------------------------------
 #t hf aug-cc-pvdz symm=none int=(grid=ultrafine) guess=(read,tcheck) s
 table=(opt,rrhf)
 ----------------------------------------------------------------------
 -----
 title
 -----
 Symbolic Z-matrix:
 Charge =  0 Multiplicity = 1

 SCF Done:  E(RHF) =  -305.646574756     A.U. after   16 cycles
 Normal termination of Gaussian 16 at Wed Apr  9 03:16:03 2025.
 Gaussian 16:  ES64L-G16RevC.01  3-Jul-2019

 ----------------------------------------------------------------------
 #t hf aug-cc-pvdz iop(5/13=1,5/36=2,99/5=2) pseudo=read geom=check gue
 ss=(read,tcheck) scf=(maxcycle=1)
 ----------------------------------------------------------------------
 -----
 title
 -----
 Structure from the checkpoint file:  "Grambow2020_b97d3_006963_reverse_mol1.chk"
 Charge =  0 Multiplicity = 1

                         Standard orientation:
 ---------------------------------------------------------------------
 Center     Atomic      Atomic             Coordinates (Angstroms)
 Number     Number       Type             X           Y           Z
 ---------------------------------------------------------------------
      1          8           0        2.132915   -0.647909   -0.293066
      2          6           0        0.809340    0.893654    0.640196
      3          6           0       -0.198540    1.293303   -0.375074
      4          6           0       -1.187060    0.161151   -0.539861
      5          6           0       -0.603850   -1.142811   -0.160780
      6          8           0       -1.551415   -0.480755    0.698036
      7          1           0        2.558707   -1.033683    0.501274
      8          1           0        0.442451    0.372600    1.520214
      9          1           0        1.707362    1.497135    0.751256
     10          1           0       -0.692907    2.231356   -0.043607
     11          1           0        0.279792    1.521017   -1.340224
     12          1           0       -2.023454    0.295562   -1.232090
     13          1           0        1.156714   -0.995506   -0.226588
     14          1           0       -1.000006   -2.090949   -0.556875
 ---------------------------------------------------------------------

 SCF Done:  E(RHF) =  -305.962137444     A.U. after    2 cycles

 The electronic state is 1-A.
 Alpha  occ. eigenvalues --  -20.55655 -20.52672 -11.39433 -11.27913 -11.27329
 Alpha  occ. eigenvalues --  -11.21758  -1.45098  -1.42269  -1.10572  -0.93550
 Alpha  occ. eigenvalues --   -0.85313  -0.77486  -0.72819  -0.68792  -0.65672
 Alpha  occ. eigenvalues --   -0.62018  -0.60178  -0.57746  -0.56453  -0.49475
 Alpha  occ. eigenvalues --   -0.49153  -0.44677  -0.40878  -0.28038
 Alpha virt. eigenvalues --    0.01487   0.03029   0.03407   0.04455   0.04791
 Alpha virt. eigenvalues --    0.06369   0.06466   0.07199   0.09600   0.11422
 Alpha virt. eigenvalues --    0.11721   0.13018   0.13642   0.14166   0.15165

 Mulliken charges:
               1
     1  O   -1.117807
     2  C    0.311392
     3  C   -0.585211
     4  C    0.880841
     5  C   -0.104275
     6  O   -1.301568
     7  H    0.282473
     8  H    0.222856
     9  H    0.025102
    10  H    0.272148
    11  H    0.237848
    12  H   -0.040819
    13  H    1.018568
    14  H   -0.101548
 Sum of Mulliken charges =   0.00000

 Dipole moment (field-independent basis, Debye):
    X=              2.3110    Y=              3.9524    Z=              0.9777  Tot=              4.6817

 Test job not archived.
 1\1\GINC-SE015\SP\RHF\Aug-CC-pVDZ\C4H8O2\OHZDE\09-Apr-2025\0\\#t hf au
 g-cc-pvdz iop(5/13=1,5/36=2,99/5=2) pseudo=read geom=check guess=(read
 ,tcheck) scf=(maxcycle=1)\\title\\0,1\O,0,0.57899851,1.16549094,1.6816
 0906\C,0,1.21523527,-0.18006126,0.0130955\C,0,0.17578295,-1.23044311,-
 0.13708026\C,0,-1.052437,-0.60340057,-0.75707121\C,0,-1.12149153,0.850
 3964,-0.50044537\O,0,-0.75952692,0.34701217,-1.80019398\H,0,1.15155696
 ,1.9449482,1.52123713\H,0,1.33053052,0.5202695,-0.80957149\H,0,2.09433
 528,-0.39675648,0.6157503\H,0,0.58211557,-2.05406158,-0.76218826\H,0,-

 Normal termination of Gaussian 16 at Wed Apr  9 03:16:07 2025.
