 Gaussian 16, Revision C.01,

 ----------------------------------------------------------------------
 #t hf aug-cc-pvdz symm=none int=(grid=ultrafine) guess=(read,tcheck) s
 table=(opt,rrhf)
 ----------------------------------------------------------------------
 -----
 title
 -----
 Symbolic Z-matrix:
 Charge =  0 Multiplicity = 1

 SCF Done:  E(RHF) =  -322.712607367     A.U. after   14 cycles
 Normal termination of Gaussian 16 at Wed Apr  9 03:39:41 2025.
 Gaussian 16:  ES64L-G16RevC.01  3-Jul-2019

 ----------------------------------------------------------------------
 #t hf aug-cc-pvdz iop(5/13=1,5/36=2,99/5=2) pseudo=read geom=check gue
 ss=(read,tcheck) scf=(maxcycle=1)
 ----------------------------------------------------------------------
 -----
 title
 -----
 Structure from the checkpoint file:  "Grambow2020_wb97xd3_007370_forward_mol2.chk"
 Charge =  0 Multiplicity = 1

                         Standard orientation:
 ---------------------------------------------------------------------
 Center     Atomic      Atomic             Coordinates (Angstroms)
 Number     Number       Type             X           Y           Z
 ---------------------------------------------------------------------
      1          6           0       -1.507504   -0.033758    0.782538
      2          6           0       -0.936851    0.746052   -0.359350
      3          6           0        0.419380    1.386188   -0.249104
      4          8           0        1.400549    0.531988    0.345801
      5          6           0        1.306977   -0.792050    0.098515
      6          7           0        0.297853   -1.450409   -0.265117
      7          6           0       -0.939318   -0.750678   -0.414448
      8          1           0       -0.934710   -0.092450    1.700144
      9          1           0       -2.581348   -0.035213    0.913750
     10          1           0       -1.625904    1.281246   -1.002289
     11          1           0        0.403242    2.284769    0.368920
     12          1           0        0.773376    1.660797   -1.248040
     13          1           0        2.257233   -1.286211    0.280598
     14          1           0       -1.637348   -1.250508   -1.072573
 ---------------------------------------------------------------------

 SCF Done:  E(RHF) =  -323.045032037     A.U. after    2 cycles

 The electronic state is 1-A.
 Alpha  occ. eigenvalues --  -20.58202 -15.48710 -11.33583 -11.30500 -11.26741
 Alpha  occ. eigenvalues --  -11.24756 -11.23963  -1.51534  -1.24252  -1.14611
 Alpha  occ. eigenvalues --   -0.98540  -0.90429  -0.83417  -0.75233  -0.72637
 Alpha  occ. eigenvalues --   -0.69573  -0.68058  -0.63090  -0.60755  -0.56467
 Alpha  occ. eigenvalues --   -0.54484  -0.51528  -0.50526  -0.46188  -0.41656
 Alpha  occ. eigenvalues --   -0.37779
 Alpha virt. eigenvalues --    0.03299   0.04056   0.04162   0.04366   0.05831
 Alpha virt. eigenvalues --    0.06047   0.06487   0.09874   0.10484   0.12135
 Alpha virt. eigenvalues --    0.12398   0.13360   0.13834   0.14320   0.14578

 Mulliken charges:
               1
     1  C    0.338927
     2  C    0.287322
     3  C    0.525164
     4  O   -1.224953
     5  C    0.233988
     6  N    0.880907
     7  C   -0.633909
     8  H   -0.103035
     9  H   -0.124508
    10  H   -0.129650
    11  H    0.053137
    12  H    0.179258
    13  H   -0.060976
    14  H   -0.221673
 Sum of Mulliken charges =  -0.00000

 Dipole moment (field-independent basis, Debye):
    X=             -0.6739    Y=              2.3815    Z=             -0.1829  Tot=              2.4817

 Test job not archived.
 1\1\GINC-SE195\SP\RHF\Aug-CC-pVDZ\C5H7N1O1\OHZDE\09-Apr-2025\0\\#t hf
 aug-cc-pvdz iop(5/13=1,5/36=2,99/5=2) pseudo=read geom=check guess=(re
 ad,tcheck) scf=(maxcycle=1)\\title\\0,1\C,0,-1.39738794,-0.43404229,0.
 37139511\C,0,-0.65406958,0.48090601,-0.54947624\C,0,0.47701115,1.33001
 972,-0.03863933\O,0,1.36679456,0.62270296,0.8298372\C,0,1.57916563,-0.
 68583704,0.5737042\N,0,0.85275671,-1.4840323,-0.07376103\C,0,-0.383989
 37,-0.99161877,-0.59385991\H,0,-1.12341621,-0.43974568,1.41946263\H,0,
 -2.4446086,-0.61848144,0.1722204\H,0,-1.20067528,0.92427333,-1.3736387

 Normal termination of Gaussian 16 at Wed Apr  9 03:39:50 2025.
