 Gaussian 16, Revision C.01,

 ----------------------------------------------------------------------
 #t hf aug-cc-pvdz symm=none int=(grid=ultrafine) guess=(read,tcheck) s
 table=(opt,rrhf)
 ----------------------------------------------------------------------
 -----
 title
 -----
 Symbolic Z-matrix:
 Charge =  0 Multiplicity = 1

 SCF Done:  E(RHF) =  -284.833442275     A.U. after   15 cycles
 Normal termination of Gaussian 16 at Wed Apr  9 16:23:51 2025.
 Gaussian 16:  ES64L-G16RevC.01  3-Jul-2019

 ----------------------------------------------------------------------
 #t hf aug-cc-pvdz iop(5/13=1,5/36=2,99/5=2) pseudo=read geom=check gue
 ss=(read,tcheck) scf=(maxcycle=1)
 ----------------------------------------------------------------------
 -----
 title
 -----
 Structure from the checkpoint file:  "Grambow2020_b97d3_007208_reverse_mol2.chk"
 Charge =  0 Multiplicity = 1

                         Standard orientation:
 ---------------------------------------------------------------------
 Center     Atomic      Atomic             Coordinates (Angstroms)
 Number     Number       Type             X           Y           Z
 ---------------------------------------------------------------------
      1          6           0        1.409957    1.196695    0.494175
      2          6           0        1.978007    0.076938   -0.337807
      3          8           0        1.572326   -1.076087   -0.344843
      4          6           0       -2.393051    0.835690   -0.427488
      5          6           0       -1.771106   -0.228482    0.057248
      6          7           0       -1.278419   -1.241326    0.555257
      7          1           0        2.220715    1.803317    0.923128
      8          1           0        0.823182    1.857452   -0.164688
      9          1           0        0.752231    0.816030    1.282468
     10          1           0        2.828015    0.366666   -1.000080
     11          1           0       -0.270441   -1.382870    0.363319
     12          1           0       -2.872788    0.798931   -1.403424
     13          1           0       -2.453442    1.753406    0.154450
 ---------------------------------------------------------------------

 SCF Done:  E(RHF) =  -285.125958071     A.U. after    2 cycles

 The electronic state is 1-A.
 Alpha  occ. eigenvalues --  -20.56801 -15.51262 -11.36866 -11.32272 -11.26610
 Alpha  occ. eigenvalues --  -11.23914  -1.48974  -1.23390  -1.03917  -1.01404
 Alpha  occ. eigenvalues --   -0.82704  -0.77765  -0.69470  -0.67698  -0.64583
 Alpha  occ. eigenvalues --   -0.62229  -0.61917  -0.58092  -0.57157  -0.51875
 Alpha  occ. eigenvalues --   -0.48428  -0.44281  -0.36030
 Alpha virt. eigenvalues --    0.02824   0.03778   0.04117   0.05175   0.05890
 Alpha virt. eigenvalues --    0.06862   0.08237   0.09007   0.10018   0.11197
 Alpha virt. eigenvalues --    0.12072   0.13034   0.13175   0.14091   0.14746

 Mulliken charges:
               1
     1  C   -0.650556
     2  C    1.018178
     3  O   -1.195143
     4  C    0.361343
     5  C   -1.228466
     6  N    0.833799
     7  H    0.149217
     8  H    0.301427
     9  H    0.190198
    10  H    0.128906
    11  H    0.120549
    12  H   -0.006964
    13  H   -0.022488
 Sum of Mulliken charges =  -0.00000

 Dipole moment (field-independent basis, Debye):
    X=              2.2050    Y=              4.2428    Z=             -0.7542  Tot=              4.8407

 Test job not archived.
 1\1\GINC-SE138\SP\RHF\Aug-CC-pVDZ\C4H7N1O1\OHZDE\09-Apr-2025\0\\#t hf
 aug-cc-pvdz iop(5/13=1,5/36=2,99/5=2) pseudo=read geom=check guess=(re
 ad,tcheck) scf=(maxcycle=1)\\title\\0,1\C,0,-1.54601385,-0.15346908,-0
 .56990564\C,0,-1.62042232,-0.12456863,0.93420887\O,0,-0.84849131,-0.69
 323355,1.69238775\C,0,2.22154258,0.85026718,-1.06050801\C,0,1.95590909
 ,-0.19709136,-0.29452778\N,0,1.79260143,-1.21338764,0.38154884\H,0,-2.
 55060517,-0.27678171,-0.99991687\H,0,-1.16018115,0.8184237,-0.91856368
 \H,0,-0.87408805,-0.94282317,-0.92254099\H,0,-2.45311014,0.48895056,1.

 Normal termination of Gaussian 16 at Wed Apr  9 16:23:55 2025.
