 Gaussian 16, Revision C.01,

 ----------------------------------------------------------------------
 #t hf aug-cc-pvdz symm=none int=(grid=ultrafine) guess=(read,tcheck) s
 table=(opt,rrhf)
 ----------------------------------------------------------------------
 -----
 title
 -----
 Symbolic Z-matrix:
 Charge =  0 Multiplicity = 1

 SCF Done:  E(RHF) =  -358.437116230     A.U. after   17 cycles
 Normal termination of Gaussian 16 at Wed Apr  9 17:38:34 2025.
 Gaussian 16:  ES64L-G16RevC.01  3-Jul-2019

 ----------------------------------------------------------------------
 #t hf aug-cc-pvdz iop(5/13=1,5/36=2,99/5=2) pseudo=read geom=check gue
 ss=(read,tcheck) scf=(maxcycle=1)
 ----------------------------------------------------------------------
 -----
 title
 -----
 Structure from the checkpoint file:  "Grambow2020_wb97xd3_006751_forward_mol1.chk"
 Charge =  0 Multiplicity = 1

                         Standard orientation:
 ---------------------------------------------------------------------
 Center     Atomic      Atomic             Coordinates (Angstroms)
 Number     Number       Type             X           Y           Z
 ---------------------------------------------------------------------
      1          8           0        2.421878   -0.953401   -0.236577
      2          6           0        1.923149    0.063074    0.141876
      3          6           0        0.432800    0.369936    0.054300
      4          8           0        0.118254    1.508693   -0.343348
      5          7           0       -0.393830   -0.577196    0.457732
      6          6           0       -1.746030    0.025728    0.514284
      7          6           0       -2.445393   -0.583805   -0.520531
      8          1           0        2.513474    0.910927    0.538959
      9          1           0       -1.475772    1.103954    0.158769
     10          1           0       -2.207677    0.037235    1.499072
     11          1           0       -3.414449   -1.063687   -0.409205
     12          1           0       -1.966976   -0.639984   -1.491886
 ---------------------------------------------------------------------

 SCF Done:  E(RHF) =  -358.792084682     A.U. after    2 cycles

 The electronic state is 1-A.
 Alpha  occ. eigenvalues --  -20.54733 -20.51297 -15.48730 -11.40063 -11.33688
 Alpha  occ. eigenvalues --  -11.33216 -11.29137  -1.48317  -1.45080  -1.22271
 Alpha  occ. eigenvalues --   -1.09000  -0.93435  -0.86630  -0.75079  -0.73267
 Alpha  occ. eigenvalues --   -0.70646  -0.66967  -0.65948  -0.63567  -0.57528
 Alpha  occ. eigenvalues --   -0.56066  -0.51179  -0.46420  -0.45193  -0.39927
 Alpha  occ. eigenvalues --   -0.38220
 Alpha virt. eigenvalues --   -0.03710   0.01585   0.03555   0.04438   0.05734
 Alpha virt. eigenvalues --    0.05816   0.09160   0.09743   0.10728   0.11048
 Alpha virt. eigenvalues --    0.11221   0.11978   0.13822   0.13970   0.15140

 Mulliken charges:
               1
     1  O   -1.068381
     2  C    1.085038
     3  C    0.302155
     4  O   -1.312325
     5  N    0.339921
     6  C   -0.313750
     7  C    0.230210
     8  H    0.185075
     9  H    0.464177
    10  H   -0.019005
    11  H    0.060164
    12  H    0.046720
 Sum of Mulliken charges =  -0.00000

 Dipole moment (field-independent basis, Debye):
    X=             -7.1293    Y=              0.0389    Z=             -0.5074  Tot=              7.1474

 Test job not archived.
 1\1\GINC-SE135\SP\RHF\Aug-CC-pVDZ\C4H5N1O2\OHZDE\09-Apr-2025\0\\#t hf
 aug-cc-pvdz iop(5/13=1,5/36=2,99/5=2) pseudo=read geom=check guess=(re
 ad,tcheck) scf=(maxcycle=1)\\title\\0,1\O,0,2.84105164,1.1762551,0.484
 59846\C,0,2.42488542,0.06310351,0.37111101\C,0,0.9458193,-0.29247265,0
 .27675976\O,0,0.55894612,-1.26277272,0.95696256\N,0,0.21438571,0.42337
 521,-0.55732709\C,0,-1.10131184,-0.24949077,-0.66386281\C,0,-1.9884962
 6,0.61271204,-0.03062267\H,0,3.08064633,-0.82838341,0.3866956\H,0,-0.9
 063393,-1.13938117,0.06557797\H,0,-1.3621737,-0.60266271,-1.65899033\H

 Normal termination of Gaussian 16 at Wed Apr  9 17:38:38 2025.
