 Gaussian 16, Revision C.01,

 ----------------------------------------------------------------------
 #t hf aug-cc-pvdz symm=none int=(grid=ultrafine) guess=(read,tcheck) s
 table=(opt,rrhf)
 ----------------------------------------------------------------------
 -----
 title
 -----
 Symbolic Z-matrix:
 Charge =  0 Multiplicity = 1

 SCF Done:  E(RHF) =  -268.855549487     A.U. after   14 cycles
 Normal termination of Gaussian 16 at Wed Apr  9 17:07:20 2025.
 Gaussian 16:  ES64L-G16RevC.01  3-Jul-2019

 ----------------------------------------------------------------------
 #t hf aug-cc-pvdz iop(5/13=1,5/36=2,99/5=2) pseudo=read geom=check gue
 ss=(read,tcheck) scf=(maxcycle=1)
 ----------------------------------------------------------------------
 -----
 title
 -----
 Structure from the checkpoint file:  "Grambow2020_wb97xd3_006252_forward_mol2.chk"
 Charge =  0 Multiplicity = 1

                         Standard orientation:
 ---------------------------------------------------------------------
 Center     Atomic      Atomic             Coordinates (Angstroms)
 Number     Number       Type             X           Y           Z
 ---------------------------------------------------------------------
      1          6           0       -1.647201   -1.176937    0.059693
      2          6           0       -1.172271    0.161362   -0.448547
      3          6           0       -0.781819    1.252891    0.477287
      4          6           0        0.281029    0.596716   -0.379643
      5          6           0        1.290214   -0.252736    0.278756
      6          8           0        2.420349   -0.384076   -0.110832
      7          1           0       -1.231524   -1.417447    1.038840
      8          1           0       -2.734106   -1.172156    0.161150
      9          1           0       -1.377916   -1.981877   -0.626692
     10          1           0       -1.656035    0.479687   -1.365286
     11          1           0       -0.761770    1.024957    1.537220
     12          1           0       -1.040605    2.276299    0.242580
     13          1           0        0.668102    1.154922   -1.222462
     14          1           0        0.951343   -0.779559    1.196025
 ---------------------------------------------------------------------

 SCF Done:  E(RHF) =  -269.137892377     A.U. after    2 cycles

 The electronic state is 1-A.
 Alpha  occ. eigenvalues --  -20.53759 -11.33714 -11.26334 -11.25571 -11.25165
 Alpha  occ. eigenvalues --  -11.24386  -1.47235  -1.18128  -0.99196  -0.91850
 Alpha  occ. eigenvalues --   -0.82572  -0.77326  -0.70234  -0.67040  -0.63289
 Alpha  occ. eigenvalues --   -0.59309  -0.57606  -0.56831  -0.53738  -0.52762
 Alpha  occ. eigenvalues --   -0.45397  -0.42571  -0.40795
 Alpha virt. eigenvalues --    0.03109   0.03456   0.03705   0.04611   0.06006
 Alpha virt. eigenvalues --    0.06442   0.06812   0.07552   0.09884   0.12585
 Alpha virt. eigenvalues --    0.12592   0.13272   0.14238   0.14512   0.15042

 Mulliken charges:
               1
     1  C   -0.617958
     2  C    0.329635
     3  C    0.285282
     4  C    0.405608
     5  C    0.750929
     6  O   -1.156833
     7  H    0.135742
     8  H    0.167548
     9  H    0.213033
    10  H   -0.159405
    11  H   -0.089894
    12  H   -0.144661
    13  H   -0.209101
    14  H    0.090075
 Sum of Mulliken charges =  -0.00000

 Dipole moment (field-independent basis, Debye):
    X=             -3.6534    Y=              0.6366    Z=              0.5664  Tot=              3.7514

 Test job not archived.
 1\1\GINC-SE219\SP\RHF\Aug-CC-pVDZ\C5H8O1\OHZDE\09-Apr-2025\0\\#t hf au
 g-cc-pvdz iop(5/13=1,5/36=2,99/5=2) pseudo=read geom=check guess=(read
 ,tcheck) scf=(maxcycle=1)\\title\\0,1\C,0,-1.29183222,-0.94455191,-0.3
 7163497\C,0,-0.57139405,0.36887143,-0.54713083\C,0,-0.18639074,1.20799
 336,0.61420636\C,0,0.89886199,0.54958069,-0.21238844\C,0,1.67348083,-0
 .55006545,0.39114941\O,0,2.82249998,-0.7897278,0.12932829\H,0,-1.06687
 978,-1.41350901,0.5869238\H,0,-2.3710941,-0.78498295,-0.40918827\H,0,-
 1.02954429,-1.6511391,-1.16125991\H,0,-0.86227891,0.91349117,-1.438503

 Normal termination of Gaussian 16 at Wed Apr  9 17:07:24 2025.
