 Gaussian 16, Revision C.01,

 ----------------------------------------------------------------------
 #t hf aug-cc-pvdz symm=none int=(grid=ultrafine) guess=(read,tcheck) s
 table=(opt,rrhf)
 ----------------------------------------------------------------------
 -----
 title
 -----
 Symbolic Z-matrix:
 Charge =  0 Multiplicity = 1

 SCF Done:  E(RHF) =  -302.804154457     A.U. after   16 cycles
 Normal termination of Gaussian 16 at Wed Apr  9 18:15:19 2025.
 Gaussian 16:  ES64L-G16RevC.01  3-Jul-2019

 ----------------------------------------------------------------------
 #t hf aug-cc-pvdz iop(5/13=1,5/36=2,99/5=2) pseudo=read geom=check gue
 ss=(read,tcheck) scf=(maxcycle=1)
 ----------------------------------------------------------------------
 -----
 title
 -----
 Structure from the checkpoint file:  "Grambow2020_wb97xd3_007238_forward_mol1.chk"
 Charge =  0 Multiplicity = 1

                         Standard orientation:
 ---------------------------------------------------------------------
 Center     Atomic      Atomic             Coordinates (Angstroms)
 Number     Number       Type             X           Y           Z
 ---------------------------------------------------------------------
      1          6           0       -1.522978   -1.150972    0.604530
      2          7           0       -1.293668    0.242742   -0.621257
      3          6           0       -0.807024    1.307944    0.037694
      4          7           0        0.485679    1.233461    0.352913
      5          6           0        0.906906    0.036696   -0.085356
      6          6           0        2.301681   -0.456170    0.103476
      7          6           0       -0.174505   -0.620749   -0.670067
      8          1           0       -1.074627   -0.783115    1.520533
      9          1           0       -2.593835   -0.992812    0.567421
     10          1           0       -1.301848   -2.200677    0.428246
     11          1           0       -1.431788    2.152032    0.290956
     12          1           0        2.474067   -0.764979    1.137546
     13          1           0        2.507403   -1.310277   -0.542999
     14          1           0        3.017557    0.333197   -0.125852
     15          1           0       -0.165484   -1.467288   -1.339107
 ---------------------------------------------------------------------

 SCF Done:  E(RHF) =  -303.120203130     A.U. after    2 cycles

 The electronic state is 1-A.
 Alpha  occ. eigenvalues --  -15.52488 -15.49118 -11.32345 -11.27476 -11.26687
 Alpha  occ. eigenvalues --  -11.25243 -11.23276  -1.32757  -1.16360  -1.04119
 Alpha  occ. eigenvalues --   -0.97256  -0.93637  -0.81645  -0.78418  -0.71174
 Alpha  occ. eigenvalues --   -0.64754  -0.63494  -0.59651  -0.58978  -0.57677
 Alpha  occ. eigenvalues --   -0.56038  -0.55219  -0.49559  -0.47230  -0.43614
 Alpha  occ. eigenvalues --   -0.31699
 Alpha virt. eigenvalues --    0.02775   0.03733   0.04122   0.04450   0.05380
 Alpha virt. eigenvalues --    0.06226   0.06627   0.06911   0.09179   0.10309
 Alpha virt. eigenvalues --    0.11443   0.11896   0.13124   0.13539   0.13868

 Mulliken charges:
               1
     1  C   -0.028437
     2  N    0.868819
     3  C   -0.812593
     4  N    1.042277
     5  C   -0.616835
     6  C   -0.549073
     7  C   -0.780224
     8  H    0.219606
     9  H    0.182812
    10  H    0.155308
    11  H   -0.158991
    12  H    0.247289
    13  H    0.198354
    14  H    0.190111
    15  H   -0.158424
 Sum of Mulliken charges =  -0.00000

 Dipole moment (field-independent basis, Debye):
    X=             -0.7562    Y=             -3.7117    Z=              0.7882  Tot=              3.8691

 Test job not archived.
 1\1\GINC-SE229\SP\RHF\Aug-CC-pVDZ\C5H8N2\OHZDE\09-Apr-2025\0\\#t hf au
 g-cc-pvdz iop(5/13=1,5/36=2,99/5=2) pseudo=read geom=check guess=(read
 ,tcheck) scf=(maxcycle=1)\\title\\0,1\C,0,-1.78379203,-0.26649131,-0.5
 9669854\N,0,-1.19196988,0.47456661,1.01518076\C,0,-0.50275261,-0.46563
 737,1.68352955\N,0,0.7246656,-0.70054922,1.22065317\C,0,0.87941,0.0998
 639,0.15427952\C,0,2.11586161,0.11781881,-0.67928904\C,0,-0.29836911,0
 .82418598,-0.02393858\H,0,-1.30160065,-1.23643348,-0.64255459\H,0,-2.7
 8781974,-0.31463986,-0.19329015\H,0,-1.80096158,0.23298906,-1.56214105

 Normal termination of Gaussian 16 at Wed Apr  9 18:15:24 2025.
