 Gaussian 16, Revision C.01,

 ----------------------------------------------------------------------
 #t hf aug-cc-pvdz symm=none int=(grid=ultrafine) guess=(read,tcheck) s
 table=(opt,rrhf)
 ----------------------------------------------------------------------
 -----
 title
 -----
 Symbolic Z-matrix:
 Charge =  0 Multiplicity = 1

 SCF Done:  E(RHF) =  -304.609893679     A.U. after   16 cycles
 Normal termination of Gaussian 16 at Wed Apr  9 15:55:42 2025.
 Gaussian 16:  ES64L-G16RevC.01  3-Jul-2019

 ----------------------------------------------------------------------
 #t hf aug-cc-pvdz iop(5/13=1,5/36=2,99/5=2) pseudo=read geom=check gue
 ss=(read,tcheck) scf=(maxcycle=1)
 ----------------------------------------------------------------------
 -----
 title
 -----
 Structure from the checkpoint file:  "Grambow2020_b97d3_007016_forward_mol1.chk"
 Charge =  0 Multiplicity = 1

                         Standard orientation:
 ---------------------------------------------------------------------
 Center     Atomic      Atomic             Coordinates (Angstroms)
 Number     Number       Type             X           Y           Z
 ---------------------------------------------------------------------
      1          8           0       -1.929239   -0.567068   -0.027394
      2          6           0       -1.052070    0.338571   -0.423828
      3          6           0       -0.199449    1.208610    0.389537
      4          6           0        1.194006    0.887341   -0.107903
      5          6           0        1.532779   -0.467774   -0.083819
      6          8           0        0.714921   -1.405076    0.147710
      7          1           0       -1.763759   -0.781491    0.915236
      8          1           0       -1.054163    0.462613   -1.506211
      9          1           0       -0.438455    2.253555    0.129654
     10          1           0       -0.366470    1.068254    1.472209
     11          1           0        1.873403    1.681031   -0.409486
     12          1           0        2.612394   -0.707298   -0.207856
 ---------------------------------------------------------------------

 SCF Done:  E(RHF) =  -304.917017929     A.U. after    2 cycles

 The electronic state is 1-A.
 Alpha  occ. eigenvalues --  -20.67226 -20.46159 -11.44419 -11.28482 -11.28078
 Alpha  occ. eigenvalues --  -11.19519  -1.58541  -1.38024  -1.11280  -0.95954
 Alpha  occ. eigenvalues --   -0.90547  -0.75942  -0.75493  -0.72197  -0.65943
 Alpha  occ. eigenvalues --   -0.63032  -0.59375  -0.58047  -0.55561  -0.51631
 Alpha  occ. eigenvalues --   -0.47830  -0.36687  -0.27872
 Alpha virt. eigenvalues --    0.02595   0.03262   0.03495   0.04851   0.05364
 Alpha virt. eigenvalues --    0.06299   0.06840   0.09810   0.11309   0.11878
 Alpha virt. eigenvalues --    0.13655   0.14019   0.14329   0.14503   0.15483

 Mulliken charges:
               1
     1  O   -1.253033
     2  C    1.448505
     3  C   -0.653390
     4  C    0.248073
     5  C    0.881152
     6  O   -1.384992
     7  H    0.405019
     8  H    0.043998
     9  H    0.294950
    10  H    0.110666
    11  H   -0.218284
    12  H    0.077337
 Sum of Mulliken charges =  -0.00000

 Dipole moment (field-independent basis, Debye):
    X=             -4.0327    Y=              3.5742    Z=              0.1731  Tot=              5.3914

 Test job not archived.
 1\1\GINC-SE042\SP\RHF\Aug-CC-pVDZ\C4H6O2\OHZDE\09-Apr-2025\0\\#t hf au
 g-cc-pvdz iop(5/13=1,5/36=2,99/5=2) pseudo=read geom=check guess=(read
 ,tcheck) scf=(maxcycle=1)\\title\\0,1\O,0,-2.15785014,0.38745958,0.230
 30084\C,0,-1.15195612,-0.34286098,-0.21867188\C,0,0.01682865,0.0814496
 9,-0.99287842\C,0,1.18007449,-0.38417036,-0.14291659\C,0,1.15538414,0.
 05282441,1.18377444\O,0,0.17111482,0.63355142,1.72691778\H,0,-1.903522
 1,1.33424586,0.20155964\H,0,-1.296708,-1.4039978,-0.0187244\H,0,0.0180
 3871,-0.48477899,-1.9394282\H,0,-0.00363509,1.16031596,-1.2282555\H,0,

 Normal termination of Gaussian 16 at Wed Apr  9 15:55:46 2025.
