 Gaussian 16, Revision C.01,

 ----------------------------------------------------------------------
 #t hf aug-cc-pvdz symm=none int=(grid=ultrafine) guess=(read,tcheck) s
 table=(opt,rrhf)
 ----------------------------------------------------------------------
 -----
 title
 -----
 Symbolic Z-matrix:
 Charge =  0 Multiplicity = 1

 SCF Done:  E(RHF) =  -245.684102642     A.U. after   15 cycles
 Normal termination of Gaussian 16 at Wed Apr  9 16:28:43 2025.
 Gaussian 16:  ES64L-G16RevC.01  3-Jul-2019

 ----------------------------------------------------------------------
 #t hf aug-cc-pvdz iop(5/13=1,5/36=2,99/5=2) pseudo=read geom=check gue
 ss=(read,tcheck) scf=(maxcycle=1)
 ----------------------------------------------------------------------
 -----
 title
 -----
 Structure from the checkpoint file:  "Grambow2020_wb97xd3_006119_reverse_mol1.chk"
 Charge =  0 Multiplicity = 1

                         Standard orientation:
 ---------------------------------------------------------------------
 Center     Atomic      Atomic             Coordinates (Angstroms)
 Number     Number       Type             X           Y           Z
 ---------------------------------------------------------------------
      1          6           0       -0.849133   -1.213197    0.071584
      2          6           0        1.305634   -0.531377   -0.096504
      3          7           0        0.901725    0.807267    0.110016
      4          6           0       -0.328420    1.051238    0.063124
      5          8           0       -1.233848    0.075894   -0.206664
      6          1           0        0.398735   -1.304707   -0.454850
      7          1           0       -0.586433   -1.234438    1.148547
      8          1           0        1.770632   -0.982896    0.776657
      9          1           0        1.961200   -0.619847   -0.966821
     10          1           0       -0.753906    2.043883    0.150442
 ---------------------------------------------------------------------

 SCF Done:  E(RHF) =  -245.932467658     A.U. after    2 cycles

 The electronic state is 1-A.
 Alpha  occ. eigenvalues --  -20.60577 -15.51929 -11.36579 -11.31958 -11.31477
 Alpha  occ. eigenvalues --   -1.55028  -1.26381  -1.03450  -0.91127  -0.82877
 Alpha  occ. eigenvalues --   -0.74374  -0.71435  -0.66164  -0.62333  -0.58548
 Alpha  occ. eigenvalues --   -0.54852  -0.49862  -0.44267  -0.36454
 Alpha virt. eigenvalues --    0.03277   0.04507   0.04535   0.05668   0.07102
 Alpha virt. eigenvalues --    0.08871   0.09316   0.09746   0.10365   0.12772
 Alpha virt. eigenvalues --    0.14010   0.14878   0.15110   0.15973   0.16949

 Mulliken charges:
               1
     1  C   -0.024792
     2  C   -0.629155
     3  N    0.632896
     4  C    0.271304
     5  O   -1.101894
     6  H    0.430828
     7  H    0.216373
     8  H    0.087137
     9  H    0.078117
    10  H    0.039186
 Sum of Mulliken charges =  -0.00000

 Dipole moment (field-independent basis, Debye):
    X=              0.9153    Y=              0.6896    Z=              0.8077  Tot=              1.4020

 Test job not archived.
 1\1\GINC-SE041\SP\RHF\Aug-CC-pVDZ\C3H5N1O1\OHZDE\09-Apr-2025\0\\#t hf
 aug-cc-pvdz iop(5/13=1,5/36=2,99/5=2) pseudo=read geom=check guess=(re
 ad,tcheck) scf=(maxcycle=1)\\title\\0,1\C,0,-0.5968899,-1.35761916,-0.
 18863138\C,0,-0.62840989,0.82042478,0.4368944\N,0,0.71461657,0.9630763
 6,0.02012948\C,0,1.34645499,-0.08567432,-0.25533109\O,0,0.77472271,-1.
 31075041,-0.12807782\H,0,-0.9966568,-0.35238973,0.63135727\H,0,-0.8812
 2554,-0.91173128,-1.16313109\H,0,-1.34485522,1.25957483,-0.25329181\H,
 0,-0.77692025,1.2168451,1.44478444\H,0,2.39396433,-0.10816117,-0.53142

 Normal termination of Gaussian 16 at Wed Apr  9 16:28:46 2025.
