 Gaussian 16, Revision C.01,

 ----------------------------------------------------------------------
 #t hf aug-cc-pvdz symm=none int=(grid=ultrafine) guess=(read,tcheck) s
 table=(opt,rrhf)
 ----------------------------------------------------------------------
 -----
 title
 -----
 Symbolic Z-matrix:
 Charge =  0 Multiplicity = 1

 SCF Done:  E(RHF) =  -266.691043272     A.U. after   14 cycles
 Normal termination of Gaussian 16 at Wed Apr  9 03:05:12 2025.
 Gaussian 16:  ES64L-G16RevC.01  3-Jul-2019

 ----------------------------------------------------------------------
 #t hf aug-cc-pvdz iop(5/13=1,5/36=2,99/5=2) pseudo=read geom=check gue
 ss=(read,tcheck) scf=(maxcycle=1)
 ----------------------------------------------------------------------
 -----
 title
 -----
 Structure from the checkpoint file:  "Grambow2020_b97d3_006477_reverse_mol2.chk"
 Charge =  0 Multiplicity = 1

                         Standard orientation:
 ---------------------------------------------------------------------
 Center     Atomic      Atomic             Coordinates (Angstroms)
 Number     Number       Type             X           Y           Z
 ---------------------------------------------------------------------
      1          8           0        1.876097    0.369446    0.137007
      2          6           0        0.888305   -0.606574    0.157556
      3          6           0       -1.780515   -0.514352    0.352236
      4          6           0       -1.129959    0.817698    0.114717
      5          8           0       -0.295768   -0.180468   -0.589311
      6          1           0        2.213918    0.446997   -0.775326
      7          1           0        1.170126   -1.542841   -0.343661
      8          1           0        0.602863   -0.778936    1.198024
      9          1           0       -2.448177   -0.666312   -0.526408
     10          1           0       -0.588113    1.288400    0.944107
     11          1           0       -1.460231    1.560241   -0.625362
 ---------------------------------------------------------------------

 SCF Done:  E(RHF) =  -266.961176283     A.U. after    2 cycles

 The electronic state is 1-A.
 Alpha  occ. eigenvalues --  -20.60581 -20.58197 -11.36217 -11.30471 -11.26267
 Alpha  occ. eigenvalues --   -1.52378  -1.46195  -1.01844  -0.90548  -0.82002
 Alpha  occ. eigenvalues --   -0.73618  -0.70338  -0.66497  -0.62318  -0.58444
 Alpha  occ. eigenvalues --   -0.52981  -0.50795  -0.49354  -0.46397  -0.35646
 Alpha virt. eigenvalues --    0.03237   0.04143   0.04697   0.05260   0.06730
 Alpha virt. eigenvalues --    0.07415   0.09438   0.11031   0.12212   0.13589
 Alpha virt. eigenvalues --    0.14209   0.14815   0.16349   0.16987   0.17544

 Mulliken charges:
               1
     1  O   -1.015724
     2  C    1.293172
     3  C   -0.180807
     4  C    0.499066
     5  O   -1.269867
     6  H    0.286818
     7  H    0.061443
     8  H    0.111223
     9  H    0.123789
    10  H    0.107127
    11  H   -0.016240
 Sum of Mulliken charges =  -0.00000

 Dipole moment (field-independent basis, Debye):
    X=              1.3773    Y=              1.1858    Z=             -1.8736  Tot=              2.6103

 Test job not archived.
 1\1\GINC-SE368\SP\RHF\Aug-CC-pVDZ\C3H6O2\OHZDE\09-Apr-2025\0\\#t hf au
 g-cc-pvdz iop(5/13=1,5/36=2,99/5=2) pseudo=read geom=check guess=(read
 ,tcheck) scf=(maxcycle=1)\\title\\0,1\O,0,-1.72877553,-0.79280996,-0.6
 1422204\C,0,-1.05354906,0.38201817,-0.30989132\C,0,1.27098059,0.899729
 39,0.91385102\C,0,1.05647782,-0.54761628,0.57743248\O,0,0.39026371,0.2
 2776416,-0.49159041\H,0,-1.64899027,-0.95463353,-1.5733557\H,0,-1.2950
 7836,1.22457685,-0.97245845\H,0,-1.2507993,0.62564889,0.73676861\H,0,2
 .18860135,1.18988496,0.35290384\H,0,0.33591157,-1.12016217,1.17410758\

 Normal termination of Gaussian 16 at Wed Apr  9 03:05:14 2025.
