 Gaussian 16, Revision C.01,

 ----------------------------------------------------------------------
 #t hf aug-cc-pvdz symm=none int=(grid=ultrafine) guess=(read,tcheck) s
 table=(opt,rrhf)
 ----------------------------------------------------------------------
 -----
 title
 -----
 Symbolic Z-matrix:
 Charge =  0 Multiplicity = 1

 SCF Done:  E(RHF) =  -262.430155126     A.U. after   17 cycles
 Normal termination of Gaussian 16 at Wed Apr  9 15:55:39 2025.
 Gaussian 16:  ES64L-G16RevC.01  3-Jul-2019

 ----------------------------------------------------------------------
 #t hf aug-cc-pvdz iop(5/13=1,5/36=2,99/5=2) pseudo=read geom=check gue
 ss=(read,tcheck) scf=(maxcycle=1)
 ----------------------------------------------------------------------
 -----
 title
 -----
 Structure from the checkpoint file:  "Grambow2020_b97d3_006898_forward_mol1.chk"
 Charge =  0 Multiplicity = 1

                         Standard orientation:
 ---------------------------------------------------------------------
 Center     Atomic      Atomic             Coordinates (Angstroms)
 Number     Number       Type             X           Y           Z
 ---------------------------------------------------------------------
      1          6           0       -1.232268   -0.634747    0.462377
      2          6           0       -0.181601   -1.128459   -0.268034
      3          7           0        1.186887   -0.843165   -0.126728
      4          7           0        1.268626    0.442744    0.190474
      5          6           0        0.176471    1.224484    0.127698
      6          6           0       -1.065267    0.611044   -0.341228
      7          1           0       -1.383533   -0.740419    1.534516
      8          1           0       -0.448161   -0.330877   -1.266001
      9          1           0        0.311160    2.292341    0.285189
     10          1           0       -1.852062    1.147974   -0.884808
 ---------------------------------------------------------------------

 SCF Done:  E(RHF) =  -262.691258033     A.U. after    2 cycles

 The electronic state is 1-A.
 Alpha  occ. eigenvalues --  -15.57354 -15.56481 -11.33850 -11.33476 -11.29884
 Alpha  occ. eigenvalues --  -11.29797  -1.36598  -1.16706  -1.10653  -0.91034
 Alpha  occ. eigenvalues --   -0.87810  -0.78549  -0.71562  -0.69428  -0.63536
 Alpha  occ. eigenvalues --   -0.61826  -0.56404  -0.50213  -0.46861  -0.41053
 Alpha  occ. eigenvalues --   -0.35217
 Alpha virt. eigenvalues --    0.00883   0.02853   0.03987   0.04207   0.05203
 Alpha virt. eigenvalues --    0.08051   0.08471   0.09811   0.10620   0.11252
 Alpha virt. eigenvalues --    0.11976   0.12532   0.13744   0.14611   0.15396

 Mulliken charges:
               1
     1  C    0.419190
     2  C   -0.858426
     3  N    0.053427
     4  N    0.198023
     5  C   -0.205968
     6  C   -0.257909
     7  H   -0.040656
     8  H    0.796034
     9  H   -0.057854
    10  H   -0.045861
 Sum of Mulliken charges =  -0.00000

 Dipole moment (field-independent basis, Debye):
    X=             -4.6297    Y=              2.0924    Z=              0.0656  Tot=              5.0810

 Test job not archived.
 1\1\GINC-SE114\SP\RHF\Aug-CC-pVDZ\C4H4N2\OHZDE\09-Apr-2025\0\\#t hf au
 g-cc-pvdz iop(5/13=1,5/36=2,99/5=2) pseudo=read geom=check guess=(read
 ,tcheck) scf=(maxcycle=1)\\title\\0,1\C,0,0.93472668,0.79562885,-0.518
 84316\C,0,1.3072616,-0.34239814,0.1499356\N,0,0.80969289,-1.64688862,-
 0.00769891\N,0,-0.49073376,-1.52396246,-0.24145111\C,0,-1.0925417,-0.3
 3006628,-0.09897216\C,0,-0.27038765,0.78842614,0.36053941\H,0,0.996228
 44,0.9674289,-1.59133242\H,0,0.62195765,0.00482269,1.20488886\H,0,-2.1
 7609329,-0.29776938,-0.18916273\H,0,-0.64751686,1.62685829,0.95855562\

 Normal termination of Gaussian 16 at Wed Apr  9 15:55:42 2025.
