 Gaussian 16, Revision C.01,

 ----------------------------------------------------------------------
 #t hf aug-cc-pvdz symm=none int=(grid=ultrafine) guess=(read,tcheck) s
 table=(opt,rrhf)
 ----------------------------------------------------------------------
 -----
 title
 -----
 Symbolic Z-matrix:
 Charge =  0 Multiplicity = 1

 SCF Done:  E(RHF) =  -325.077078494     A.U. after   13 cycles
 Normal termination of Gaussian 16 at Wed Apr  9 19:14:14 2025.
 Gaussian 16:  ES64L-G16RevC.01  3-Jul-2019

 ----------------------------------------------------------------------
 #t hf aug-cc-pvdz iop(5/13=1,5/36=2,99/5=2) pseudo=read geom=check gue
 ss=(read,tcheck) scf=(maxcycle=1)
 ----------------------------------------------------------------------
 -----
 title
 -----
 Structure from the checkpoint file:  "Grambow2020_wb97xd3_008959_reverse_mol2.chk"
 Charge =  0 Multiplicity = 1

                         Standard orientation:
 ---------------------------------------------------------------------
 Center     Atomic      Atomic             Coordinates (Angstroms)
 Number     Number       Type             X           Y           Z
 ---------------------------------------------------------------------
      1          6           0       -2.524202    1.129102    0.007496
      2          6           0       -2.203887   -0.298409    0.428948
      3          7           0        0.143409   -0.248750   -0.292807
      4          6           0       -1.115167   -0.954326   -0.414221
      5          6           0        1.165747   -0.866431    0.097691
      6          6           0        2.469775   -0.138986    0.232066
      7          8           0        2.356773    1.210476   -0.103483
      8          1           0       -3.310004    1.555236    0.633308
      9          1           0       -2.867152    1.163749   -1.029607
     10          1           0       -1.643844    1.767261    0.088080
     11          1           0       -1.894283   -0.317352    1.478453
     12          1           0       -3.102637   -0.918084    0.358998
     13          1           0       -1.009463   -2.011826   -0.132809
     14          1           0       -1.408727   -0.920753   -1.468429
     15          1           0        1.154405   -1.935298    0.349275
     16          1           0        2.825954   -0.250763    1.265529
     17          1           0        3.210410   -0.637192   -0.409525
     18          1           0        1.433699    1.336761   -0.367644
 ---------------------------------------------------------------------

 SCF Done:  E(RHF) =  -325.423633913     A.U. after    2 cycles

 The electronic state is 1-A.
 Alpha  occ. eigenvalues --  -20.53539 -15.50466 -11.29278 -11.29082 -11.26393
 Alpha  occ. eigenvalues --  -11.23230 -11.22024  -1.44870  -1.24832  -1.06739
 Alpha  occ. eigenvalues --   -0.99031  -0.92573  -0.83170  -0.77483  -0.71446
 Alpha  occ. eigenvalues --   -0.69148  -0.64792  -0.62891  -0.61289  -0.59171
 Alpha  occ. eigenvalues --   -0.57083  -0.52778  -0.51432  -0.49777  -0.48422
 Alpha  occ. eigenvalues --   -0.45477  -0.44827  -0.42612
 Alpha virt. eigenvalues --    0.03393   0.03935   0.04134   0.04357   0.05280
 Alpha virt. eigenvalues --    0.05443   0.05959   0.06814   0.07431   0.09256
 Alpha virt. eigenvalues --    0.09706   0.10960   0.12096   0.12690   0.13994

 Mulliken charges:
               1
     1  C   -0.330447
     2  C   -0.327182
     3  N    0.914801
     4  C   -0.382287
     5  C   -0.976951
     6  C    0.844425
     7  O   -1.238985
     8  H    0.129545
     9  H    0.157243
    10  H    0.183445
    11  H    0.107616
    12  H    0.143193
    13  H    0.098496
    14  H    0.072808
    15  H   -0.152765
    16  H    0.180939
    17  H    0.173676
    18  H    0.402430
 Sum of Mulliken charges =   0.00000

 Dipole moment (field-independent basis, Debye):
    X=             -1.0072    Y=             -2.9981    Z=              0.5581  Tot=              3.2116

 Test job not archived.
 1\1\GINC-SE118\SP\RHF\Aug-CC-pVDZ\C5H11N1O1\OHZDE\09-Apr-2025\0\\#t hf
  aug-cc-pvdz iop(5/13=1,5/36=2,99/5=2) pseudo=read geom=check guess=(r
 ead,tcheck) scf=(maxcycle=1)\\title\\0,1\C,0,-2.22313334,-1.11600669,-
 0.00089128\C,0,-1.82234075,0.25815368,0.51781818\N,0,0.59119894,-0.041
 93295,0.17435062\C,0,-0.43153728,0.29306048,1.1430523\C,0,1.52529041,0
 .76898374,-0.04718851\C,0,2.58285205,0.43023073,-1.05442686\O,0,2.3616
 2564,-0.81040777,-1.65299738\H,0,-3.22464528,-1.09448394,-0.43358687\H
 ,0,-2.22293023,-1.85426089,0.80494934\H,0,-1.53008242,-1.46142232,-0.7

 Normal termination of Gaussian 16 at Wed Apr  9 19:14:21 2025.
