 Gaussian 16, Revision C.01,

 ----------------------------------------------------------------------
 #t hf aug-cc-pvdz symm=none int=(grid=ultrafine) guess=(read,tcheck) s
 table=(opt,rrhf)
 ----------------------------------------------------------------------
 -----
 title
 -----
 Symbolic Z-matrix:
 Charge =  0 Multiplicity = 1

 SCF Done:  E(RHF) =  -343.568974015     A.U. after   15 cycles
 Normal termination of Gaussian 16 at Wed Apr  9 18:10:16 2025.
 Gaussian 16:  ES64L-G16RevC.01  3-Jul-2019

 ----------------------------------------------------------------------
 #t hf aug-cc-pvdz iop(5/13=1,5/36=2,99/5=2) pseudo=read geom=check gue
 ss=(read,tcheck) scf=(maxcycle=1)
 ----------------------------------------------------------------------
 -----
 title
 -----
 Structure from the checkpoint file:  "Grambow2020_wb97xd3_007149_reverse_mol1.chk"
 Charge =  0 Multiplicity = 1

                         Standard orientation:
 ---------------------------------------------------------------------
 Center     Atomic      Atomic             Coordinates (Angstroms)
 Number     Number       Type             X           Y           Z
 ---------------------------------------------------------------------
      1          8           0       -1.911871    0.968919   -0.317029
      2          6           0       -1.017744    0.024372   -0.049297
      3          6           0        0.887790    1.389935    0.055055
      4          6           0        1.727237    0.360729    0.346772
      5          8           0        1.905492   -0.649247   -0.445412
      6          6           0       -0.581327   -1.125312   -0.614706
      7          6           0       -0.897546   -1.098497    0.885789
      8          1           0       -2.098666    1.467354    0.483770
      9          1           0        0.590794    1.583840   -0.966330
     10          1           0        0.740782    2.182195    0.779006
     11          1           0        2.172912    0.284042    1.344255
     12          1           0        0.828099   -0.987437   -0.703414
     13          1           0       -1.012077   -1.708238   -1.414785
     14          1           0       -1.819117   -1.544940    1.255578
     15          1           0       -0.062156   -1.141559    1.579781
 ---------------------------------------------------------------------

 SCF Done:  E(RHF) =  -343.922398112     A.U. after    2 cycles

 The electronic state is 1-A.
 Alpha  occ. eigenvalues --  -20.62278 -20.52695 -11.36487 -11.30333 -11.26769
 Alpha  occ. eigenvalues --  -11.22589 -11.22079  -1.54069  -1.45178  -1.18274
 Alpha  occ. eigenvalues --   -1.01066  -0.87099  -0.82284  -0.79276  -0.73004
 Alpha  occ. eigenvalues --   -0.68822  -0.67357  -0.66409  -0.64477  -0.57709
 Alpha  occ. eigenvalues --   -0.56380  -0.54216  -0.49564  -0.47304  -0.45604
 Alpha  occ. eigenvalues --   -0.36371  -0.33729
 Alpha virt. eigenvalues --    0.02478   0.03797   0.03975   0.04795   0.06222
 Alpha virt. eigenvalues --    0.06438   0.06919   0.08221   0.08712   0.10377
 Alpha virt. eigenvalues --    0.12118   0.12719   0.13147   0.13753   0.14779

 Mulliken charges:
               1
     1  O   -1.360586
     2  C    1.284551
     3  C   -0.418493
     4  C    1.295799
     5  O   -1.627501
     6  C   -0.144760
     7  C    0.047427
     8  H    0.312547
     9  H    0.044863
    10  H   -0.158924
    11  H    0.064430
    12  H    0.969414
    13  H   -0.197047
    14  H   -0.094747
    15  H   -0.016973
 Sum of Mulliken charges =  -0.00000

 Dipole moment (field-independent basis, Debye):
    X=             -3.1348    Y=              1.1654    Z=              2.2773  Tot=              4.0461

 Test job not archived.
 1\1\GINC-SE162\SP\RHF\Aug-CC-pVDZ\C5H8O2\OHZDE\09-Apr-2025\0\\#t hf au
 g-cc-pvdz iop(5/13=1,5/36=2,99/5=2) pseudo=read geom=check guess=(read
 ,tcheck) scf=(maxcycle=1)\\title\\0,1\O,0,-0.39789047,-1.45339003,-1.5
 4347048\C,0,-0.50145367,-0.41595796,-0.72108333\C,0,1.50894588,-0.7183
 7258,0.45090336\C,0,1.32725648,0.37641328,1.2366954\O,0,0.31970189,0.5
 0684235,2.04118471\C,0,-1.37331477,0.03540816,0.21060692\C,0,-0.820144
 03,1.01054377,-0.83596338\H,0,0.23878068,-1.2499755,-2.2347603\H,0,1.0
 2452148,-1.65432759,0.6924675\H,0,2.34314744,-0.7490562,-0.23942834\H,

 Normal termination of Gaussian 16 at Wed Apr  9 18:10:21 2025.
