 Gaussian 16, Revision C.01,

 ----------------------------------------------------------------------
 #t hf aug-cc-pvdz symm=none int=(grid=ultrafine) guess=(read,tcheck) s
 table=(opt,rrhf)
 ----------------------------------------------------------------------
 -----
 title
 -----
 Symbolic Z-matrix:
 Charge =  0 Multiplicity = 1

 SCF Done:  E(RHF) =  -359.782751956     A.U. after   15 cycles
 Normal termination of Gaussian 16 at Wed Apr  9 03:52:35 2025.
 Gaussian 16:  ES64L-G16RevC.01  3-Jul-2019

 ----------------------------------------------------------------------
 #t hf aug-cc-pvdz iop(5/13=1,5/36=2,99/5=2) pseudo=read geom=check gue
 ss=(read,tcheck) scf=(maxcycle=1)
 ----------------------------------------------------------------------
 -----
 title
 -----
 Structure from the checkpoint file:  "Grambow2020_wb97xd3_008279_reverse_mol2.chk"
 Charge =  0 Multiplicity = 1

                         Standard orientation:
 ---------------------------------------------------------------------
 Center     Atomic      Atomic             Coordinates (Angstroms)
 Number     Number       Type             X           Y           Z
 ---------------------------------------------------------------------
      1          6           0       -2.799365   -0.538130    0.098772
      2          6           0       -1.483451    0.180925   -0.014841
      3          6           0       -0.249534   -0.696053   -0.132286
      4          7           0        0.939822    0.101497   -0.085480
      5          6           0        2.191584   -0.393832    0.041077
      6          8           0        3.197737    0.270905    0.085647
      7          8           0       -1.393158    1.381344   -0.007925
      8          1           0       -2.833327   -1.419274   -0.543719
      9          1           0       -3.614438    0.139247   -0.144844
     10          1           0       -2.922517   -0.878549    1.130337
     11          1           0        2.210238   -1.499445    0.103476
     12          1           0       -0.346693   -1.253607   -1.073686
     13          1           0       -0.278811   -1.437676    0.673886
     14          1           0        0.814752    1.103382   -0.125197
 ---------------------------------------------------------------------

 SCF Done:  E(RHF) =  -360.148378459     A.U. after    2 cycles

 The electronic state is 1-A.
 Alpha  occ. eigenvalues --  -20.56271 -20.51471 -15.53160 -11.36702 -11.36062
 Alpha  occ. eigenvalues --  -11.30935 -11.26729  -1.50445  -1.46342  -1.25818
 Alpha  occ. eigenvalues --   -1.07241  -0.99496  -0.87521  -0.79418  -0.73115
 Alpha  occ. eigenvalues --   -0.71444  -0.68971  -0.65746  -0.63808  -0.62029
 Alpha  occ. eigenvalues --   -0.60501  -0.58089  -0.56071  -0.51843  -0.44340
 Alpha  occ. eigenvalues --   -0.42979  -0.42247
 Alpha virt. eigenvalues --    0.02310   0.03429   0.03550   0.05025   0.05815
 Alpha virt. eigenvalues --    0.06729   0.07756   0.08950   0.10636   0.10922
 Alpha virt. eigenvalues --    0.11769   0.12466   0.13293   0.13800   0.14516

 Mulliken charges:
               1
     1  C   -0.433176
     2  C    1.227034
     3  C   -0.819614
     4  N    0.740767
     5  C    0.604224
     6  O   -1.105396
     7  O   -1.405272
     8  H    0.213063
     9  H    0.149643
    10  H    0.271171
    11  H    0.073051
    12  H    0.187712
    13  H    0.159663
    14  H    0.137129
 Sum of Mulliken charges =   0.00000

 Dipole moment (field-independent basis, Debye):
    X=             -4.6071    Y=             -4.2065    Z=             -0.1346  Tot=              6.2401

 Test job not archived.
 1\1\GINC-SE424\SP\RHF\Aug-CC-pVDZ\C4H7N1O2\OHZDE\09-Apr-2025\0\\#t hf
 aug-cc-pvdz iop(5/13=1,5/36=2,99/5=2) pseudo=read geom=check guess=(re
 ad,tcheck) scf=(maxcycle=1)\\title\\0,1\C,0,-2.20791736,-0.72211727,0.
 24109445\C,0,-0.72751626,-0.72081561,0.50564695\C,0,0.06690759,0.40002
 644,-0.14091284\N,0,1.47112931,0.20443072,0.06584269\C,0,2.44382127,0.
 90925903,-0.55493303\O,0,3.62825884,0.74791745,-0.38976378\O,0,-0.1849
 3046,-1.55555405,1.18241676\H,0,-2.61799051,0.2889215,0.24287006\H,0,-
 2.71613898,-1.33770487,0.97953526\H,0,-2.38427005,-1.14661835,-0.75081

 Normal termination of Gaussian 16 at Wed Apr  9 03:52:40 2025.
