 Gaussian 16, Revision C.01,

 ----------------------------------------------------------------------
 #t hf aug-cc-pvdz symm=none int=(grid=ultrafine) guess=(read,tcheck) s
 table=(opt,rrhf)
 ----------------------------------------------------------------------
 -----
 title
 -----
 Symbolic Z-matrix:
 Charge =  0 Multiplicity = 1

 SCF Done:  E(RHF) =  -322.579190839     A.U. after   15 cycles
 Normal termination of Gaussian 16 at Wed Apr  9 03:39:29 2025.
 Gaussian 16:  ES64L-G16RevC.01  3-Jul-2019

 ----------------------------------------------------------------------
 #t hf aug-cc-pvdz iop(5/13=1,5/36=2,99/5=2) pseudo=read geom=check gue
 ss=(read,tcheck) scf=(maxcycle=1)
 ----------------------------------------------------------------------
 -----
 title
 -----
 Structure from the checkpoint file:  "Grambow2020_wb97xd3_007373_forward_mol1.chk"
 Charge =  0 Multiplicity = 1

                         Standard orientation:
 ---------------------------------------------------------------------
 Center     Atomic      Atomic             Coordinates (Angstroms)
 Number     Number       Type             X           Y           Z
 ---------------------------------------------------------------------
      1          6           0        1.461687   -0.184048    0.638275
      2          6           0        0.839844   -1.007395   -0.433916
      3          6           0       -0.543854   -1.165431   -0.410189
      4          8           0       -1.175392   -0.552673    0.700401
      5          6           0       -1.284347    0.670056   -0.007806
      6          7           0       -0.239162    1.449752   -0.255995
      7          6           0        0.986840    0.987852   -0.159173
      8          1           0        1.033904   -0.301211    1.626913
      9          1           0        2.545222   -0.242251    0.660800
     10          1           0        1.429575   -1.428288   -1.236472
     11          1           0       -1.045112   -2.043297   -0.803469
     12          1           0       -1.118390   -0.153123   -1.145518
     13          1           0       -2.269423    1.119992    0.062220
     14          1           0        1.740474    1.515094   -0.738867
 ---------------------------------------------------------------------

 SCF Done:  E(RHF) =  -322.911608298     A.U. after    2 cycles

 The electronic state is 1-A.
 Alpha  occ. eigenvalues --  -20.56416 -15.49361 -11.34361 -11.31964 -11.29436
 Alpha  occ. eigenvalues --  -11.26005 -11.25111  -1.50620  -1.24747  -1.10974
 Alpha  occ. eigenvalues --   -0.98554  -0.93506  -0.80114  -0.79021  -0.73933
 Alpha  occ. eigenvalues --   -0.68464  -0.67634  -0.64062  -0.62707  -0.55566
 Alpha  occ. eigenvalues --   -0.54694  -0.53288  -0.48760  -0.45010  -0.39083
 Alpha  occ. eigenvalues --   -0.32315
 Alpha virt. eigenvalues --    0.03319   0.03817   0.04393   0.04634   0.05515
 Alpha virt. eigenvalues --    0.06193   0.06896   0.09230   0.10410   0.11074
 Alpha virt. eigenvalues --    0.12644   0.13030   0.13779   0.14145   0.14619

 Mulliken charges:
               1
     1  C    0.401002
     2  C    0.240988
     3  C    0.297482
     4  O   -1.359379
     5  C   -0.351653
     6  N    1.087671
     7  C   -0.778196
     8  H   -0.005705
     9  H    0.060892
    10  H   -0.192181
    11  H   -0.003782
    12  H    0.854783
    13  H   -0.107863
    14  H   -0.144061
 Sum of Mulliken charges =  -0.00000

 Dipole moment (field-independent basis, Debye):
    X=              1.1557    Y=             -1.9018    Z=             -0.7746  Tot=              2.3564

 Test job not archived.
 1\1\GINC-SE021\SP\RHF\Aug-CC-pVDZ\C5H7N1O1\OHZDE\09-Apr-2025\0\\#t hf
 aug-cc-pvdz iop(5/13=1,5/36=2,99/5=2) pseudo=read geom=check guess=(re
 ad,tcheck) scf=(maxcycle=1)\\title\\0,1\C,0,-1.37925647,-0.47226229,0.
 30579175\C,0,-0.83314836,0.75220542,-0.3396744\C,0,0.37201849,1.257197
 99,0.14273127\O,0,0.89113551,0.5476643,1.25394794\C,0,1.56456485,-0.35
 365632,0.3921999\N,0,0.92834773,-1.28002567,-0.3142001\C,0,-0.36766002
 ,-1.20496015,-0.51553694\H,0,-1.26051531,-0.52788174,1.3814019\H,0,-2.
 39325905,-0.71129367,0.00147976\H,0,-1.32274759,1.20946791,-1.18833953

 Normal termination of Gaussian 16 at Wed Apr  9 03:39:34 2025.
