 Gaussian 16, Revision C.01,

 ----------------------------------------------------------------------
 #t hf aug-cc-pvdz symm=none int=(grid=ultrafine) guess=(read,tcheck) s
 table=(opt,rrhf)
 ----------------------------------------------------------------------
 -----
 title
 -----
 Symbolic Z-matrix:
 Charge =  0 Multiplicity = 1

 SCF Done:  E(RHF) =  -260.502005011     A.U. after   16 cycles
 Normal termination of Gaussian 16 at Wed Apr  9 03:20:16 2025.
 Gaussian 16:  ES64L-G16RevC.01  3-Jul-2019

 ----------------------------------------------------------------------
 #t hf aug-cc-pvdz iop(5/13=1,5/36=2,99/5=2) pseudo=read geom=check gue
 ss=(read,tcheck) scf=(maxcycle=1)
 ----------------------------------------------------------------------
 -----
 title
 -----
 Structure from the checkpoint file:  "Grambow2020_wb97xd3_006039_reverse_mol1.chk"
 Charge =  0 Multiplicity = 1

                         Standard orientation:
 ---------------------------------------------------------------------
 Center     Atomic      Atomic             Coordinates (Angstroms)
 Number     Number       Type             X           Y           Z
 ---------------------------------------------------------------------
      1          8           0       -2.120459   -0.182701   -0.002193
      2          6           0       -1.057053    0.517994    0.001115
      3          6           0        0.005879   -0.364486    0.003389
      4          7           0        1.271952   -0.068497    0.000779
      5          7           0        2.379370    0.074723   -0.002203
      6          1           0       -1.095370    1.606831    0.001035
      7          1           0       -1.193170   -1.109851   -0.000541
 ---------------------------------------------------------------------

 SCF Done:  E(RHF) =  -260.753483929     A.U. after    2 cycles

 The electronic state is 1-A.
 Alpha  occ. eigenvalues --  -20.56648 -15.71560 -15.64237 -11.37084 -11.26113
 Alpha  occ. eigenvalues --   -1.52965  -1.50101  -1.18268  -0.94437  -0.82084
 Alpha  occ. eigenvalues --   -0.75604  -0.75067  -0.74191  -0.64479  -0.57421
 Alpha  occ. eigenvalues --   -0.51898  -0.42028  -0.36279
 Alpha virt. eigenvalues --    0.03024   0.03459   0.04150   0.05650   0.07122
 Alpha virt. eigenvalues --    0.10084   0.10362   0.10912   0.11592   0.12657
 Alpha virt. eigenvalues --    0.14398   0.17802   0.17864   0.18470   0.21407

 Mulliken charges:
               1
     1  O   -1.146035
     2  C    1.103657
     3  C   -0.839282
     4  N   -0.773375
     5  N    1.017479
     6  H    0.028234
     7  H    0.609322
 Sum of Mulliken charges =  -0.00000

 Dipole moment (field-independent basis, Debye):
    X=              0.1469    Y=              1.5971    Z=              0.0007  Tot=              1.6039

 Test job not archived.
 1\1\GINC-SE143\SP\RHF\Aug-CC-pVDZ\C2H2N2O1\OHZDE\09-Apr-2025\0\\#t hf
 aug-cc-pvdz iop(5/13=1,5/36=2,99/5=2) pseudo=read geom=check guess=(re
 ad,tcheck) scf=(maxcycle=1)\\title\\0,1\O,0,-0.87092392,1.38922919,-0.
 75356974\C,0,-0.55930202,0.71940547,0.28375613\C,0,0.28522697,-0.29265
 486,-0.12989359\N,0,0.84237757,-1.20290121,0.61279909\N,0,1.36915677,-
 2.02374186,1.15650887\H,0,-0.9451681,0.98504345,1.26741171\H,0,-0.0810
 2027,0.47242082,-1.25853247\\Version=ES64L-G16RevC.01\State=1-A\HF=-26
 0.7534839\RMSD=7.222e-02\Dipole=-0.1816048,0.0915233,0.5973344\Quadrup

 Normal termination of Gaussian 16 at Wed Apr  9 03:20:19 2025.
