 Gaussian 16, Revision C.01,

 ----------------------------------------------------------------------
 #t hf aug-cc-pvdz symm=none int=(grid=ultrafine) guess=(read,tcheck) s
 table=(opt,rrhf)
 ----------------------------------------------------------------------
 -----
 title
 -----
 Symbolic Z-matrix:
 Charge =  0 Multiplicity = 1

 SCF Done:  E(RHF) =  -286.621710919     A.U. after   15 cycles
 Normal termination of Gaussian 16 at Wed Apr  9 19:20:13 2025.
 Gaussian 16:  ES64L-G16RevC.01  3-Jul-2019

 ----------------------------------------------------------------------
 #t hf aug-cc-pvdz iop(5/13=1,5/36=2,99/5=2) pseudo=read geom=check gue
 ss=(read,tcheck) scf=(maxcycle=1)
 ----------------------------------------------------------------------
 -----
 title
 -----
 Structure from the checkpoint file:  "Grambow2020_wb97xd3_009356_reverse_mol1.chk"
 Charge =  0 Multiplicity = 1

                         Standard orientation:
 ---------------------------------------------------------------------
 Center     Atomic      Atomic             Coordinates (Angstroms)
 Number     Number       Type             X           Y           Z
 ---------------------------------------------------------------------
      1          6           0       -2.124596    0.209389   -0.329670
      2          7           0       -0.900155   -0.254154    0.310142
      3          6           0        0.141783   -1.055554   -0.376259
      4          6           0        1.357934   -0.288765   -0.628103
      5          6           0        0.995382    1.156693   -0.391825
      6          6           0        0.173233    0.642065    0.790037
      7          6           0        1.062074   -0.675967    0.877231
      8          1           0       -1.892099    0.848693   -1.186214
      9          1           0       -2.715768    0.771131    0.393535
     10          1           0       -2.701575   -0.649738   -0.670681
     11          1           0       -0.069252   -2.070466   -0.679315
     12          1           0        2.146972   -0.677391   -1.260736
     13          1           0        0.506295    1.722310   -1.192727
     14          1           0        1.848954    1.718577   -0.014461
     15          1           0       -0.101833    1.276433    1.628640
     16          1           0       -0.355470   -1.087634    1.162495
 ---------------------------------------------------------------------

 SCF Done:  E(RHF) =  -286.928223945     A.U. after    2 cycles

 The electronic state is 1-A.
 Alpha  occ. eigenvalues --  -15.56373 -11.28056 -11.27789 -11.26492 -11.25535
 Alpha  occ. eigenvalues --  -11.23773 -11.19673  -1.33665  -1.13718  -1.00527
 Alpha  occ. eigenvalues --   -0.97389  -0.85791  -0.78619  -0.74575  -0.73451
 Alpha  occ. eigenvalues --   -0.67984  -0.64576  -0.61186  -0.59215  -0.54397
 Alpha  occ. eigenvalues --   -0.53139  -0.51034  -0.47509  -0.42795  -0.35980
 Alpha  occ. eigenvalues --   -0.30701
 Alpha virt. eigenvalues --    0.02946   0.03787   0.03920   0.04486   0.05188
 Alpha virt. eigenvalues --    0.05514   0.06330   0.07204   0.07961   0.10077
 Alpha virt. eigenvalues --    0.11222   0.12542   0.13532   0.13734   0.14154

 Mulliken charges:
               1
     1  C   -0.256938
     2  N    0.561744
     3  C   -0.480603
     4  C    0.261575
     5  C    0.025541
     6  C   -0.371140
     7  C   -0.408964
     8  H    0.216515
     9  H    0.113302
    10  H    0.104388
    11  H   -0.289811
    12  H   -0.186053
    13  H   -0.026794
    14  H    0.116417
    15  H   -0.246437
    16  H    0.867258
 Sum of Mulliken charges =  -0.00000

 Dipole moment (field-independent basis, Debye):
    X=             -3.1411    Y=              1.2917    Z=             -2.4265  Tot=              4.1741

 Test job not archived.
 1\1\GINC-SE222\SP\RHF\Aug-CC-pVDZ\C6H9N1\OHZDE\09-Apr-2025\0\\#t hf au
 g-cc-pvdz iop(5/13=1,5/36=2,99/5=2) pseudo=read geom=check guess=(read
 ,tcheck) scf=(maxcycle=1)\\title\\0,1\C,0,1.97220625,0.20985995,-0.139
 84858\N,0,0.70910268,-0.48952828,-0.33711416\C,0,-0.17020886,-0.940690
 6,0.7684571\C,0,-1.39316618,-0.1498492,0.8651963\C,0,-1.17076046,1.068
 26882,0.0030213\C,0,-0.4809224,0.11478576,-0.97297215\C,0,-1.27627615,
 -1.12734114,-0.37348674\H,0,1.81216609,1.14619599,0.40245499\H,0,2.418
 32555,0.42379659,-1.11107125\H,0,2.65024132,-0.42322725,0.43178049\H,0

 Normal termination of Gaussian 16 at Wed Apr  9 19:20:19 2025.
