 Gaussian 16, Revision C.01,

 ----------------------------------------------------------------------
 #t hf aug-cc-pvdz symm=none int=(grid=ultrafine) guess=(read,tcheck) s
 table=(opt,rrhf)
 ----------------------------------------------------------------------
 -----
 title
 -----
 Symbolic Z-matrix:
 Charge =  0 Multiplicity = 1

 SCF Done:  E(RHF) =  -267.602472492     A.U. after   15 cycles
 Normal termination of Gaussian 16 at Wed Apr  9 15:50:41 2025.
 Gaussian 16:  ES64L-G16RevC.01  3-Jul-2019

 ----------------------------------------------------------------------
 #t hf aug-cc-pvdz iop(5/13=1,5/36=2,99/5=2) pseudo=read geom=check gue
 ss=(read,tcheck) scf=(maxcycle=1)
 ----------------------------------------------------------------------
 -----
 title
 -----
 Structure from the checkpoint file:  "Grambow2020_b97d3_006842_reverse_mol2.chk"
 Charge =  0 Multiplicity = 1

                         Standard orientation:
 ---------------------------------------------------------------------
 Center     Atomic      Atomic             Coordinates (Angstroms)
 Number     Number       Type             X           Y           Z
 ---------------------------------------------------------------------
      1          6           0       -2.117007   -0.008234   -0.000226
      2          6           0       -0.629674    0.127810   -0.002784
      3          6           0        0.121402    1.341821   -0.000521
      4          6           0        1.399529    0.804158   -0.000721
      5          6           0        1.428089   -0.698228    0.000123
      6          8           0        0.025272   -1.055564   -0.000069
      7          1           0       -2.454558   -1.050172   -0.049405
      8          1           0       -2.517964    0.467393    0.907636
      9          1           0       -2.532180    0.562462   -0.843433
     10          1           0        2.336411    1.367855    0.005224
     11          1           0        1.875065   -1.149589    0.897707
     12          1           0        1.877013   -1.157404   -0.892405
 ---------------------------------------------------------------------

 SCF Done:  E(RHF) =  -267.875969314     A.U. after    2 cycles

 The electronic state is 1-A.
 Alpha  occ. eigenvalues --  -20.62182 -11.37010 -11.31957 -11.27262 -11.25919
 Alpha  occ. eigenvalues --  -11.18030  -1.54484  -1.08492  -1.06647  -0.95098
 Alpha  occ. eigenvalues --   -0.80765  -0.76671  -0.69720  -0.69214  -0.62446
 Alpha  occ. eigenvalues --   -0.59659  -0.56869  -0.55188  -0.52773  -0.51484
 Alpha  occ. eigenvalues --   -0.36634  -0.32978
 Alpha virt. eigenvalues --    0.03183   0.03602   0.04347   0.04843   0.04985
 Alpha virt. eigenvalues --    0.06121   0.06502   0.08561   0.10375   0.11947
 Alpha virt. eigenvalues --    0.12268   0.13795   0.14484   0.15666   0.15741

 Mulliken charges:
               1
     1  C   -0.474067
     2  C    1.231825
     3  C   -0.927914
     4  C    0.356556
     5  C    0.323315
     6  O   -1.453295
     7  H    0.120192
     8  H    0.297074
     9  H    0.282354
    10  H   -0.037296
    11  H    0.141144
    12  H    0.140113
 Sum of Mulliken charges =  -0.00000

 Dipole moment (field-independent basis, Debye):
    X=              0.5844    Y=             -3.6462    Z=              0.0134  Tot=              3.6928

 Test job not archived.
 1\1\GINC-SE043\SP\RHF\Aug-CC-pVDZ\C5H6O1\OHZDE\09-Apr-2025\0\\#t hf au
 g-cc-pvdz iop(5/13=1,5/36=2,99/5=2) pseudo=read geom=check guess=(read
 ,tcheck) scf=(maxcycle=1)\\title\\0,1\C,0,-1.94403811,-0.42948724,0.18
 676272\C,0,-0.52017672,0.01838717,0.23874049\C,0,-0.04598851,1.3576227
 ,0.37852063\C,0,1.31749682,1.10595507,0.36231078\C,0,1.66652688,-0.348
 62701,0.21965744\O,0,0.37254623,-0.99343673,0.14604566\H,0,-2.05073357
 ,-1.50907852,0.02835345\H,0,-2.44349756,-0.1427026,1.12457625\H,0,-2.4
 6591478,0.12142048,-0.60898049\H,0,2.11217266,1.85201323,0.44847832\H,

 Normal termination of Gaussian 16 at Wed Apr  9 15:50:45 2025.
