 Gaussian 16, Revision C.01,

 ----------------------------------------------------------------------
 #t hf aug-cc-pvdz symm=none int=(grid=ultrafine) guess=(read,tcheck) s
 table=(opt,rrhf)
 ----------------------------------------------------------------------
 -----
 title
 -----
 Symbolic Z-matrix:
 Charge =  0 Multiplicity = 1

 SCF Done:  E(RHF) =  -307.706162983     A.U. after   15 cycles

 1\1\GINC-SE116\Stability\RHF\Aug-CC-pVDZ\C6H10O1\OHZDE\09-Apr-2025\0\\
 #t hf aug-cc-pvdz symm=none int=(grid=ultrafine) guess=(read,tcheck) s
 table=(opt,rrhf)\\title\\0,1\C,0,1.83627915,-0.61046115,-0.04975344\C,
 0,0.73145471,0.28334653,0.47502559\C,0,-0.03121723,1.21236739,-0.51158
 821\C,0,-1.37875847,0.75382432,0.10818334\O,0,-2.23996243,-0.01537473,
 -0.68465529\C,0,-1.56031773,-1.24394797,-0.68429244\C,0,-0.608788,-0.3
 110827,0.91443117\H,0,2.17521787,-1.30986606,0.71730005\H,0,2.69487309
 ,-0.01387516,-0.36395792\H,0,1.50077727,-1.19336428,-0.91021361\H,0,1.

 Normal termination of Gaussian 16 at Wed Apr  9 19:04:08 2025.
 Gaussian 16:  ES64L-G16RevC.01  3-Jul-2019

 ----------------------------------------------------------------------
 #t hf aug-cc-pvdz iop(5/13=1,5/36=2,99/5=2) pseudo=read geom=check gue
 ss=(read,tcheck) scf=(maxcycle=1)
 ----------------------------------------------------------------------
 -----
 title
 -----
 Structure from the checkpoint file:  "Grambow2020_wb97xd3_008509_reverse_mol1.chk"
 Charge =  0 Multiplicity = 1

                         Standard orientation:
 ---------------------------------------------------------------------
 Center     Atomic      Atomic             Coordinates (Angstroms)
 Number     Number       Type             X           Y           Z
 ---------------------------------------------------------------------
      1          6           0        2.213350   -0.571400   -0.291073
      2          6           0        1.175970    0.338154    0.334607
      3          6           0        0.241195    1.174445   -0.584614
      4          6           0       -0.979169    0.738345    0.270239
      5          8           0       -1.928518   -0.105507   -0.320170
      6          6           0       -1.219228   -1.317079   -0.337771
      7          6           0       -0.060914   -0.246994    1.020459
      8          1           0        2.688574   -1.203707    0.461767
      9          1           0        2.993966    0.016085   -0.778231
     10          1           0        1.766843   -1.224483   -1.043963
     11          1           0        1.670097    0.993745    1.059558
     12          1           0        0.430743    2.246379   -0.603873
     13          1           0        0.185434    0.812092   -1.611396
     14          1           0       -1.475177    1.538926    0.820456
     15          1           0       -0.410671   -1.241762   -1.087678
     16          1           0       -0.563814   -1.398456    0.770454
     17          1           0       -0.085082   -0.387585    2.103182
 ---------------------------------------------------------------------

 SCF Done:  E(RHF) =  -308.030260162     A.U. after    2 cycles

 The electronic state is 1-A.
 Alpha  occ. eigenvalues --  -20.55138 -11.30477 -11.29741 -11.28034 -11.25962
 Alpha  occ. eigenvalues --  -11.24139 -11.23938  -1.48924  -1.15559  -1.00074
 Alpha  occ. eigenvalues --   -0.96300  -0.89164  -0.84606  -0.73816  -0.69871
 Alpha  occ. eigenvalues --   -0.67466  -0.65220  -0.62176  -0.59348  -0.57091
 Alpha  occ. eigenvalues --   -0.55398  -0.53037  -0.49967  -0.48366  -0.45332
 Alpha  occ. eigenvalues --   -0.42717  -0.32441
 Alpha virt. eigenvalues --    0.02672   0.03246   0.03370   0.04564   0.05764
 Alpha virt. eigenvalues --    0.06121   0.06372   0.07144   0.07690   0.09690
 Alpha virt. eigenvalues --    0.11050   0.11248   0.12792   0.13413   0.13632

 Mulliken charges:
               1
     1  C   -0.339659
     2  C   -0.208370
     3  C   -0.137853
     4  C    1.572627
     5  O   -1.370632
     6  C   -0.151281
     7  C   -0.688130
     8  H    0.197443
     9  H    0.203563
    10  H    0.163872
    11  H    0.061634
    12  H   -0.005918
    13  H    0.081199
    14  H    0.020488
    15  H    0.189240
    16  H    0.528052
    17  H   -0.116276
 Sum of Mulliken charges =  -0.00000

 Dipole moment (field-independent basis, Debye):
    X=              3.4150    Y=              2.1949    Z=              1.2325  Tot=              4.2425

 Test job not archived.
 1\1\GINC-SE116\SP\RHF\Aug-CC-pVDZ\C6H10O1\OHZDE\09-Apr-2025\0\\#t hf a
 ug-cc-pvdz iop(5/13=1,5/36=2,99/5=2) pseudo=read geom=check guess=(rea
 d,tcheck) scf=(maxcycle=1)\\title\\0,1\C,0,1.83627915,-0.61046115,-0.0
 4975344\C,0,0.73145471,0.28334653,0.47502559\C,0,-0.03121723,1.2123673
 9,-0.51158821\C,0,-1.37875847,0.75382432,0.10818334\O,0,-2.23996243,-0
 .01537473,-0.68465529\C,0,-1.56031773,-1.24394797,-0.68429244\C,0,-0.6
 08788,-0.3110827,0.91443117\H,0,2.17521787,-1.30986606,0.71730005\H,0,
 2.69487309,-0.01387516,-0.36395792\H,0,1.50077727,-1.19336428,-0.91021

 Normal termination of Gaussian 16 at Wed Apr  9 19:04:14 2025.
