 Gaussian 16, Revision C.01,

 ----------------------------------------------------------------------
 #t hf aug-cc-pvdz symm=none int=(grid=ultrafine) guess=(read,tcheck) s
 table=(opt,rrhf)
 ----------------------------------------------------------------------
 -----
 title
 -----
 Symbolic Z-matrix:
 Charge =  0 Multiplicity = 1

 SCF Done:  E(RHF) =  -343.739886634     A.U. after   14 cycles
 Normal termination of Gaussian 16 at Wed Apr  9 17:55:42 2025.
 Gaussian 16:  ES64L-G16RevC.01  3-Jul-2019

 ----------------------------------------------------------------------
 #t hf aug-cc-pvdz iop(5/13=1,5/36=2,99/5=2) pseudo=read geom=check gue
 ss=(read,tcheck) scf=(maxcycle=1)
 ----------------------------------------------------------------------
 -----
 title
 -----
 Structure from the checkpoint file:  "Grambow2020_wb97xd3_006879_forward_mol2.chk"
 Charge =  0 Multiplicity = 1

                         Standard orientation:
 ---------------------------------------------------------------------
 Center     Atomic      Atomic             Coordinates (Angstroms)
 Number     Number       Type             X           Y           Z
 ---------------------------------------------------------------------
      1          6           0        0.607797    1.642360   -0.035674
      2          6           0        0.579884    0.144912   -0.139844
      3          6           0        1.066060   -0.735355    0.958634
      4          6           0        1.827754   -0.642465   -0.340224
      5          8           0       -0.516938   -0.351008   -0.905571
      6          6           0       -1.725187   -0.330575   -0.337536
      7          8           0       -1.992033    0.064063    0.758146
      8          1           0       -0.254841    2.009394    0.520141
      9          1           0        0.609659    2.091820   -1.030577
     10          1           0        1.512524    1.961149    0.482869
     11          1           0        1.470789   -0.258445    1.841253
     12          1           0        0.513924   -1.645435    1.148395
     13          1           0        2.765470   -0.102770   -0.358250
     14          1           0        1.772891   -1.490220   -1.009579
     15          1           0       -2.456494   -0.743188   -1.046986
 ---------------------------------------------------------------------

 SCF Done:  E(RHF) =  -344.091907937     A.U. after    2 cycles

 The electronic state is 1-A.
 Alpha  occ. eigenvalues --  -20.59788 -20.54255 -11.39229 -11.30670 -11.24090
 Alpha  occ. eigenvalues --  -11.24056 -11.23383  -1.55436  -1.46445  -1.16553
 Alpha  occ. eigenvalues --   -0.98847  -0.90290  -0.84497  -0.75835  -0.72806
 Alpha  occ. eigenvalues --   -0.69695  -0.68033  -0.63026  -0.61041  -0.58419
 Alpha  occ. eigenvalues --   -0.56160  -0.54002  -0.52631  -0.48305  -0.46025
 Alpha  occ. eigenvalues --   -0.42832  -0.42149
 Alpha virt. eigenvalues --    0.03604   0.03828   0.04105   0.04526   0.05834
 Alpha virt. eigenvalues --    0.06696   0.06994   0.07718   0.10025   0.11714
 Alpha virt. eigenvalues --    0.11771   0.13348   0.13928   0.14615   0.15190

 Mulliken charges:
               1
     1  C   -0.751863
     2  C    1.261236
     3  C    0.139906
     4  C    0.368791
     5  O   -1.444904
     6  C    1.172937
     7  O   -0.970609
     8  H    0.217908
     9  H    0.224373
    10  H    0.128607
    11  H   -0.105191
    12  H   -0.096552
    13  H   -0.123603
    14  H   -0.092362
    15  H    0.071325
 Sum of Mulliken charges =  -0.00000

 Dipole moment (field-independent basis, Debye):
    X=              1.4938    Y=             -0.2572    Z=             -1.1819  Tot=              1.9221

 Test job not archived.
 1\1\GINC-SE029\SP\RHF\Aug-CC-pVDZ\C5H8O2\OHZDE\09-Apr-2025\0\\#t hf au
 g-cc-pvdz iop(5/13=1,5/36=2,99/5=2) pseudo=read geom=check guess=(read
 ,tcheck) scf=(maxcycle=1)\\title\\0,1\C,0,-0.29259435,1.5053124,-0.241
 09103\C,0,-0.13813813,0.08134769,0.20885194\C,0,-0.86201073,-1.0411253
 4,-0.4499003\C,0,-1.22096944,-0.61909323,0.95326595\O,0,1.16288297,-0.
 21752905,0.71214975\C,0,2.15185813,-0.35121308,-0.17498251\O,0,2.06490
 528,-0.24576035,-1.36190421\H,0,0.34713644,1.71349846,-1.09852432\H,0,
 -0.0366842,2.18937462,0.57033886\H,0,-1.32724387,1.69273091,-0.5299160

 Normal termination of Gaussian 16 at Wed Apr  9 17:55:47 2025.
