 Gaussian 16, Revision C.01,

 ----------------------------------------------------------------------
 #t hf aug-cc-pvdz symm=none int=(grid=ultrafine) guess=(read,tcheck) s
 table=(opt,rrhf)
 ----------------------------------------------------------------------
 -----
 title
 -----
 Symbolic Z-matrix:
 Charge =  0 Multiplicity = 1

 SCF Done:  E(RHF) =  -394.351596945     A.U. after   16 cycles
 Normal termination of Gaussian 16 at Wed Apr  9 18:13:22 2025.
 Gaussian 16:  ES64L-G16RevC.01  3-Jul-2019

 ----------------------------------------------------------------------
 #t hf aug-cc-pvdz iop(5/13=1,5/36=2,99/5=2) pseudo=read geom=check gue
 ss=(read,tcheck) scf=(maxcycle=1)
 ----------------------------------------------------------------------
 -----
 title
 -----
 Structure from the checkpoint file:  "Grambow2020_wb97xd3_007201_reverse_mol1.chk"
 Charge =  0 Multiplicity = 1

                         Standard orientation:
 ---------------------------------------------------------------------
 Center     Atomic      Atomic             Coordinates (Angstroms)
 Number     Number       Type             X           Y           Z
 ---------------------------------------------------------------------
      1          7           0       -0.452173    1.171796    0.061270
      2          6           0        0.393288    0.199236    0.014898
      3          8           0       -0.177080   -0.931231    0.113922
      4          6           0       -1.710514   -0.116296    0.345207
      5          8           0       -2.545205   -0.285358   -0.456055
      6          6           0        1.896029    0.355076   -0.113010
      7          8           0        2.648867   -0.566151   -0.048142
      8          1           0       -0.212841    2.152001    0.044128
      9          1           0       -1.745824   -0.117500    1.435445
     10          1           0        2.238393    1.396757   -0.268833
 ---------------------------------------------------------------------

 SCF Done:  E(RHF) =  -394.733830473     A.U. after    2 cycles

 The electronic state is 1-A.
 Alpha  occ. eigenvalues --  -20.60408 -20.58237 -20.55937 -15.54704 -11.44251
 Alpha  occ. eigenvalues --  -11.39999 -11.39040  -1.55039  -1.53303  -1.50469
 Alpha  occ. eigenvalues --   -1.25149  -0.99017  -0.88055  -0.85459  -0.78304
 Alpha  occ. eigenvalues --   -0.72404  -0.70506  -0.68733  -0.64570  -0.63509
 Alpha  occ. eigenvalues --   -0.60216  -0.56159  -0.49195  -0.47729  -0.46612
 Alpha  occ. eigenvalues --   -0.43208
 Alpha virt. eigenvalues --    0.02079   0.03206   0.03854   0.04702   0.08195
 Alpha virt. eigenvalues --    0.09156   0.09290   0.10065   0.11259   0.13065
 Alpha virt. eigenvalues --    0.13479   0.14217   0.14766   0.15048   0.16329

 Mulliken charges:
               1
     1  N    0.573048
     2  C    0.115502
     3  O   -1.354655
     4  C    1.220516
     5  O   -1.084067
     6  C    1.224483
     7  O   -1.028906
     8  H    0.005365
     9  H    0.227733
    10  H    0.100981
 Sum of Mulliken charges =  -0.00000

 Dipole moment (field-independent basis, Debye):
    X=              1.4318    Y=              3.9951    Z=              1.8246  Tot=              4.6195

 Test job not archived.
 1\1\GINC-SE135\SP\RHF\Aug-CC-pVDZ\C3H3N1O3\OHZDE\09-Apr-2025\0\\#t hf
 aug-cc-pvdz iop(5/13=1,5/36=2,99/5=2) pseudo=read geom=check guess=(re
 ad,tcheck) scf=(maxcycle=1)\\title\\0,1\N,0,-0.01355943,0.85767885,-0.
 39785091\C,0,-0.47421374,-0.26419796,0.04034727\O,0,0.45165678,-1.0288
 7295,0.45401041\C,0,1.63491213,0.15447826,-0.06427414\O,0,2.31029913,0
 .64610038,0.75393896\C,0,-1.93689479,-0.66343257,0.0476382\O,0,-2.3084
 0459,-1.74985907,0.36589835\H,0,-0.5679848,1.59240973,-0.81156385\H,0,
 1.87393832,-0.25650145,-1.04602148\H,0,-2.63328202,0.13690679,-0.27031

 Normal termination of Gaussian 16 at Wed Apr  9 18:13:25 2025.
