 Gaussian 16, Revision C.01,

 ----------------------------------------------------------------------
 #t hf aug-cc-pvdz symm=none int=(grid=ultrafine) guess=(read,tcheck) s
 table=(opt,rrhf)
 ----------------------------------------------------------------------
 -----
 title
 -----
 Symbolic Z-matrix:
 Charge =  0 Multiplicity = 1

 SCF Done:  E(RHF) =  -299.410355000     A.U. after   18 cycles
 Normal termination of Gaussian 16 at Wed Apr  9 16:17:40 2025.
 Gaussian 16:  ES64L-G16RevC.01  3-Jul-2019

 ----------------------------------------------------------------------
 #t hf aug-cc-pvdz iop(5/13=1,5/36=2,99/5=2) pseudo=read geom=check gue
 ss=(read,tcheck) scf=(maxcycle=1)
 ----------------------------------------------------------------------
 -----
 title
 -----
 Structure from the checkpoint file:  "Grambow2020_b97d3_007186_reverse_mol1.chk"
 Charge =  0 Multiplicity = 1

                         Standard orientation:
 ---------------------------------------------------------------------
 Center     Atomic      Atomic             Coordinates (Angstroms)
 Number     Number       Type             X           Y           Z
 ---------------------------------------------------------------------
      1          6           0        1.740117   -0.003691    0.373837
      2          6           0        0.645374   -0.001612   -0.524686
      3          7           0       -0.093608   -1.175425   -0.328860
      4          8           0       -1.200658   -0.738365    0.221677
      5          6           0       -0.990335    0.755308    0.349403
      6          7           0       -0.124928    1.135277   -0.562706
      7          1           0        2.311296   -0.914435    0.557356
      8          1           0        2.201420    0.949213    0.626977
      9          1           0        0.159408    0.406979    1.426585
     10          1           0       -1.908041    1.246164    0.665304
 ---------------------------------------------------------------------

 SCF Done:  E(RHF) =  -299.707673695     A.U. after    2 cycles

 The electronic state is 1-A.
 Alpha  occ. eigenvalues --  -20.69346 -15.66669 -15.49325 -11.38182 -11.33764
 Alpha  occ. eigenvalues --  -11.32356  -1.63027  -1.28531  -1.17315  -1.00569
 Alpha  occ. eigenvalues --   -0.90489  -0.84532  -0.75051  -0.73324  -0.68315
 Alpha  occ. eigenvalues --   -0.63549  -0.62513  -0.56581  -0.54604  -0.49354
 Alpha  occ. eigenvalues --   -0.41315  -0.35913
 Alpha virt. eigenvalues --   -0.01375   0.03779   0.04346   0.05051   0.06190
 Alpha virt. eigenvalues --    0.07430   0.08386   0.09555   0.10261   0.11359
 Alpha virt. eigenvalues --    0.12508   0.13471   0.15083   0.15999   0.17211

 Mulliken charges:
               1
     1  C    0.267286
     2  C   -1.720963
     3  N    1.338499
     4  O   -1.194986
     5  C    0.223310
     6  N    0.635884
     7  H    0.013608
     8  H    0.044756
     9  H    0.362666
    10  H    0.029940
 Sum of Mulliken charges =  -0.00000

 Dipole moment (field-independent basis, Debye):
    X=              0.7389    Y=             -0.0417    Z=              1.7960  Tot=              1.9425

 Test job not archived.
 1\1\GINC-SE041\SP\RHF\Aug-CC-pVDZ\C3H4N2O1\OHZDE\09-Apr-2025\0\\#t hf
 aug-cc-pvdz iop(5/13=1,5/36=2,99/5=2) pseudo=read geom=check guess=(re
 ad,tcheck) scf=(maxcycle=1)\\title\\0,1\C,0,-1.46323299,-0.17555768,-0
 .0415398\C,0,-0.22894907,-0.86345248,0.05413282\N,0,0.39329776,-0.8381
 8387,-1.20063817\O,0,1.4096814,-0.03191646,-1.00941399\C,0,1.26865727,
 0.41238999,0.43083342\N,0,0.60171511,-0.50805223,1.08903095\H,0,-2.110
 57443,-0.3063226,-0.90942774\H,0,-1.90490184,0.22078281,0.87101119\H,0
 ,-0.07162546,1.18052323,-0.03518904\H,0,2.14357625,0.97668329,0.745486

 Normal termination of Gaussian 16 at Wed Apr  9 16:17:43 2025.
