 Gaussian 16, Revision C.01,

 ----------------------------------------------------------------------
 #t hf aug-cc-pvdz symm=none int=(grid=ultrafine) guess=(read,tcheck) s
 table=(opt,rrhf)
 ----------------------------------------------------------------------
 -----
 title
 -----
 Symbolic Z-matrix:
 Charge =  0 Multiplicity = 1

 SCF Done:  E(RHF) =  -307.699698538     A.U. after   16 cycles

 1\1\GINC-SE113\Stability\RHF\Aug-CC-pVDZ\C6H10O1\OHZDE\09-Apr-2025\0\\
 #t hf aug-cc-pvdz symm=none int=(grid=ultrafine) guess=(read,tcheck) s
 table=(opt,rrhf)\\title\\0,1\O,0,1.83257219,-0.92227244,1.0622181\C,0,
 1.39194779,-0.63223048,-0.10942689\C,0,-0.1204838,-1.24139868,-0.47445
 249\C,0,-1.2908244,-0.64633925,0.27669818\C,0,-1.5303705,0.79160043,-0
 .16006764\C,0,-0.1786514,1.48173738,-0.20412798\C,0,0.87132742,0.72548
 113,-0.25732412\H,0,2.43754838,0.67427547,1.17847431\H,0,1.98571343,-0
 .94043499,-0.99109886\H,0,0.04709651,-2.28322215,-0.20877455\H,0,-0.24

 Normal termination of Gaussian 16 at Wed Apr  9 18:59:03 2025.
 Gaussian 16:  ES64L-G16RevC.01  3-Jul-2019

 ----------------------------------------------------------------------
 #t hf aug-cc-pvdz iop(5/13=1,5/36=2,99/5=2) pseudo=read geom=check gue
 ss=(read,tcheck) scf=(maxcycle=1)
 ----------------------------------------------------------------------
 -----
 title
 -----
 Structure from the checkpoint file:  "Grambow2020_wb97xd3_008415_forward_mol1.chk"
 Charge =  0 Multiplicity = 1

                         Standard orientation:
 ---------------------------------------------------------------------
 Center     Atomic      Atomic             Coordinates (Angstroms)
 Number     Number       Type             X           Y           Z
 ---------------------------------------------------------------------
      1          8           0       -2.021238   -0.189732   -0.646428
      2          6           0       -1.296110   -0.093813    0.409988
      3          6           0       -0.048890   -1.199937    0.522741
      4          6           0        1.092235   -1.037745   -0.456824
      5          6           0        1.892806    0.217355   -0.141188
      6          6           0        0.898041    1.335553    0.114646
      7          6           0       -0.319177    0.993232    0.394657
      8          1           0       -2.045493    1.519435   -0.727898
      9          1           0       -1.783411   -0.191289    1.398890
     10          1           0       -0.613915   -2.112319    0.342829
     11          1           0        0.297033   -1.193844    1.559031
     12          1           0        0.681998   -0.974770   -1.467195
     13          1           0        1.732635   -1.922325   -0.415928
     14          1           0        2.526104    0.079292    0.740763
     15          1           0        2.549153    0.503237   -0.965024
     16          1           0        1.184513    2.376209    0.031034
     17          1           0       -1.672146    2.146346   -0.389191
 ---------------------------------------------------------------------

 SCF Done:  E(RHF) =  -308.023991724     A.U. after    2 cycles

 The electronic state is 1-A.
 Alpha  occ. eigenvalues --  -20.45019 -11.34157 -11.30944 -11.29048 -11.27873
 Alpha  occ. eigenvalues --  -11.26915 -11.25240  -1.37803  -1.16939  -1.04519
 Alpha  occ. eigenvalues --   -1.01609  -0.88258  -0.84162  -0.73262  -0.68828
 Alpha  occ. eigenvalues --   -0.67862  -0.64898  -0.61852  -0.58709  -0.56811
 Alpha  occ. eigenvalues --   -0.55107  -0.52546  -0.51222  -0.47418  -0.42212
 Alpha  occ. eigenvalues --   -0.36679  -0.34917
 Alpha virt. eigenvalues --    0.02036   0.03046   0.03242   0.03829   0.04960
 Alpha virt. eigenvalues --    0.05418   0.06546   0.06605   0.07147   0.08296
 Alpha virt. eigenvalues --    0.10051   0.11540   0.12293   0.12778   0.13458

 Mulliken charges:
               1
     1  O   -1.504385
     2  C    0.785415
     3  C   -0.423180
     4  C   -0.094119
     5  C   -0.560274
     6  C    0.562059
     7  C   -0.020923
     8  H    0.164488
     9  H    0.234432
    10  H    0.164969
    11  H    0.134452
    12  H    0.138856
    13  H    0.190732
    14  H    0.217420
    15  H    0.168089
    16  H   -0.103653
    17  H   -0.054377
 Sum of Mulliken charges =   0.00000

 Dipole moment (field-independent basis, Debye):
    X=              5.6473    Y=              0.5292    Z=              2.1068  Tot=              6.0507

 Test job not archived.
 1\1\GINC-SE113\SP\RHF\Aug-CC-pVDZ\C6H10O1\OHZDE\09-Apr-2025\0\\#t hf a
 ug-cc-pvdz iop(5/13=1,5/36=2,99/5=2) pseudo=read geom=check guess=(rea
 d,tcheck) scf=(maxcycle=1)\\title\\0,1\O,0,1.83257219,-0.92227244,1.06
 22181\C,0,1.39194779,-0.63223048,-0.10942689\C,0,-0.1204838,-1.2413986
 8,-0.47445249\C,0,-1.2908244,-0.64633925,0.27669818\C,0,-1.5303705,0.7
 9160043,-0.16006764\C,0,-0.1786514,1.48173738,-0.20412798\C,0,0.871327
 42,0.72548113,-0.25732412\H,0,2.43754838,0.67427547,1.17847431\H,0,1.9
 8571343,-0.94043499,-0.99109886\H,0,0.04709651,-2.28322215,-0.20877455

 Normal termination of Gaussian 16 at Wed Apr  9 18:59:09 2025.
