 Gaussian 16, Revision C.01,

 ----------------------------------------------------------------------
 #t hf aug-cc-pvdz symm=none int=(grid=ultrafine) guess=(read,tcheck) s
 table=(opt,rrhf)
 ----------------------------------------------------------------------
 -----
 title
 -----
 Symbolic Z-matrix:
 Charge =  0 Multiplicity = 1

 SCF Done:  E(RHF) =  -299.676501852     A.U. after   14 cycles
 Normal termination of Gaussian 16 at Wed Apr  9 16:46:48 2025.
 Gaussian 16:  ES64L-G16RevC.01  3-Jul-2019

 ----------------------------------------------------------------------
 #t hf aug-cc-pvdz iop(5/13=1,5/36=2,99/5=2) pseudo=read geom=check gue
 ss=(read,tcheck) scf=(maxcycle=1)
 ----------------------------------------------------------------------
 -----
 title
 -----
 Structure from the checkpoint file:  "Grambow2020_wb97xd3_006149_reverse_mol2.chk"
 Charge =  0 Multiplicity = 1

                         Standard orientation:
 ---------------------------------------------------------------------
 Center     Atomic      Atomic             Coordinates (Angstroms)
 Number     Number       Type             X           Y           Z
 ---------------------------------------------------------------------
      1          7           0        1.875432   -0.611395   -0.034557
      2          6           0        0.746131    0.143061   -0.025255
      3          6           0       -0.531030   -0.629825   -0.167551
      4          6           0       -1.742713    0.100220   -0.471137
      5          7           0       -1.681241   -0.196158    0.730974
      6          8           0        0.756358    1.351223    0.063898
      7          1           0        2.754446   -0.148423    0.113020
      8          1           0        1.840089   -1.611280    0.026755
      9          1           0       -0.462757   -1.695939   -0.367281
     10          1           0       -2.376311    0.617991   -1.174935
 ---------------------------------------------------------------------

 SCF Done:  E(RHF) =  -299.979346918     A.U. after    2 cycles

 The electronic state is 1-A.
 Alpha  occ. eigenvalues --  -20.51161 -15.54978 -15.53476 -11.36278 -11.31829
 Alpha  occ. eigenvalues --  -11.29846  -1.46627  -1.34268  -1.23241  -0.96679
 Alpha  occ. eigenvalues --   -0.83259  -0.82605  -0.77097  -0.72197  -0.68730
 Alpha  occ. eigenvalues --   -0.62258  -0.61041  -0.58673  -0.49123  -0.45539
 Alpha  occ. eigenvalues --   -0.43430  -0.42725
 Alpha virt. eigenvalues --    0.02566   0.03778   0.04574   0.06215   0.08249
 Alpha virt. eigenvalues --    0.08539   0.10916   0.11288   0.12048   0.12761
 Alpha virt. eigenvalues --    0.13472   0.13822   0.14723   0.15569   0.16211

 Mulliken charges:
               1
     1  N    0.611085
     2  C    0.215549
     3  C    0.162955
     4  C   -0.077025
     5  N    0.524594
     6  O   -1.282928
     7  H    0.087298
     8  H    0.025686
     9  H   -0.205628
    10  H   -0.061587
 Sum of Mulliken charges =  -0.00000

 Dipole moment (field-independent basis, Debye):
    X=              0.7258    Y=             -3.2574    Z=             -2.6240  Tot=              4.2453

 Test job not archived.
 1\1\GINC-SE174\SP\RHF\Aug-CC-pVDZ\C3H4N2O1\OHZDE\09-Apr-2025\0\\#t hf
 aug-cc-pvdz iop(5/13=1,5/36=2,99/5=2) pseudo=read geom=check guess=(re
 ad,tcheck) scf=(maxcycle=1)\\title\\0,1\N,0,1.76738202,-0.11785562,-0.
 24499404\C,0,0.57675253,-0.29320274,0.38450105\C,0,-0.61662469,0.21433
 041,-0.36849531\C,0,-1.86942897,0.34669521,0.34302888\N,0,-1.84949551,
 -0.67907968,-0.35272907\O,0,0.47451199,-0.79569249,1.48211684\H,0,2.59
 207291,-0.48967067,0.1913837\H,0,1.817676,0.174028,-1.20262348\H,0,-0.
 44273374,0.76438362,-1.28955757\H,0,-2.50599555,0.87810396,1.03386301\

 Normal termination of Gaussian 16 at Wed Apr  9 16:46:51 2025.
