 Gaussian 16, Revision C.01,

 ----------------------------------------------------------------------
 #t hf aug-cc-pvdz symm=none int=(grid=ultrafine) guess=(read,tcheck) s
 table=(opt,rrhf)
 ----------------------------------------------------------------------
 -----
 title
 -----
 Symbolic Z-matrix:
 Charge =  0 Multiplicity = 1

 SCF Done:  E(RHF) =  -343.474025111     A.U. after   16 cycles
 Normal termination of Gaussian 16 at Wed Apr  9 18:32:33 2025.
 Gaussian 16:  ES64L-G16RevC.01  3-Jul-2019

 ----------------------------------------------------------------------
 #t hf aug-cc-pvdz iop(5/13=1,5/36=2,99/5=2) pseudo=read geom=check gue
 ss=(read,tcheck) scf=(maxcycle=1)
 ----------------------------------------------------------------------
 -----
 title
 -----
 Structure from the checkpoint file:  "Grambow2020_wb97xd3_007687_reverse_mol1.chk"
 Charge =  0 Multiplicity = 1

                         Standard orientation:
 ---------------------------------------------------------------------
 Center     Atomic      Atomic             Coordinates (Angstroms)
 Number     Number       Type             X           Y           Z
 ---------------------------------------------------------------------
      1          6           0        0.339022    1.855225   -0.258493
      2          6           0        0.019841    0.763759    0.694782
      3          6           0       -1.352162    0.394540    0.166315
      4          8           0       -1.151370   -0.619811   -0.849997
      5          6           0       -0.528780   -1.289524    0.142192
      6          6           0        0.740739   -0.669673    0.549463
      7          8           0        1.772959   -0.682295   -0.392467
      8          1           0        0.384174    1.554021   -1.304803
      9          1           0        1.044068    2.646480   -0.007033
     10          1           0       -1.267406    1.574913   -0.379804
     11          1           0       -0.003047    1.069884    1.737337
     12          1           0       -2.202686    0.211844    0.826014
     13          1           0       -1.085509   -2.047087    0.687063
     14          1           0        1.111103   -1.070967    1.492862
     15          1           0        1.734629    0.151798   -0.877484
 ---------------------------------------------------------------------

 SCF Done:  E(RHF) =  -343.826102989     A.U. after    2 cycles

 The electronic state is 1-A.
 Alpha  occ. eigenvalues --  -20.61359 -20.55603 -11.36966 -11.31539 -11.30490
 Alpha  occ. eigenvalues --  -11.26469 -11.22717  -1.55271  -1.46427  -1.11805
 Alpha  occ. eigenvalues --   -1.02008  -0.90021  -0.84946  -0.79252  -0.76551
 Alpha  occ. eigenvalues --   -0.70381  -0.68342  -0.64253  -0.62808  -0.60886
 Alpha  occ. eigenvalues --   -0.54595  -0.53239  -0.51666  -0.49130  -0.45555
 Alpha  occ. eigenvalues --   -0.42556  -0.26560
 Alpha virt. eigenvalues --    0.01999   0.02597   0.03863   0.04455   0.04797
 Alpha virt. eigenvalues --    0.05963   0.06891   0.07058   0.08612   0.09986
 Alpha virt. eigenvalues --    0.11955   0.13077   0.13258   0.13637   0.13728

 Mulliken charges:
               1
     1  C   -0.341922
     2  C   -0.371038
     3  C    0.134698
     4  O   -1.317692
     5  C    0.823197
     6  C    1.536450
     7  O   -1.392925
     8  H    0.046917
     9  H   -0.081879
    10  H    0.576101
    11  H   -0.008681
    12  H    0.022504
    13  H    0.005265
    14  H    0.061674
    15  H    0.307329
 Sum of Mulliken charges =   0.00000

 Dipole moment (field-independent basis, Debye):
    X=             -1.2463    Y=             -1.1883    Z=              2.4317  Tot=              2.9796

 Test job not archived.
 1\1\GINC-SE226\SP\RHF\Aug-CC-pVDZ\C5H8O2\OHZDE\09-Apr-2025\0\\#t hf au
 g-cc-pvdz iop(5/13=1,5/36=2,99/5=2) pseudo=read geom=check guess=(read
 ,tcheck) scf=(maxcycle=1)\\title\\0,1\C,0,1.63385938,-0.38411353,0.048
 39429\C,0,0.41329194,0.30898866,0.52977999\C,0,0.12570618,1.14446797,-
 0.70199219\O,0,-0.7271198,0.34616027,-1.56077606\C,0,-1.53593095,0.304
 83202,-0.48156808\C,0,-0.9825899,-0.48976892,0.62486114\O,0,-0.8553511
 8,-1.86392669,0.40493261\H,0,1.49071102,-1.01037493,-0.83185168\H,0,2.
 37952483,-0.77559356,0.73914204\H,0,1.37389585,0.87457765,-0.96255375\

 Normal termination of Gaussian 16 at Wed Apr  9 18:32:38 2025.
