 Gaussian 16, Revision C.01,

 ----------------------------------------------------------------------
 #t hf aug-cc-pvdz symm=none int=(grid=ultrafine) guess=(read,tcheck) s
 table=(opt,rrhf)
 ----------------------------------------------------------------------
 -----
 title
 -----
 Symbolic Z-matrix:
 Charge =  0 Multiplicity = 1

 SCF Done:  E(RHF) =  -324.854656429     A.U. after   16 cycles
 Normal termination of Gaussian 16 at Wed Apr  9 19:14:12 2025.
 Gaussian 16:  ES64L-G16RevC.01  3-Jul-2019

 ----------------------------------------------------------------------
 #t hf aug-cc-pvdz iop(5/13=1,5/36=2,99/5=2) pseudo=read geom=check gue
 ss=(read,tcheck) scf=(maxcycle=1)
 ----------------------------------------------------------------------
 -----
 title
 -----
 Structure from the checkpoint file:  "Grambow2020_wb97xd3_008961_reverse_mol1.chk"
 Charge =  0 Multiplicity = 1

                         Standard orientation:
 ---------------------------------------------------------------------
 Center     Atomic      Atomic             Coordinates (Angstroms)
 Number     Number       Type             X           Y           Z
 ---------------------------------------------------------------------
      1          6           0        2.865147   -0.016354    0.384806
      2          6           0        2.176283   -0.757849   -0.527234
      3          7           0        0.101352    0.018387   -0.726250
      4          6           0       -0.092362    1.156998   -0.130619
      5          6           0       -0.550585   -0.003913    0.604014
      6          6           0       -1.987687   -0.467286    0.648501
      7          8           0       -2.721512   -0.048314   -0.474601
      8          1           0        2.962612   -0.356944    1.409356
      9          1           0        1.857772    1.156698    0.730572
     10          1           0        3.600166    0.709151    0.054601
     11          1           0        2.304086   -0.595576   -1.587581
     12          1           0        1.698280   -1.684603   -0.244315
     13          1           0        1.117558    1.587153    0.669790
     14          1           0       -0.346913    2.141168   -0.498501
     15          1           0        0.066778   -0.328610    1.446118
     16          1           0       -2.000135   -1.562644    0.743259
     17          1           0       -2.484189   -0.055462    1.530351
     18          1           0       -2.178164   -0.222098   -1.249910
 ---------------------------------------------------------------------

 SCF Done:  E(RHF) =  -325.202671439     A.U. after    2 cycles

 The electronic state is 1-A.
 Alpha  occ. eigenvalues --  -20.54106 -15.50982 -11.29820 -11.28285 -11.27494
 Alpha  occ. eigenvalues --  -11.26519 -11.23811  -1.44895  -1.30548  -1.04710
 Alpha  occ. eigenvalues --   -0.97849  -0.84661  -0.82055  -0.80204  -0.71115
 Alpha  occ. eigenvalues --   -0.69845  -0.65657  -0.63730  -0.61855  -0.59961
 Alpha  occ. eigenvalues --   -0.59386  -0.54828  -0.52001  -0.50309  -0.45529
 Alpha  occ. eigenvalues --   -0.41544  -0.40698  -0.35978
 Alpha virt. eigenvalues --    0.03598   0.03678   0.04079   0.04482   0.05368
 Alpha virt. eigenvalues --    0.05707   0.06317   0.06889   0.07687   0.08968
 Alpha virt. eigenvalues --    0.09744   0.10492   0.12187   0.12909   0.13156

 Mulliken charges:
               1
     1  C   -0.317436
     2  C    0.157356
     3  N    0.652902
     4  C   -0.458709
     5  C   -0.149252
     6  C    0.619006
     7  O   -1.196639
     8  H    0.041918
     9  H    0.380350
    10  H    0.015890
    11  H   -0.055203
    12  H   -0.004823
    13  H    0.175393
    14  H   -0.239475
    15  H   -0.283457
    16  H    0.164830
    17  H    0.142910
    18  H    0.354440
 Sum of Mulliken charges =  -0.00000

 Dipole moment (field-independent basis, Debye):
    X=              2.1208    Y=              0.5176    Z=              1.3256  Tot=              2.5540

 Test job not archived.
 1\1\GINC-SE362\SP\RHF\Aug-CC-pVDZ\C5H11N1O1\OHZDE\09-Apr-2025\0\\#t hf
  aug-cc-pvdz iop(5/13=1,5/36=2,99/5=2) pseudo=read geom=check guess=(r
 ead,tcheck) scf=(maxcycle=1)\\title\\0,1\C,0,-2.51209151,-0.08969931,0
 .31563847\C,0,-1.88283122,-0.11931703,-0.89238427\N,0,0.27479002,-0.58
 270592,-0.61412074\C,0,0.57949135,-0.95863967,0.59193361\C,0,0.8712912
 5,0.42753662,0.29070967\C,0,2.24139741,0.94556449,-0.07863128\O,0,3.05
 933108,-0.05154512,-0.63733682\H,0,-2.68573124,0.85291894,0.82212063\H
 ,0,-1.38686363,-0.57442382,1.32028598\H,0,-3.14433827,-0.91567122,0.62

 Normal termination of Gaussian 16 at Wed Apr  9 19:14:17 2025.
