 Gaussian 16, Revision C.01,

 ----------------------------------------------------------------------
 #t hf aug-cc-pvdz symm=none int=(grid=ultrafine) guess=(read,tcheck) s
 table=(opt,rrhf)
 ----------------------------------------------------------------------
 -----
 title
 -----
 Symbolic Z-matrix:
 Charge =  0 Multiplicity = 1

 SCF Done:  E(RHF) =  -360.634271060     A.U. after   16 cycles
 Normal termination of Gaussian 16 at Wed Apr  9 18:31:39 2025.
 Gaussian 16:  ES64L-G16RevC.01  3-Jul-2019

 ----------------------------------------------------------------------
 #t hf aug-cc-pvdz iop(5/13=1,5/36=2,99/5=2) pseudo=read geom=check gue
 ss=(read,tcheck) scf=(maxcycle=1)
 ----------------------------------------------------------------------
 -----
 title
 -----
 Structure from the checkpoint file:  "Grambow2020_wb97xd3_007661_forward_mol1.chk"
 Charge =  0 Multiplicity = 1

                         Standard orientation:
 ---------------------------------------------------------------------
 Center     Atomic      Atomic             Coordinates (Angstroms)
 Number     Number       Type             X           Y           Z
 ---------------------------------------------------------------------
      1          6           0       -0.966609    1.099542   -0.827068
      2          8           0       -0.578192    1.548577    0.416368
      3          6           0        0.493648    0.045237    1.421192
      4          6           0        0.748394   -0.456044    0.163981
      5          7           0       -0.194513   -1.003928   -0.590378
      6          8           0       -1.269245   -1.452791    0.189980
      7          6           0        1.981916   -0.057586   -0.595205
      8          1           0       -1.255861    2.246162   -0.261132
      9          1           0       -0.324487    1.285426   -1.681448
     10          1           0       -1.900726    0.564287   -0.925718
     11          1           0       -0.360013   -0.290623    1.987908
     12          1           0        1.279267    0.562421    1.956615
     13          1           0       -1.734724   -2.030539   -0.417903
     14          1           0        2.879799   -0.374924   -0.063414
     15          1           0        2.030170    1.029050   -0.707775
     16          1           0        1.983567   -0.516947   -1.582668
 ---------------------------------------------------------------------

 SCF Done:  E(RHF) =  -361.001650024     A.U. after    2 cycles

 The electronic state is 1-A.
 Alpha  occ. eigenvalues --  -20.61197 -20.57362 -15.55362 -11.33267 -11.25800
 Alpha  occ. eigenvalues --  -11.23648 -11.22876  -1.49565  -1.48254  -1.17139
 Alpha  occ. eigenvalues --   -0.99490  -0.94796  -0.89447  -0.74863  -0.70692
 Alpha  occ. eigenvalues --   -0.69386  -0.68207  -0.66771  -0.62368  -0.59062
 Alpha  occ. eigenvalues --   -0.57547  -0.55550  -0.54836  -0.52751  -0.47936
 Alpha  occ. eigenvalues --   -0.46337  -0.39266  -0.28938
 Alpha virt. eigenvalues --    0.03453   0.04265   0.04447   0.04658   0.05612
 Alpha virt. eigenvalues --    0.06102   0.06297   0.06809   0.07586   0.08682
 Alpha virt. eigenvalues --    0.11587   0.13534   0.13950   0.14598   0.15187

 Mulliken charges:
               1
     1  C    0.479251
     2  O   -1.044724
     3  C    0.318741
     4  C   -1.179540
     5  N    1.476807
     6  O   -1.143253
     7  C   -0.425778
     8  H    0.550658
     9  H    0.157041
    10  H    0.079825
    11  H   -0.065256
    12  H   -0.099924
    13  H    0.282979
    14  H    0.199799
    15  H    0.227500
    16  H    0.185875
 Sum of Mulliken charges =  -0.00000

 Dipole moment (field-independent basis, Debye):
    X=             -0.6788    Y=              1.6757    Z=             -1.1139  Tot=              2.1235

 Test job not archived.
 1\1\GINC-SE014\SP\RHF\Aug-CC-pVDZ\C4H9N1O2\OHZDE\09-Apr-2025\0\\#t hf
 aug-cc-pvdz iop(5/13=1,5/36=2,99/5=2) pseudo=read geom=check guess=(re
 ad,tcheck) scf=(maxcycle=1)\\title\\0,1\C,0,1.39526914,0.36183758,-0.7
 4463425\O,0,1.58684171,0.03941673,0.58125379\C,0,-0.25319239,0.0523188
 ,1.59744912\C,0,-0.81216502,-0.14931218,0.35501178\N,0,-0.81246544,0.7
 8361276,-0.58730418\O,0,-0.66406145,2.06264532,-0.03274503\C,0,-1.0837
 8502,-1.53474579,-0.15831665\H,0,2.53140913,0.14793651,-0.126476\H,0,1
 .23614394,-0.43333965,-1.46519634\H,0,1.40019837,1.40184261,-1.0398809

 Normal termination of Gaussian 16 at Wed Apr  9 18:31:44 2025.
