 Gaussian 16, Revision C.01,

 ----------------------------------------------------------------------
 #t hf aug-cc-pvdz symm=none int=(grid=ultrafine) guess=(read,tcheck) s
 table=(opt,rrhf)
 ----------------------------------------------------------------------
 -----
 title
 -----
 Symbolic Z-matrix:
 Charge =  0 Multiplicity = 1

 SCF Done:  E(RHF) =  -307.906903125     A.U. after   13 cycles

 1\1\GINC-SE041\Stability\RHF\Aug-CC-pVDZ\C6H10O1\OHZDE\09-Apr-2025\0\\
 #t hf aug-cc-pvdz symm=none int=(grid=ultrafine) guess=(read,tcheck) s
 table=(opt,rrhf)\\title\\0,1\C,0,-2.22582284,0.25499692,0.17210604\C,0
 ,-0.73415474,0.17401523,0.40603197\C,0,-0.15721563,-1.20935892,0.12626
 898\C,0,1.34134574,-1.15300728,0.06687612\C,0,1.98345824,-0.00072301,-
 0.04955574\C,0,1.25109545,1.30066818,-0.18240604\O,0,-0.12235533,1.135
 17739,-0.43800034\H,0,-2.75179514,-0.4763595,0.78867652\H,0,-2.4514605
 8,0.05204667,-0.8766209\H,0,-2.59825024,1.24988823,0.41729469\H,0,-0.5

 Normal termination of Gaussian 16 at Wed Apr  9 19:17:09 2025.
 Gaussian 16:  ES64L-G16RevC.01  3-Jul-2019

 ----------------------------------------------------------------------
 #t hf aug-cc-pvdz iop(5/13=1,5/36=2,99/5=2) pseudo=read geom=check gue
 ss=(read,tcheck) scf=(maxcycle=1)
 ----------------------------------------------------------------------
 -----
 title
 -----
 Structure from the checkpoint file:  "Grambow2020_wb97xd3_009030_forward_mol2.chk"
 Charge =  0 Multiplicity = 1

                         Standard orientation:
 ---------------------------------------------------------------------
 Center     Atomic      Atomic             Coordinates (Angstroms)
 Number     Number       Type             X           Y           Z
 ---------------------------------------------------------------------
      1          6           0        2.354236   -0.076410   -0.009405
      2          6           0        0.880860   -0.005793    0.323052
      3          6           0        0.231811    1.306361   -0.103371
      4          6           0       -1.263833    1.199065   -0.040719
      5          6           0       -1.866951    0.023981    0.054418
      6          6           0       -1.095426   -1.261459    0.050245
      7          8           0        0.248932   -1.094716   -0.329203
      8          1           0        2.893508    0.750237    0.456994
      9          1           0        2.496901   -0.018745   -1.090262
     10          1           0        2.781778   -1.015028    0.343912
     11          1           0        0.743626   -0.120780    1.410440
     12          1           0        0.551352    1.564853   -1.119574
     13          1           0        0.578049    2.114887    0.547553
     14          1           0       -1.846889    2.113658   -0.067370
     15          1           0       -2.946781   -0.047803    0.132920
     16          1           0       -1.156274   -1.738343    1.042190
     17          1           0       -1.530912   -1.959676   -0.668495
 ---------------------------------------------------------------------

 SCF Done:  E(RHF) =  -308.233925818     A.U. after    2 cycles

 The electronic state is 1-A.
 Alpha  occ. eigenvalues --  -20.53769 -11.28333 -11.28233 -11.23496 -11.23233
 Alpha  occ. eigenvalues --  -11.23170 -11.22111  -1.46390  -1.09109  -1.05853
 Alpha  occ. eigenvalues --   -0.94809  -0.89271  -0.82564  -0.73122  -0.69090
 Alpha  occ. eigenvalues --   -0.65921  -0.63707  -0.60361  -0.58192  -0.56571
 Alpha  occ. eigenvalues --   -0.54374  -0.53822  -0.51044  -0.49999  -0.45505
 Alpha  occ. eigenvalues --   -0.40644  -0.35998
 Alpha virt. eigenvalues --    0.03565   0.03806   0.03946   0.04407   0.05653
 Alpha virt. eigenvalues --    0.05945   0.06423   0.07163   0.07787   0.08804
 Alpha virt. eigenvalues --    0.11901   0.12680   0.13123   0.14483   0.14571

 Mulliken charges:
               1
     1  C   -0.458712
     2  C    0.641863
     3  C   -0.721253
     4  C    0.464356
     5  C    0.099732
     6  C    0.374105
     7  O   -1.484312
     8  H    0.200369
     9  H    0.192736
    10  H    0.151888
    11  H    0.184369
    12  H    0.222485
    13  H    0.182859
    14  H   -0.166738
    15  H   -0.156362
    16  H    0.233119
    17  H    0.039495
 Sum of Mulliken charges =  -0.00000

 Dipole moment (field-independent basis, Debye):
    X=             -0.4006    Y=              0.8599    Z=              0.8153  Tot=              1.2509

 Test job not archived.
 1\1\GINC-SE041\SP\RHF\Aug-CC-pVDZ\C6H10O1\OHZDE\09-Apr-2025\0\\#t hf a
 ug-cc-pvdz iop(5/13=1,5/36=2,99/5=2) pseudo=read geom=check guess=(rea
 d,tcheck) scf=(maxcycle=1)\\title\\0,1\C,0,-2.22582284,0.25499692,0.17
 210604\C,0,-0.73415474,0.17401523,0.40603197\C,0,-0.15721563,-1.209358
 92,0.12626898\C,0,1.34134574,-1.15300728,0.06687612\C,0,1.98345824,-0.
 00072301,-0.04955574\C,0,1.25109545,1.30066818,-0.18240604\O,0,-0.1223
 5533,1.13517739,-0.43800034\H,0,-2.75179514,-0.4763595,0.78867652\H,0,
 -2.45146058,0.05204667,-0.8766209\H,0,-2.59825024,1.24988823,0.4172946

 Normal termination of Gaussian 16 at Wed Apr  9 19:17:15 2025.
