 Gaussian 16, Revision C.01,

 ----------------------------------------------------------------------
 #t hf aug-cc-pvdz symm=none int=(grid=ultrafine) guess=(read,tcheck) s
 table=(opt,rrhf)
 ----------------------------------------------------------------------
 -----
 title
 -----
 Symbolic Z-matrix:
 Charge =  0 Multiplicity = 1

 SCF Done:  E(RHF) =  -322.559377055     A.U. after   16 cycles
 Normal termination of Gaussian 16 at Wed Apr  9 03:26:51 2025.
 Gaussian 16:  ES64L-G16RevC.01  3-Jul-2019

 ----------------------------------------------------------------------
 #t hf aug-cc-pvdz iop(5/13=1,5/36=2,99/5=2) pseudo=read geom=check gue
 ss=(read,tcheck) scf=(maxcycle=1)
 ----------------------------------------------------------------------
 -----
 title
 -----
 Structure from the checkpoint file:  "Grambow2020_wb97xd3_006626_forward_mol1.chk"
 Charge =  0 Multiplicity = 1

                         Standard orientation:
 ---------------------------------------------------------------------
 Center     Atomic      Atomic             Coordinates (Angstroms)
 Number     Number       Type             X           Y           Z
 ---------------------------------------------------------------------
      1          8           0       -1.834133   -0.887036   -0.135251
      2          6           0       -1.589572    0.236303    0.211460
      3          6           0       -0.359460    1.026576   -0.074305
      4          6           0        0.886459    0.868185    0.760725
      5          6           0        1.105380   -0.653861    0.892747
      6          6           0        1.047993   -0.852815   -0.618677
      7          7           0        0.683366    0.566809   -0.980386
      8          1           0       -2.316318    0.806426    0.825378
      9          1           0       -0.614648    2.064764   -0.276187
     10          1           0        1.538884    1.181220   -0.363291
     11          1           0        0.327430   -1.168070    1.459659
     12          1           0        2.068814   -0.890829    1.338126
     13          1           0        0.317742   -1.553593   -1.013638
     14          1           0        2.022799   -1.057624   -1.057041
 ---------------------------------------------------------------------

 SCF Done:  E(RHF) =  -322.889090652     A.U. after    2 cycles

 The electronic state is 1-A.
 Alpha  occ. eigenvalues --  -20.56397 -15.56248 -11.36084 -11.29455 -11.28087
 Alpha  occ. eigenvalues --  -11.27926 -11.24530  -1.49944  -1.31727  -1.04566
 Alpha  occ. eigenvalues --   -0.99751  -0.92815  -0.80057  -0.77319  -0.74266
 Alpha  occ. eigenvalues --   -0.67412  -0.66947  -0.62453  -0.59070  -0.58119
 Alpha  occ. eigenvalues --   -0.57188  -0.52881  -0.51259  -0.43725  -0.43350
 Alpha  occ. eigenvalues --   -0.35994
 Alpha virt. eigenvalues --    0.03465   0.03841   0.04256   0.05235   0.05604
 Alpha virt. eigenvalues --    0.06413   0.07197   0.07473   0.10135   0.10383
 Alpha virt. eigenvalues --    0.11650   0.12086   0.13206   0.14122   0.14859

 Mulliken charges:
               1
     1  O   -1.193901
     2  C    0.914472
     3  C   -0.298769
     4  C   -0.465321
     5  C    0.117146
     6  C   -0.119866
     7  N    0.260490
     8  H    0.124514
     9  H   -0.131362
    10  H    0.626884
    11  H    0.083560
    12  H    0.043911
    13  H    0.020163
    14  H    0.018080
 Sum of Mulliken charges =  -0.00000

 Dipole moment (field-independent basis, Debye):
    X=              0.3086    Y=              0.2289    Z=              0.7948  Tot=              0.8828

 Test job not archived.
 1\1\GINC-SE097\SP\RHF\Aug-CC-pVDZ\C5H7N1O1\OHZDE\09-Apr-2025\0\\#t hf
 aug-cc-pvdz iop(5/13=1,5/36=2,99/5=2) pseudo=read geom=check guess=(re
 ad,tcheck) scf=(maxcycle=1)\\title\\0,1\O,0,0.9043408,1.15612991,1.693
 26737\C,0,1.26440828,1.20913047,0.54895401\C,0,0.46867751,0.88655716,-
 0.66847246\C,0,0.30968687,-0.53448086,-1.14810828\C,0,-0.05570094,-1.3
 5614039,0.10622409\C,0,-1.2151203,-0.42616687,0.44998941\N,0,-0.958095
 64,0.59930511,-0.62772356\H,0,2.29990021,1.5177229,0.29870989\H,0,0.69
 734731,1.58873616,-1.46745037\H,0,-0.87607515,-0.12311417,-1.60833581\

 Normal termination of Gaussian 16 at Wed Apr  9 03:26:56 2025.
