 Gaussian 16, Revision C.01,

 ----------------------------------------------------------------------
 #t hf aug-cc-pvdz symm=none int=(grid=ultrafine) guess=(read,tcheck) s
 table=(opt,rrhf)
 ----------------------------------------------------------------------
 -----
 title
 -----
 Symbolic Z-matrix:
 Charge =  0 Multiplicity = 1

 SCF Done:  E(RHF) =  -301.537582531     A.U. after   20 cycles
 Normal termination of Gaussian 16 at Wed Apr  9 19:11:59 2025.
 Gaussian 16:  ES64L-G16RevC.01  3-Jul-2019

 ----------------------------------------------------------------------
 #t hf aug-cc-pvdz iop(5/13=1,5/36=2,99/5=2) pseudo=read geom=check gue
 ss=(read,tcheck) scf=(maxcycle=1)
 ----------------------------------------------------------------------
 -----
 title
 -----
 Structure from the checkpoint file:  "Grambow2020_wb97xd3_008860_forward_mol1.chk"
 Charge =  0 Multiplicity = 1

                         Standard orientation:
 ---------------------------------------------------------------------
 Center     Atomic      Atomic             Coordinates (Angstroms)
 Number     Number       Type             X           Y           Z
 ---------------------------------------------------------------------
      1          7           0       -2.469274   -0.989377   -0.024638
      2          6           0       -1.765085   -0.074491   -0.038106
      3          6           0       -0.931219    1.057748    0.026014
      4          6           0        0.478165    0.923599    0.065717
      5          6           0        1.082937   -0.259011    0.975407
      6          6           0        1.873362   -0.713431   -0.222804
      7          7           0        0.931844    0.045109   -1.026817
      8          1           0       -1.416119    2.022715   -0.064160
      9          1           0        1.043540    1.849624    0.198371
     10          1           0        1.608609    0.148606    1.835415
     11          1           0        0.296667   -0.946793    1.266680
     12          1           0        2.885545   -0.289496   -0.276253
     13          1           0        1.914814   -1.781264   -0.437236
 ---------------------------------------------------------------------

 SCF Done:  E(RHF) =  -301.840508565     A.U. after    2 cycles

 The electronic state is 1-A.
 Alpha  occ. eigenvalues --  -15.55711 -15.50734 -11.30905 -11.29989 -11.29414
 Alpha  occ. eigenvalues --  -11.28213 -11.27800  -1.28129  -1.22738  -1.07085
 Alpha  occ. eigenvalues --   -0.97886  -0.92380  -0.81519  -0.72338  -0.70024
 Alpha  occ. eigenvalues --   -0.66530  -0.63578  -0.61558  -0.59323  -0.56698
 Alpha  occ. eigenvalues --   -0.52880  -0.51667  -0.49087  -0.45608  -0.32390
 Alpha virt. eigenvalues --   -0.05490   0.02732   0.03608   0.03997   0.04227
 Alpha virt. eigenvalues --    0.05873   0.06988   0.08374   0.09723   0.10820
 Alpha virt. eigenvalues --    0.12591   0.12762   0.13727   0.14162   0.14449

 Mulliken charges:
               1
     1  N    0.950620
     2  C   -2.120501
     3  C    1.193716
     4  C   -0.577063
     5  C    0.214848
     6  C   -0.100932
     7  N    0.475779
     8  H   -0.107932
     9  H   -0.102807
    10  H    0.044260
    11  H    0.124172
    12  H   -0.006489
    13  H    0.012330
 Sum of Mulliken charges =   0.00000

 Dipole moment (field-independent basis, Debye):
    X=              4.1081    Y=              3.4364    Z=              2.6187  Tot=              5.9618

 Test job not archived.
 1\1\GINC-SE048\SP\RHF\Aug-CC-pVDZ\C5H6N2\OHZDE\09-Apr-2025\0\\#t hf au
 g-cc-pvdz iop(5/13=1,5/36=2,99/5=2) pseudo=read geom=check guess=(read
 ,tcheck) scf=(maxcycle=1)\\title\\0,1\N,0,2.72910805,-0.39480113,1.416
 69182\C,0,2.15081562,-0.32325973,0.41992731\C,0,1.44968726,-0.32168119
 ,-0.80065652\C,0,0.07454101,0.01356971,-0.85080506\C,0,-0.86768392,-0.
 5519021,0.32576049\C,0,-1.35256077,0.85569379,0.5505847\N,0,-0.1588478
 1,1.29005748,-0.15273105\H,0,2.03668017,-0.48334167,-1.69716403\H,0,-0
 .40846468,-0.09148976,-1.82570853\H,0,-1.55903538,-1.29684384,-0.06049

 Normal termination of Gaussian 16 at Wed Apr  9 19:12:04 2025.
