 Gaussian 16, Revision C.01,

 ----------------------------------------------------------------------
 #t hf aug-cc-pvdz symm=none int=(grid=ultrafine) guess=(read,tcheck) s
 table=(opt,rrhf)
 ----------------------------------------------------------------------
 -----
 title
 -----
 Symbolic Z-matrix:
 Charge =  0 Multiplicity = 1

 SCF Done:  E(RHF) =  -320.726223437     A.U. after   13 cycles
 Normal termination of Gaussian 16 at Wed Apr  9 16:09:42 2025.
 Gaussian 16:  ES64L-G16RevC.01  3-Jul-2019

 ----------------------------------------------------------------------
 #t hf aug-cc-pvdz iop(5/13=1,5/36=2,99/5=2) pseudo=read geom=check gue
 ss=(read,tcheck) scf=(maxcycle=1)
 ----------------------------------------------------------------------
 -----
 title
 -----
 Structure from the checkpoint file:  "Grambow2020_b97d3_007139_reverse_mol2.chk"
 Charge =  0 Multiplicity = 1

                         Standard orientation:
 ---------------------------------------------------------------------
 Center     Atomic      Atomic             Coordinates (Angstroms)
 Number     Number       Type             X           Y           Z
 ---------------------------------------------------------------------
      1          8           0       -2.038739   -0.110216    0.001226
      2          6           0       -0.707211    0.052419    0.002454
      3          7           0       -0.077913    1.170069    0.013396
      4          6           0        1.347274    0.818364   -0.013811
      5          6           0        1.378012   -0.742635    0.015399
      6          8           0       -0.029377   -1.125342   -0.016080
      7          1           0       -2.399326    0.799633   -0.005036
      8          1           0        1.823756    1.218884   -0.921853
      9          1           0        1.871212    1.253388    0.850557
     10          1           0        1.817220   -1.154211    0.933108
     11          1           0        1.869006   -1.192601   -0.855974
 ---------------------------------------------------------------------

 SCF Done:  E(RHF) =  -321.049366098     A.U. after    2 cycles

 The electronic state is 1-A.
 Alpha  occ. eigenvalues --  -20.60971 -20.59476 -15.48431 -11.40585 -11.31122
 Alpha  occ. eigenvalues --  -11.27731  -1.56087  -1.49143  -1.22491  -1.02404
 Alpha  occ. eigenvalues --   -0.88717  -0.82962  -0.73462  -0.70837  -0.68464
 Alpha  occ. eigenvalues --   -0.62502  -0.61340  -0.58737  -0.57767  -0.52969
 Alpha  occ. eigenvalues --   -0.49833  -0.47977  -0.39998
 Alpha virt. eigenvalues --    0.03539   0.04484   0.04716   0.05056   0.06837
 Alpha virt. eigenvalues --    0.08160   0.10430   0.11228   0.11641   0.14109
 Alpha virt. eigenvalues --    0.14720   0.14900   0.16108   0.16186   0.19166

 Mulliken charges:
               1
     1  O   -1.183025
     2  C    1.348951
     3  N    0.524464
     4  C   -0.598950
     5  C    0.494525
     6  O   -1.256082
     7  H    0.280139
     8  H    0.088025
     9  H    0.094532
    10  H    0.104179
    11  H    0.103242
 Sum of Mulliken charges =  -0.00000

 Dipole moment (field-independent basis, Debye):
    X=              1.4651    Y=             -0.1937    Z=             -0.0207  Tot=              1.4780

 Test job not archived.
 1\1\GINC-SE226\SP\RHF\Aug-CC-pVDZ\C3H5N1O2\OHZDE\09-Apr-2025\0\\#t hf
 aug-cc-pvdz iop(5/13=1,5/36=2,99/5=2) pseudo=read geom=check guess=(re
 ad,tcheck) scf=(maxcycle=1)\\title\\0,1\O,0,2.47522064,-0.25765815,0.1
 0199904\C,0,1.13730464,-0.16700231,0.0676178\N,0,0.30447554,-1.0687539
 1,0.43979459\C,0,-1.02626184,-0.50317069,0.18514444\C,0,-0.75567469,0.
 93565989,-0.35805386\O,0,0.69906839,1.02074863,-0.42646734\H,0,2.65376
 006,-1.15366217,0.45298086\H,0,-1.57129435,-1.11958391,-0.54626966\H,0
 ,-1.62389803,-0.48524138,1.10894063\H,0,-1.10704489,1.72968346,0.31317

 Normal termination of Gaussian 16 at Wed Apr  9 16:09:45 2025.
