 Gaussian 16, Revision C.01,

 ----------------------------------------------------------------------
 #t hf aug-cc-pvdz symm=none int=(grid=ultrafine) guess=(read,tcheck) s
 table=(opt,rrhf)
 ----------------------------------------------------------------------
 -----
 title
 -----
 Symbolic Z-matrix:
 Charge =  0 Multiplicity = 1

 SCF Done:  E(RHF) =  -302.809835568     A.U. after   15 cycles
 Normal termination of Gaussian 16 at Wed Apr  9 18:11:16 2025.
 Gaussian 16:  ES64L-G16RevC.01  3-Jul-2019

 ----------------------------------------------------------------------
 #t hf aug-cc-pvdz iop(5/13=1,5/36=2,99/5=2) pseudo=read geom=check gue
 ss=(read,tcheck) scf=(maxcycle=1)
 ----------------------------------------------------------------------
 -----
 title
 -----
 Structure from the checkpoint file:  "Grambow2020_wb97xd3_007167_reverse_mol2.chk"
 Charge =  0 Multiplicity = 1

                         Standard orientation:
 ---------------------------------------------------------------------
 Center     Atomic      Atomic             Coordinates (Angstroms)
 Number     Number       Type             X           Y           Z
 ---------------------------------------------------------------------
      1          6           0       -0.408730    1.691574    0.601062
      2          6           0       -0.244087    0.504602   -0.344869
      3          6           0        2.011459   -0.042294   -0.820033
      4          7           0        0.972623   -0.280751   -0.024570
      5          6           0        0.910926   -1.059114    1.044931
      6          6           0       -1.440559   -0.347260   -0.339187
      7          7           0       -2.416932   -0.947528   -0.344450
      8          1           0       -0.592266    1.354904    1.619402
      9          1           0       -1.249140    2.304069    0.275454
     10          1           0        0.500995    2.290428    0.578227
     11          1           0       -0.117931    0.863557   -1.365231
     12          1           0        2.948570   -0.526845   -0.601806
     13          1           0        1.880542    0.594527   -1.675872
     14          1           0       -0.022198   -1.151208    1.572330
     15          1           0        1.787538   -1.616518    1.329215
 ---------------------------------------------------------------------

 SCF Done:  E(RHF) =  -303.122885578     A.U. after    2 cycles

 The electronic state is 1-A.
 Alpha  occ. eigenvalues --  -15.63434 -15.52916 -11.35379 -11.29381 -11.26955
 Alpha  occ. eigenvalues --  -11.24838 -11.24806  -1.34151  -1.25163  -1.10405
 Alpha  occ. eigenvalues --   -1.01729  -0.94935  -0.83995  -0.75513  -0.73055
 Alpha  occ. eigenvalues --   -0.68600  -0.66463  -0.62660  -0.60217  -0.58406
 Alpha  occ. eigenvalues --   -0.56860  -0.56591  -0.55723  -0.51954  -0.50728
 Alpha  occ. eigenvalues --   -0.26178
 Alpha virt. eigenvalues --    0.03009   0.03858   0.04047   0.04562   0.05264
 Alpha virt. eigenvalues --    0.05488   0.06775   0.07685   0.07976   0.09743
 Alpha virt. eigenvalues --    0.11456   0.12402   0.12634   0.13203   0.14770

 Mulliken charges:
               1
     1  C    0.222584
     2  C   -0.974560
     3  C   -0.224869
     4  N    1.522250
     5  C   -0.295825
     6  C   -1.761334
     7  N    1.141096
     8  H    0.245125
     9  H    0.194909
    10  H    0.166109
    11  H    0.187580
    12  H   -0.100861
    13  H   -0.134503
    14  H   -0.024798
    15  H   -0.162903
 Sum of Mulliken charges =  -0.00000

 Dipole moment (field-independent basis, Debye):
    X=              2.4480    Y=              3.1668    Z=              0.1635  Tot=              4.0060

 Test job not archived.
 1\1\GINC-SE113\SP\RHF\Aug-CC-pVDZ\C5H8N2\OHZDE\09-Apr-2025\0\\#t hf au
 g-cc-pvdz iop(5/13=1,5/36=2,99/5=2) pseudo=read geom=check guess=(read
 ,tcheck) scf=(maxcycle=1)\\title\\0,1\C,0,-0.95461518,-1.20914035,0.67
 30401\C,0,-0.2487341,-0.50837251,-0.48516961\C,0,-0.42157053,1.8537256
 4,-0.43051848\N,0,0.30790981,0.80196251,-0.06932939\C,0,1.40791821,0.7
 715662,0.66724836\C,0,0.79268587,-1.36511869,-1.06713009\N,0,1.5528397
 ,-2.09122119,-1.52385097\H,0,-0.24684071,-1.47759713,1.45472782\H,0,-1
 .43973085,-2.11505958,0.31050315\H,0,-1.70864988,-0.53920606,1.0845829

 Normal termination of Gaussian 16 at Wed Apr  9 18:11:21 2025.
