 Gaussian 16, Revision C.01,

 ----------------------------------------------------------------------
 #t hf aug-cc-pvdz symm=none int=(grid=ultrafine) guess=(read,tcheck) s
 table=(opt,rrhf)
 ----------------------------------------------------------------------
 -----
 title
 -----
 Symbolic Z-matrix:
 Charge =  0 Multiplicity = 1

 SCF Done:  E(RHF) =  -344.711741066     A.U. after   15 cycles

 1\1\GINC-SE333\Stability\RHF\Aug-CC-pVDZ\C5H10O2\OHZDE\09-Apr-2025\0\\
 #t hf aug-cc-pvdz symm=none int=(grid=ultrafine) guess=(read,tcheck) s
 table=(opt,rrhf)\\title\\0,1\C,0,2.12580503,0.9462008,-0.48309957\O,0,
 0.71768369,0.88991205,-0.47500203\C,0,0.23269069,-0.39565032,-0.649546
 81\C,0,0.36111348,-1.50472914,0.41812494\O,0,-0.96480789,-1.76653938,0
 .34555884\C,0,-1.27970332,-0.5921719,-0.46573687\C,0,-2.00723604,0.456
 6653,0.32821648\H,0,2.55277155,0.37076335,0.34613\H,0,2.53153643,0.559
 0879,-1.42578419\H,0,2.40648646,1.99180135,-0.3724126\H,0,0.58223817,-

 Normal termination of Gaussian 16 at Wed Apr  9 03:27:33 2025.
 Gaussian 16:  ES64L-G16RevC.01  3-Jul-2019

 ----------------------------------------------------------------------
 #t hf aug-cc-pvdz iop(5/13=1,5/36=2,99/5=2) pseudo=read geom=check gue
 ss=(read,tcheck) scf=(maxcycle=1)
 ----------------------------------------------------------------------
 -----
 title
 -----
 Structure from the checkpoint file:  "Grambow2020_wb97xd3_006655_forward_mol1.chk"
 Charge =  0 Multiplicity = 1

                         Standard orientation:
 ---------------------------------------------------------------------
 Center     Atomic      Atomic             Coordinates (Angstroms)
 Number     Number       Type             X           Y           Z
 ---------------------------------------------------------------------
      1          6           0        2.513536    0.112640    0.092726
      2          8           0        1.230892    0.680691   -0.042111
      3          6           0        0.299913   -0.213481   -0.544196
      4          6           0       -0.234106   -1.422773    0.255121
      5          8           0       -1.513376   -1.059349    0.003586
      6          6           0       -1.165250    0.248051   -0.549597
      7          6           0       -1.526523    1.365798    0.388405
      8          1           0        2.508815   -0.717833    0.807808
      9          1           0        2.886451   -0.254938   -0.871095
     10          1           0        3.174718    0.895001    0.460236
     11          1           0        0.611946   -0.582052   -1.532142
     12          1           0        0.109194   -0.659263    1.773488
     13          1           0        0.109006   -1.519052    1.482481
     14          1           0       -1.626277    0.374045   -1.531705
     15          1           0       -1.105474    2.303335    0.023716
     16          1           0       -2.610227    1.464961    0.454224
     17          1           0       -1.123705    1.183653    1.386440
 ---------------------------------------------------------------------

 SCF Done:  E(RHF) =  -345.069616268     A.U. after    2 cycles

 The electronic state is 1-A.
 Alpha  occ. eigenvalues --  -20.57735 -20.56389 -11.31248 -11.30456 -11.30398
 Alpha  occ. eigenvalues --  -11.29260 -11.23375  -1.52263  -1.48676  -1.05926
 Alpha  occ. eigenvalues --   -0.99905  -0.93257  -0.88669  -0.77012  -0.71588
 Alpha  occ. eigenvalues --   -0.70782  -0.67808  -0.64866  -0.62101  -0.58807
 Alpha  occ. eigenvalues --   -0.57688  -0.55353  -0.53213  -0.50753  -0.49139
 Alpha  occ. eigenvalues --   -0.47159  -0.42514  -0.33363
 Alpha virt. eigenvalues --    0.03405   0.03587   0.03983   0.04665   0.05885
 Alpha virt. eigenvalues --    0.06038   0.06855   0.07913   0.08479   0.09784
 Alpha virt. eigenvalues --    0.10252   0.12182   0.12665   0.13512   0.14717

 Mulliken charges:
               1
     1  C    0.084313
     2  O   -1.488670
     3  C    0.829028
     4  C    0.312013
     5  O   -1.348891
     6  C    0.739037
     7  C   -0.410984
     8  H    0.168949
     9  H    0.209193
    10  H   -0.025292
    11  H    0.085678
    12  H    0.082592
    13  H    0.141187
    14  H    0.029156
    15  H    0.221257
    16  H    0.163485
    17  H    0.207949
 Sum of Mulliken charges =   0.00000

 Dipole moment (field-independent basis, Debye):
    X=              1.2342    Y=              1.6581    Z=             -0.7856  Tot=              2.2113

 Test job not archived.
 1\1\GINC-SE333\SP\RHF\Aug-CC-pVDZ\C5H10O2\OHZDE\09-Apr-2025\0\\#t hf a
 ug-cc-pvdz iop(5/13=1,5/36=2,99/5=2) pseudo=read geom=check guess=(rea
 d,tcheck) scf=(maxcycle=1)\\title\\0,1\C,0,2.12580503,0.9462008,-0.483
 09957\O,0,0.71768369,0.88991205,-0.47500203\C,0,0.23269069,-0.39565032
 ,-0.64954681\C,0,0.36111348,-1.50472914,0.41812494\O,0,-0.96480789,-1.
 76653938,0.34555884\C,0,-1.27970332,-0.5921719,-0.46573687\C,0,-2.0072
 3604,0.4566653,0.32821648\H,0,2.55277155,0.37076335,0.34613\H,0,2.5315
 3643,0.5590879,-1.42578419\H,0,2.40648646,1.99180135,-0.3724126\H,0,0.

 Normal termination of Gaussian 16 at Wed Apr  9 03:27:38 2025.
