 Gaussian 16, Revision C.01,

 ----------------------------------------------------------------------
 #t hf aug-cc-pvdz symm=none int=(grid=ultrafine) guess=(read,tcheck) s
 table=(opt,rrhf)
 ----------------------------------------------------------------------
 -----
 title
 -----
 Symbolic Z-matrix:
 Charge =  0 Multiplicity = 1

 SCF Done:  E(RHF) =  -304.511323337     A.U. after   16 cycles
 Normal termination of Gaussian 16 at Wed Apr  9 03:15:50 2025.
 Gaussian 16:  ES64L-G16RevC.01  3-Jul-2019

 ----------------------------------------------------------------------
 #t hf aug-cc-pvdz iop(5/13=1,5/36=2,99/5=2) pseudo=read geom=check gue
 ss=(read,tcheck) scf=(maxcycle=1)
 ----------------------------------------------------------------------
 -----
 title
 -----
 Structure from the checkpoint file:  "Grambow2020_b97d3_006990_forward_mol1.chk"
 Charge =  0 Multiplicity = 1

                         Standard orientation:
 ---------------------------------------------------------------------
 Center     Atomic      Atomic             Coordinates (Angstroms)
 Number     Number       Type             X           Y           Z
 ---------------------------------------------------------------------
      1          6           0       -2.463034   -0.529625    0.327780
      2          6           0       -1.772242    0.584311   -0.350304
      3          6           0        0.556645    1.093188    0.251301
      4          6           0        1.455301   -0.031085    0.025940
      5          8           0        2.569415   -0.485821    0.098232
      6          8           0        0.272667   -0.500817   -0.385145
      7          1           0       -2.336569   -0.550968    1.419333
      8          1           0       -2.352920   -1.542017   -0.098996
      9          1           0       -3.521324   -0.225749    0.140808
     10          1           0       -1.758267    0.359310   -1.438763
     11          1           0        0.455029    1.885343   -0.484719
     12          1           0        0.117379    1.266449    1.229338
 ---------------------------------------------------------------------

 SCF Done:  E(RHF) =  -304.813751522     A.U. after    2 cycles

 The electronic state is 1-A.
 Alpha  occ. eigenvalues --  -20.60786 -20.55727 -11.41791 -11.37542 -11.28135
 Alpha  occ. eigenvalues --  -11.24749  -1.53381  -1.46330  -1.03554  -1.02079
 Alpha  occ. eigenvalues --   -0.82780  -0.77645  -0.71475  -0.69706  -0.66868
 Alpha  occ. eigenvalues --   -0.60781  -0.58122  -0.57424  -0.53594  -0.51310
 Alpha  occ. eigenvalues --   -0.47444  -0.45154  -0.36054
 Alpha virt. eigenvalues --    0.02893   0.03709   0.03880   0.05368   0.06155
 Alpha virt. eigenvalues --    0.06559   0.07400   0.09367   0.09689   0.11481
 Alpha virt. eigenvalues --    0.12251   0.13623   0.13972   0.14173   0.14593

 Mulliken charges:
               1
     1  C   -0.393182
     2  C   -0.365971
     3  C    0.133597
     4  C    1.637216
     5  O   -1.072949
     6  O   -0.992808
     7  H    0.167737
     8  H    0.181550
     9  H    0.223948
    10  H    0.142385
    11  H    0.178947
    12  H    0.159530
 Sum of Mulliken charges =  -0.00000

 Dipole moment (field-independent basis, Debye):
    X=             -2.8878    Y=              2.0682    Z=              0.4395  Tot=              3.5791

 Test job not archived.
 1\1\GINC-SE459\SP\RHF\Aug-CC-pVDZ\C4H6O2\OHZDE\09-Apr-2025\0\\#t hf au
 g-cc-pvdz iop(5/13=1,5/36=2,99/5=2) pseudo=read geom=check guess=(read
 ,tcheck) scf=(maxcycle=1)\\title\\0,1\C,0,-1.84716629,-0.11996829,0.30
 886321\C,0,-0.90935109,0.50681803,-0.64270605\C,0,1.46810985,0.6825244
 ,-0.0415352\C,0,2.08219871,-0.61381862,0.21293069\O,0,3.05894481,-1.24
 163783,0.53707474\O,0,0.82667606,-0.93275075,-0.11904349\H,0,-1.739658
 03,0.21869577,1.34890465\H,0,-1.97187334,-1.21619974,0.26496609\H,0,-2
 .80367639,0.31800401,-0.06603018\H,0,-0.93771984,-0.08524792,-1.583034

 Normal termination of Gaussian 16 at Wed Apr  9 03:15:53 2025.
