 Gaussian 16, Revision C.01,

 ----------------------------------------------------------------------
 #t hf aug-cc-pvdz symm=none int=(grid=ultrafine) guess=(read,tcheck) s
 table=(opt,rrhf)
 ----------------------------------------------------------------------
 -----
 title
 -----
 Symbolic Z-matrix:
 Charge =  0 Multiplicity = 1

 SCF Done:  E(RHF) =  -266.670259259     A.U. after   16 cycles
 Normal termination of Gaussian 16 at Wed Apr  9 15:42:36 2025.
 Gaussian 16:  ES64L-G16RevC.01  3-Jul-2019

 ----------------------------------------------------------------------
 #t hf aug-cc-pvdz iop(5/13=1,5/36=2,99/5=2) pseudo=read geom=check gue
 ss=(read,tcheck) scf=(maxcycle=1)
 ----------------------------------------------------------------------
 -----
 title
 -----
 Structure from the checkpoint file:  "Grambow2020_b97d3_006695_forward_mol1.chk"
 Charge =  0 Multiplicity = 1

                         Standard orientation:
 ---------------------------------------------------------------------
 Center     Atomic      Atomic             Coordinates (Angstroms)
 Number     Number       Type             X           Y           Z
 ---------------------------------------------------------------------
      1          6           0        1.183400    0.837472   -0.395370
      2          6           0        1.127397   -0.272213    0.571913
      3          8           0        0.230592   -0.973645   -0.291788
      4          6           0       -1.261205   -0.354197   -0.177536
      5          8           0       -1.237931    0.830229    0.309366
      6          1           0        1.636150    0.623862   -1.361548
      7          1           0        0.673973    1.780818   -0.240166
      8          1           0        2.044767   -0.858701    0.697148
      9          1           0        0.674652    0.001825    1.530332
     10          1           0       -1.567466   -0.514011   -1.233159
     11          1           0       -1.700918   -1.152838    0.472721
 ---------------------------------------------------------------------

 SCF Done:  E(RHF) =  -266.942442863     A.U. after    2 cycles

 The electronic state is 1-A.
 Alpha  occ. eigenvalues --  -20.56817 -20.44262 -11.39870 -11.32662 -11.30968
 Alpha  occ. eigenvalues --   -1.45713  -1.35057  -1.06364  -0.89650  -0.82145
 Alpha  occ. eigenvalues --   -0.73629  -0.68313  -0.63880  -0.60713  -0.58601
 Alpha  occ. eigenvalues --   -0.54871  -0.50903  -0.44780  -0.36895  -0.34037
 Alpha virt. eigenvalues --   -0.00248   0.03001   0.03657   0.05223   0.05795
 Alpha virt. eigenvalues --    0.06801   0.07347   0.10535   0.11270   0.11760
 Alpha virt. eigenvalues --    0.13402   0.13670   0.14769   0.16147   0.16949

 Mulliken charges:
               1
     1  C    0.152949
     2  C    0.624813
     3  O   -1.177717
     4  C    0.926986
     5  O   -1.192908
     6  H    0.101642
     7  H    0.149043
     8  H    0.059205
     9  H    0.201415
    10  H    0.068083
    11  H    0.086488
 Sum of Mulliken charges =   0.00000

 Dipole moment (field-independent basis, Debye):
    X=              5.4036    Y=              0.3731    Z=             -0.9014  Tot=              5.4910

 Test job not archived.
 1\1\GINC-SE163\SP\RHF\Aug-CC-pVDZ\C3H6O2\OHZDE\09-Apr-2025\0\\#t hf au
 g-cc-pvdz iop(5/13=1,5/36=2,99/5=2) pseudo=read geom=check guess=(read
 ,tcheck) scf=(maxcycle=1)\\title\\0,1\C,0,0.91220086,1.0262772,-0.0906
 9804\C,0,1.07245819,-0.43595671,-0.01092235\O,0,-0.10228828,-0.6034679
 7,-0.80726089\C,0,-1.42922718,-0.36261127,0.08909287\O,0,-1.16040519,0
 .30240074,1.15021141\H,0,1.02199786,1.47902747,-1.0740962\H,0,0.553894
 37,1.62590312,0.73729443\H,0,1.93305011,-0.86320045,-0.53823989\H,0,0.
 96507688,-0.83580841,1.00260139\H,0,-2.06155374,0.09011595,-0.70392544

 Normal termination of Gaussian 16 at Wed Apr  9 15:42:39 2025.
